
127118  0.0000000e+00
  54.4384241  40.2913809  84.6448517  54.1289234  40.2865028  83.6834526
  54.5005655  41.2307024  85.0107956  53.7685299  39.7195768  85.1392078
  55.7589531  39.7177386  84.6787834  55.9726048  39.6374726  85.7446194
  55.8113146  38.2454443  84.1164589  55.4415941  38.2636833  83.0912399
  56.8194962  37.8585553  84.2647934  54.7933483  37.3739982  84.8846149
  53.5956192  37.7161837  84.8355293  55.0563765  36.1756182  85.3326511
  56.7502832  40.6692743  84.0989876  57.1180153  40.4783726  82.9633713
  57.1422529  41.7117548  84.9294853  56.6191196  41.8231249  85.7862377
  58.2402515  42.6080036  84.6660519  57.9921484  43.1448984  83.7504768
  58.5088921  43.7042522  85.7774639  59.3166113  44.3667364  85.4663181
  57.2837591  44.5163679  86.0244179  56.9410610  44.8847485  85.0574780
  56.5080118  43.9865208  86.5772057  57.5449562  45.3425026  86.6857529
  58.8939190  43.0738735  86.9824696  59.7746229  42.7136421  86.8552017
  59.5320082  41.9288921  84.4441605  60.5177307  42.6134300  84.0056133
  59.6042538  40.6238699  84.6058369  58.8747358  40.1043749  85.0727749
  60.7826996  39.9260473  84.0953732  61.5674210  40.6179428  84.4013214
  60.9735107  38.6124587  84.8619270  61.9257879  38.2168102  84.5087528
  60.9940910  38.7503433  85.9429741  59.9970961  37.6327181  84.4817543
  59.5367432  37.4175644  85.2962494  60.7884407  39.7396517  82.5622559
  61.8501091  39.7371745  81.9243526  59.6201134  39.5989704  81.9095993
  58.7746620  39.7785378  82.4321556  59.4359827  39.3459082  80.4584503
  59.9902010  38.4328675  80.2409363  57.9566574  39.1159511  79.9500465
  57.3785639  40.0016642  80.2135372  57.9843235  39.1437984  78.8607502
  57.2005177  37.8320575  80.3303719  57.3778343  37.6504040  81.3903999
  55.6997538  38.0956602  80.1407909  55.4200649  37.9329252  79.0999269
  55.1682472  37.3312688  80.7076263  55.4077864  39.1391230  80.2592945
  57.7315998  36.6930294  79.5199156  58.8152790  36.7185330  79.6343184
  57.3575211  35.7060027  79.7918463  57.5874805  36.8746948  78.4548664
  60.2667141  40.3600264  79.5725918  61.1672783  39.9452758  78.7778234
  60.0948572  41.6800404  79.8242092  58.8936329  42.2829723  80.3835583
  58.6635303  42.1124792  81.4352703  58.0018759  41.9360924  79.8615074
  58.9732361  43.8462925  80.2116108  59.2539835  44.4414330  81.0805702
  57.9819441  44.2151117  79.9481440  59.8841286  43.9656115  78.9453840
  60.4566574  44.8921347  78.9885330  59.2489672  43.9018059  78.0618715
  60.7540607  42.6535797  78.9769888  60.8600569  42.3650837  77.9312181
  62.1409750  42.9447269  79.4970560  62.9755735  43.2641602  78.7094307
  62.3876238  42.7810621  80.8378315  61.6130400  42.7564526  81.4855385
  63.7597847  42.9150963  81.4006424  64.2101526  43.8693190  81.1272526
  63.7050295  42.6999044  82.9410458  63.2652760  41.7499256  83.2447815
  65.0954294  42.9776525  83.5641289  65.6641197  43.8092136  83.1479645
  64.9296236  43.0683851  84.6376228  65.6997490  42.0883322  83.3852196
  62.6929665  43.5820770  83.4248638  61.8788433  43.1232071  83.6445045
  64.6365070  41.8063116  80.8580112  65.7818174  42.1184492  80.6470013
  64.1786623  40.6031942  80.5361843  63.1704521  40.5433559  80.5303097
  64.9958372  39.4940877  79.9908113  65.9597301  39.4825673  80.4996014
  64.3906069  38.1964445  80.4524040  63.5230541  37.9373193  79.8455191
  65.0092173  37.3664713  80.1109791  64.1461372  38.2104039  81.8278122
  63.4688520  38.8704252  81.9929123  65.1156139  39.4482350  78.4708977
  65.5605602  38.4177613  77.9261589  64.5771360  40.4745436  77.8028202
  64.2277384  41.2701511  78.3176374  64.4895029  40.5197668  76.3170004
  63.8213348  41.3486671  76.0833883  65.8867788  40.8046722  75.7532406
  66.5596724  39.9996591  76.0486507  66.0105181  40.7708883  74.6708155
  66.3856506  42.1173668  76.2726068  65.9566450  43.3491611  75.8008671
  66.7306471  44.2663717  76.3464451  66.7633295  45.3306961  76.1660337
  67.5818920  43.6206818  77.1830130  68.4190559  44.0775728  77.5154495
  67.4538660  42.2808981  77.1178579  68.1322718  41.6296196  77.6488924
  63.7911177  39.3295550  75.7479620  64.4356585  38.5887122  75.0175428
  62.5624371  38.9648366  76.2240934  62.2022533  39.4606948  77.0269012
  61.9487095  37.6494312  75.7857132  62.6919127  36.8619680  75.9108925
  60.7416916  37.2869754  76.5964985  59.9373436  37.9982829  76.4089727
  60.1520014  35.9527969  76.3225269  59.8514032  35.9722686  75.2749729
  60.8178806  35.1485515  76.6354227  59.2312908  35.9163761  76.9048166
  61.0764170  37.3084140  77.9674339  60.9051085  38.2350159  78.1509161
  61.6953850  37.5713277  74.2872906  61.8009901  36.4820266  73.7192345
  61.4321470  38.7344861  73.7109804  61.4369202  39.6116066  74.2117167
  61.3152933  38.8789058  72.2527266  60.5026674  38.1930709  72.0132160
  60.9116364  40.3354979  71.9755745  60.6278753  40.3495121  70.9232521
  60.0970078  40.6526136  72.6266623  62.0050430  41.3613892  72.1795750
  62.1980572  41.9387197  73.4017563  61.5252399  41.7142582  74.2162132
  63.2806969  42.8218985  73.6194420  63.4331894  43.3156490  74.5677900
  64.2803955  42.9170322  72.6534414  65.4423618  43.6639214  72.8170967
  65.6088257  43.6928368  73.7621117  64.0961790  42.2955036  71.4330244
  64.9074936  42.3157215  70.7204485  62.9232454  41.5675211  71.1387920
  62.7906609  41.1019516  70.1733589  62.5167990  38.3956099  71.3166952
  62.3543739  37.7843189  70.2377415  63.6939478  38.6724043  71.8261480
  63.6825132  39.0568137  72.7600670  64.9840260  38.2708120  71.2810087
  64.9822712  38.6741638  70.2683878  66.1015987  39.0142465  72.0907736
  65.8387423  40.0716686  72.1201611  66.0174561  38.6511421  73.1150675
  67.5998116  38.7573647  71.7665625  67.8174305  37.7425671  72.0996284
  67.9704618  39.1257596  70.3261662  67.5718212  40.1019716  70.0501299
  69.0593004  39.1494513  70.2817488  67.5964880  38.2898569  69.7349644
  68.3507156  39.6163177  72.8080416  68.2948589  39.0579557  73.7424994
  69.3963099  39.7416449  72.5267410  67.8247547  40.5690575  72.8693533
  65.1315451  36.7319417  71.2631321  65.5529261  36.1270690  70.2820015
  64.5792437  36.0642719  72.2837496  64.1894388  36.6808772  72.9822874
  64.6889877  34.6051049  72.4964905  64.2758179  34.2951989  73.4563637
  64.1006517  34.0822363  71.7424488  66.1408854  34.1202211  72.4417925
  66.3637543  33.2062626  71.5831852  67.0947933  34.6314979  73.1915522
  66.9103765  35.1449013  74.0415573  68.5026264  34.2232680  73.0598688
  68.7033653  33.5604286  72.2181749  69.3431139  35.4497552  72.6968193
  69.2363310  36.1766052  73.5020447  70.4128027  35.2403045  72.6972866
  69.1110373  36.0296321  71.8035173  68.9470959  33.4188151  74.3428802
  69.3623543  34.0360641  75.3771544  68.6419678  32.1120048  74.3378019
  67.9910898  31.7133641  73.6763334  68.7890482  31.2304068  75.4976368
  69.6734715  31.4887047  76.0800266  67.4650431  31.3037848  76.3631725
  67.6984024  30.7031250  77.2422886  67.4627781  32.3182821  76.7617846
  66.0600042  30.9837723  75.7802248  65.0188971  31.3604999  76.4003181
  66.0059977  30.4118443  74.6910524  69.1651726  29.7757888  75.0459623
  68.9257193  28.8333964  75.8229733  69.7446251  29.5863795  73.8440084
  69.9962854  30.4424572  73.3708334  70.1292181  28.2920980  73.2777977
  69.2788696  27.6527619  73.5150051  70.0431204  28.3267212  71.7054558
  69.0460825  28.7304759  71.5293932  70.8407021  29.0056205  71.4036894
  70.2274275  27.0430970  70.8828974  71.1452818  26.5575838  71.2144375
  69.3963575  26.3898492  71.1487675  70.2049828  27.1210504  69.0652704
  68.3384514  26.9900012  68.9607525  67.9202557  27.9480147  68.6518621
  67.9839993  26.1984873  68.3004713  67.8944063  26.7841530  69.9346924
  71.4780235  27.8326535  73.9211082  71.6683626  26.6915011  74.1548300
  72.3533154  28.8072443  74.2902184  71.9829273  29.7403049  74.1792536
  73.4333754  28.5587096  75.2671337  73.2196712  27.6545930  75.8372307
  74.8211813  28.4778857  74.5386505  74.7217751  29.2643952  73.7905693
  75.6072283  28.7975383  75.2228022  75.2463531  27.2867799  73.6339045
  74.7379494  27.3611927  72.6726103  76.3283634  27.3508453  73.5187721
  75.0333548  25.8684134  74.1991377  75.3666019  24.8821259  73.5329866
  74.4025087  25.7157016  75.2847433  73.5420656  29.8079920  76.1825657
  73.0821466  30.8933830  75.7584143  74.1942644  29.6924329  77.3308468
  74.4360876  28.7507510  77.6044512  74.4789267  30.6879568  78.2992554
  74.4732428  31.6616607  77.8093863  73.3121061  30.8577800  79.3748331
  73.0532980  29.9526739  79.9242878  73.7188864  31.4564681  80.1898193
  72.0472622  31.3971567  78.8177919  72.2834539  32.3032522  78.2598400
  71.6180038  30.7094097  78.0892038  70.9343576  31.5815544  79.9168110
  71.0331774  31.0351110  81.0252857  70.0862598  32.4672341  79.7506428
  75.8004522  30.4541659  79.0146923  76.1888170  29.3082333  79.1845322
  76.4241409  31.5221453  79.4744968  75.8819294  32.3579574  79.3085861
  77.8050852  31.5103412  79.9476051  78.2200432  30.5043006  80.0092506
  78.6546946  32.3359776  78.9233875  78.5031128  33.4151006  78.8985586
  79.6956110  32.2056484  79.2193747  78.4084129  31.7262340  77.4758387
  77.9344416  32.5314379  76.4322901  77.7795887  33.6000466  76.4547014
  77.5855303  31.9487786  75.2078962  77.1248770  32.5225472  74.4173336
  77.7736473  30.5966043  75.0203609  77.5257826  30.2245283  74.0372419
  78.3857298  29.7854590  75.9774256  78.5262871  28.7406206  75.7429838
  78.8183928  30.3818917  77.1936560  79.3522310  29.7870922  77.9200363
  77.7888393  32.1657848  81.3393879  76.9744015  33.0840611  81.6119957
  78.6752510  31.7296147  82.2853947  79.5583296  31.3719726  81.9501686
  78.6367750  32.2371554  83.6766529  78.0128193  33.1302667  83.6430073
  78.0329418  31.2163544  84.6462154  78.8742971  30.5391097  84.7930527
  77.9670048  31.6794682  85.6307316  76.6902685  30.4594588  84.4227123
  76.4753866  29.1103864  84.8377419  75.1815653  28.8777876  84.4592667
  74.6298981  27.9493427  84.4516850  74.6155977  29.8969936  83.8968754
  73.6615849  29.9750519  83.5745716  75.5524254  30.8421803  83.8066578
  75.4248047  31.8872952  83.5661316  80.0678825  32.6482463  84.1245842
  80.3815460  32.7421427  85.3034782  80.9564114  33.0195570  83.1774712
  80.5693913  33.2355380  82.2699070  82.3648643  33.5787487  83.3705425
  82.7062416  33.1839323  84.3274593  83.0006695  33.3256984  82.5221252
  82.4172783  35.0947952  83.3323097  81.3281631  35.7009888  83.1927586
  83.5937595  35.7327247  83.4324360  84.4325256  35.1701450  83.4235382
  83.7589359  37.1980405  83.3422947  83.1312943  37.6846361  82.5957012
  83.2783699  37.8071356  84.7304344  82.2364044  37.5333190  84.8960495
  83.7603760  37.3830009  85.6112671  83.3814430  39.3476844  84.8083782
  84.4005680  39.7028494  84.9611473  83.2069016  39.7336483  83.8040543
  82.5432205  40.0622177  85.8783817  81.5247345  39.7813034  85.6103230
  82.7336407  39.7065520  86.8909740  82.7016258  41.5607834  85.7570648
  83.3262348  41.9590139  85.0705051  82.1352863  42.4695349  86.5438843
  82.6000309  43.6595488  86.6300869  83.3553314  43.9093399  86.0078144
  82.1923065  44.2106724  87.3717976  81.1872005  42.2202301  87.3912334
  80.7221413  41.3302088  87.4993038  80.8168602  42.9708004  87.9565525
  85.1806545  37.5674009  83.0565262  86.0817146  37.3488307  83.8899517
  85.3793240  38.1626534  81.8531799  84.6796227  38.0820918  81.1292744
  86.6640091  38.7962341  81.4460373  87.5078678  38.1157374  81.5597630
  86.6659737  39.2981958  80.0034809  86.0228729  40.1775742  79.9685907
  87.9372597  39.5709515  79.2491770  88.5513592  38.6718130  79.1988611
  87.8754139  40.0490093  78.2715607  88.4418488  40.2635622  79.9228096
  86.1125660  38.2297730  79.2737818  85.9101105  38.6409116  78.4302330
  87.0273209  39.9465370  82.3639965  86.1479855  40.7988024  82.5955772
  88.3074570  39.9705076  82.8601170  88.9190674  39.2144990  82.5871849
  88.7548923  40.7878304  83.9954662  88.0790615  41.6401482  84.0655994
  88.7078571  40.0376320  85.3438854  89.2560482  39.0975928  85.2813435
  89.2153549  40.5970335  86.1297703  87.2983742  39.8034358  85.8662701
  86.7088699  39.3548489  85.0666618  87.4798107  38.8916636  87.0799160
  87.6412582  37.8552055  86.7836380  88.2946205  39.1844201  87.7420807
  86.4867210  38.9256191  87.5279331  86.6103172  41.1452770  86.3093376
  86.2634087  41.5577984  85.3619385  85.7339668  40.9714079  86.9337463
  87.2459412  41.9683647  86.6358471  90.1293373  41.4383936  83.8505936
  91.1141968  41.1635590  84.5290279  90.1340103  42.3056364  82.8288746
  89.2355442  42.6208210  82.4919510  91.3391018  43.0557060  82.4682236
  92.0603466  42.3007393  82.1552849  91.0746956  43.9571857  81.2177467
  90.0801373  44.3940830  81.3075924  91.7971039  44.7677898  81.3134670
  91.2604713  43.2997036  79.8462105  92.0642757  42.2026491  79.4972754
  91.8902111  41.9099092  78.1816387  92.2636604  41.0759211  77.6059723
  90.8867645  42.6456070  77.7555466  90.3434181  42.4569559  76.9253159
  90.5184937  43.5897350  78.7604094  89.7421932  44.3362045  78.6795187
  91.8115330  43.8973713  83.6391926  91.0116386  44.4176912  84.3917465
  93.1048107  44.0460634  83.7301540  93.6202049  43.6249733  82.9704475
  93.6819744  44.9281359  84.7055531  93.1172562  44.8736429  85.6362724
  95.1310253  44.5510578  84.9515533  95.2181339  43.4650564  84.9182129
  95.7136345  44.9059105  84.1014099  95.7377148  45.2163458  86.2081623
  96.9723797  45.2424622  86.2757969  95.0312614  45.7594061  87.1003628
  93.6152840  46.3804865  84.2904091  93.6864281  46.7094803  83.1086636
  93.5314560  47.3214006  85.2294064  93.6298943  46.9205809  86.1512280
  93.8466930  48.7837648  85.0630569  93.0779552  49.1111898  84.3631077
  93.7346077  49.5305014  86.4459801  94.5938492  49.1674614  87.0098877
  93.8219643  50.6015873  86.2636757  92.4772739  49.2283726  87.2857952
  92.5362301  49.4978714  88.5217190  91.4779663  48.6268759  86.8364525
  95.2251625  48.9376974  84.3465137  96.1503887  48.1479645  84.3714428
  95.2278614  49.8566198  83.3369541  94.4291306  50.4598236  83.2018185
  96.4022636  50.2657080  82.4773979  96.0836029  51.1664248  81.9527435
  97.6257801  50.7526445  83.3861160  97.9350471  49.9665022  84.0749073
  98.4480190  51.0911989  82.7557087  97.3439026  51.8396521  84.4487762
  96.2252426  52.0367765  84.9648094  98.3235741  52.5698614  84.7150230
  96.8984032  49.1401911  81.5376377  97.9735374  49.2631435  80.8996773
  96.0623264  48.1080389  81.3226128  95.2914906  48.0204010  81.9693184
  96.3625145  46.9407177  80.5112171  97.4070740  46.6573238  80.6404781
  95.4543018  45.7704496  80.9021282  95.5670643  45.7215118  81.9851685
  94.4618034  46.1907387  80.7396317  95.6885624  44.6060371  80.2084732
  95.1088619  43.9728117  80.6380939  96.1896801  47.1919680  78.9811325
  95.2721119  47.9615879  78.5522461  97.0641804  46.6793156  78.1064129
  97.8039455  46.1176825  78.5031748  97.2929478  47.1324635  76.6771269
  96.6372681  47.9601145  76.4066172  98.7371540  47.6938391  76.4862394
  99.4211674  46.9365406  76.8692827  99.0180016  47.9009962  74.9808645
  99.0910912  46.9071245  74.5393085  98.2701778  48.4254169  74.3860006
  99.9690342  48.4103537  74.8253202  98.8532829  49.1076279  77.1283436
  98.5076237  49.9228621  76.4927197  98.3866787  49.0839767  78.1131363
 100.4038048  49.2479706  77.3895407 101.0706520  49.1792345  76.5300751
 100.6068039  50.1961040  77.8874779 100.7622337  48.5015821  78.0984402
  96.9040966  45.9248352  75.8438921  97.4740028  44.9033356  76.0634899
  95.8672428  46.0137224  74.9754047  95.5678368  46.9639349  74.8093843
  95.3015900  44.8931932  74.2374420  96.0240173  44.0778160  74.2743731
  93.9973068  44.4545698  74.9051046  93.3057785  45.2955008  74.8529005
  93.5494614  43.5696602  74.4529247  94.1931820  44.1772938  76.4124346
  94.5683479  45.0197792  76.9934464  93.1725311  44.1142845  76.7897892
  94.9468422  42.8883219  76.7615557  95.2075577  42.0226908  75.9523726
  95.4658699  42.7272558  77.9962826  96.0563755  41.9537115  78.2665300
  95.5380917  43.4663296  78.6808634  95.0799274  45.3462791  72.8010559
  95.2377224  46.4722252  72.4129391  94.7887039  44.3427181  72.0091248
  94.7838688  43.4206772  72.4213314  94.5298672  44.3079472  70.5388165
  94.3755150  45.3134823  70.1474380  95.6784439  43.7053919  69.7394180
  96.0011387  42.7733421  70.2033710  95.2501011  43.5243320  68.2879591
  94.5153618  42.7241564  68.1985569  94.7482491  44.3271208  67.7478027
  96.0679722  43.2348251  67.6281309  96.8208790  44.7419357  69.8478889
  97.6883125  44.4968128  69.2350435  96.3733387  45.6290817  69.3997955
  97.1311092  44.8157740  70.8901930  93.1759262  43.4784937  70.4545450
  93.1421852  42.3081827  70.7115459  92.0615673  44.1200781  70.1021671
  92.1631527  45.1242781  70.0653505  90.7153320  43.5170794  70.0422478
  90.8397579  42.4350262  70.0843906  89.8329449  43.9436913  71.3371515
  89.5492268  44.9886274  71.2118101  88.4561729  43.2304239  71.3761473
  88.6938286  42.1666479  71.3782787  87.8874683  43.6330795  72.2143221
  87.9960823  43.4643745  70.4161072  90.6339264  43.6634159  72.6472950
  90.9002972  42.6098490  72.7318048  91.5555096  44.2378378  72.7412176
  90.0460052  44.1235781  73.9885187  89.4423676  43.3560848  74.4729614
  90.8929157  44.3515968  74.6357059  89.4217587  45.0026321  73.8282490
  89.9539948  43.8199377  68.7680578  89.8906994  45.0223207  68.3781290
  89.2670441  42.7916670  68.1288576  89.4451427  41.3389921  68.3236361
  89.1946983  41.0704041  69.3499136  90.4948235  41.1596060  68.0910826
  88.4946251  40.6602669  67.3348808  87.5882339  40.3620911  67.8617954
  88.8900566  39.7868419  66.8163586  88.0425930  41.7877626  66.3311338
  87.0347977  41.7348337  65.9192562  88.6681461  41.6493368  65.4492998
  88.3153343  43.0815792  67.1074343  88.6779118  43.7888765  66.3615370
  87.0275307  43.8239574  67.5177193  86.3313103  43.4407091  68.4961891
  86.7278099  44.8971367  66.7704344  87.3380947  44.9196768  65.9659863
  85.5578709  45.7953978  66.8275738  85.4133797  45.9814215  67.8918219
  85.7819557  47.0952511  66.0944796  85.7839966  46.7493868  65.0608063
  84.6320248  48.0420208  66.1904860  84.9223804  49.0381527  65.8565331
  83.8415241  47.6964283  65.5243254  84.3035793  48.1763077  67.2211123
  87.1037960  47.7779913  66.5470076  87.8619289  47.2169828  66.0005569
  87.0994282  48.8252163  66.2446880  87.3388481  47.7289391  67.6102257
  84.4140625  44.9457312  66.2282181  84.5839310  44.5712996  65.0478458
  83.2685375  44.6509075  66.8788576  83.1772709  45.0704813  67.7930355
  82.0907879  44.0591240  66.2344313  82.4109364  43.3741331  65.4493189
  81.3205528  43.1204462  67.2982693  81.9447708  42.2726345  67.5805187
  81.0449600  43.7520647  68.1427860  79.9371243  42.6098299  66.7920542
  79.2767048  43.4685946  66.6717625  79.9380016  41.9500065  65.3827143
  80.2320766  42.7237034  64.6734810  80.5842400  41.0729647  65.3469467
  78.8863659  41.7069292  65.2308178  79.3815994  41.5762758  67.7863932
  79.3995333  41.9802761  68.7986040  78.3521938  41.3753939  67.4896240
  80.0048542  40.6821251  67.7742863  81.2760258  45.1707077  65.6732464
  80.5596161  45.8329678  66.4610434  81.3018417  45.4666424  64.3735933
  81.7666149  44.7128153  63.2823133  80.9595966  44.1108704  62.8646040
  82.4785995  43.9767361  63.6556435  82.4186802  45.7299232  62.3274851
  82.4808311  45.3708029  61.3002205  83.4546852  45.9416533  62.5920200
  81.5246677  46.9817972  62.4681759  80.6843948  47.0343637  61.7758656
  82.1971321  47.8367233  62.3975658  81.0044098  46.8186665  63.8705397
  81.6075611  47.5474787  64.4119596  79.5838451  47.2674131  63.9929771
  79.3816376  48.4921885  64.0084553  78.6252642  46.3527060  64.0147972
  78.8974524  45.3836966  63.9309406  77.1905661  46.7607880  64.1696835
  76.9443321  47.4658108  63.3756971  76.2268448  45.4515791  64.1763353
  76.5668488  45.1178265  63.1959677  76.6342735  44.7922421  64.9427414
  74.6751022  45.5757189  64.2963696  74.1863012  44.6048641  64.2150211
  74.2944145  45.8894062  65.2683640  74.0344810  46.3687325  63.1495237
  74.6198177  46.6291475  62.1378994  72.7745867  46.7171431  63.2020950
  72.4818468  47.3418522  62.4644327  72.2363997  46.4989948  64.0284538
  76.8524075  47.4888563  65.5339146  75.8744717  48.3027315  65.5362320
  77.6867676  47.3226738  66.5764761  78.4737873  46.6974449  66.4775229
  77.6584673  48.1976557  67.7912045  76.6284513  48.4822989  68.0060530
  78.1795883  47.4118185  69.0708399  79.2691517  47.4383259  69.0550470
  77.5145483  48.1024551  70.2953863  76.4248276  48.0806828  70.2837467
  77.8023338  47.6129007  71.2257719  77.8928185  49.1175222  70.4164457
  77.9085779  45.8725309  68.9682388  76.8454885  45.7164097  68.7850332
  78.5312510  45.4613638  68.1736851  78.1153917  45.4014969  69.9291945
  78.4802818  49.4659281  67.7487755  79.7391081  49.5404387  67.8373718
  77.6994801  50.5022526  67.4968624  76.7038202  50.3650951  67.5966358
  78.1617212  51.9180584  67.4236345  79.2379379  52.0079517  67.5712156
  77.8779364  52.3519468  65.9511518  76.8029118  52.4910355  65.8367777
  78.3321667  53.3177662  65.7298613  78.3706999  51.4047194  64.8603678
  79.4504118  51.2553978  64.8557997  77.9903364  50.4007483  65.0487089
  77.7192736  51.7733049  63.2042360  75.9427118  51.4656973  63.4876204
  75.3871536  52.1509743  64.1278219  75.4281092  51.5123177  62.5278759
  75.7270145  50.4622173  63.8545132  77.3848104  52.7420759  68.5034132
  76.3521338  53.3257151  68.1216621  77.9462910  52.7287912  69.7230339
  78.7767982  52.1892405  69.9211359  77.4289989  53.5911274  70.7448053
  77.0936823  54.4208479  70.1225328  76.3252020  52.8093386  71.5332651
  75.8977699  53.5962677  72.1546698  75.5771685  52.4637604  70.8197403
  76.6966915  51.5373611  72.3273516  77.2332478  50.9183407  71.6083097
  77.3215246  51.7212057  73.2013607  75.3315115  50.4253674  72.8622866
  74.9835348  51.2201834  74.4321537  74.1710472  51.9453526  74.3864107
  74.7016478  50.4120874  75.1071548  75.9045649  51.6869450  74.7813606
  78.5352087  53.9534044  71.6969347  79.5919466  53.3837748  71.7365265
  78.1358004  54.8391104  72.6120567  77.1740913  55.1474810  72.6007128
  78.9468908  55.1931286  73.7426758  80.0194168  55.1828671  73.5485744
  78.6394453  56.6342258  74.0497112  77.5669289  56.8129206  73.9730024
  79.1738987  57.0893192  75.4680252  80.2412033  56.8749475  75.5227327
  79.0117502  58.1637812  75.5536652  78.6001253  56.5526199  76.2235594
  79.2762327  57.5786209  73.0093575  79.0055799  58.6169481  73.2009983
  80.3461456  57.5988579  73.2166815  79.2548418  57.3245192  71.5134287
  79.7241783  56.3673115  71.2863111  78.1933308  57.3958969  71.2763548
  79.6898699  58.2272434  71.0845470  78.7236452  54.1486979  74.8785162
  77.9554462  54.4342470  75.8041239  79.1834021  52.9279184  74.6510935
  79.7375488  52.7729559  73.8210344  78.9663649  51.8090868  75.5372763
  77.8927803  51.7302752  75.7084513  79.5198154  50.4595375  74.9681520
  78.9845276  50.2479362  74.0425205  80.5653858  50.6394815  74.7181273
  79.1641760  49.2434597  75.8658791  79.4344330  49.3183374  76.9191837
  77.7217913  48.7483978  75.8741188  77.1591711  49.5335627  76.3791656
  77.4133492  48.5530758  74.8470783  77.6515436  47.7811670  76.3717413
  79.9288797  48.0782461  75.2632236  79.5581961  47.9532290  74.2458439
  80.9936714  48.2739830  75.1366806  79.7821474  47.2200727  75.9190559
  79.6161509  52.1320534  76.9243479  80.7584476  52.6147938  77.0888042
  78.8808918  51.8691730  78.0085278  77.9571104  51.5176582  77.8007650
  79.3844891  51.8989086  79.4420624  80.3297234  52.4410439  79.4687843
  78.3170748  52.6413059  80.2437878  77.4394178  51.9952440  80.2231884
  78.6863852  52.9933596  81.6677284  79.4633579  53.7574005  81.6932869
  77.7435684  53.2575226  82.1467018  79.0710402  52.1191311  82.1929646
  77.9823923  54.0037489  79.6643543  77.3286295  54.5651865  80.3318024
  78.9298391  54.5245790  79.5258760  77.4219036  53.8476372  78.7426233
  79.6210241  50.5119133  80.1255035  78.9146376  49.5479822  79.8522282
  80.6907940  50.3614664  80.9453106  81.6573429  51.3503838  81.2602520
  81.2797642  52.2035551  81.8238449  82.1047401  51.7319775  80.3424644
  82.7722931  50.6929588  82.0086861  83.3173370  51.4611053  82.5572968
  83.4112930  50.2321243  81.2554169  82.1206474  49.6428204  82.8520012
  81.7551041  50.1828527  83.7254143  82.6960182  48.7876940  83.2067013
  80.9954643  49.1756058  81.8668079  81.3812733  48.3506107  81.2679482
  79.7485256  48.6565542  82.5702572  79.0448856  49.5302677  83.1583881
  79.3822575  47.4059725  82.4862194  80.0248814  46.6926241  82.1727467
  78.2184124  46.7842436  83.2365227  78.4523296  45.7248259  83.3414936
  78.0909872  47.2977877  84.1894913  76.8459415  46.8472672  82.4987793
  75.9716606  46.1098623  82.9336357  76.7045021  47.7304888  81.5489483
  77.5112152  48.1918955  81.1534405  75.4162693  47.9335022  80.7693768
  74.5605659  48.1570435  81.4064789  75.5922747  49.1848087  79.8226404
  75.9615660  49.9897432  80.4580975  76.3307285  48.9113283  79.0689898
  74.4303989  49.7363138  79.0983248  74.1863346  49.0275002  78.3070469
  73.5784483  49.8193836  79.7731495  74.6032000  51.1501884  78.5254955
  75.7168579  51.6243696  78.4393072  73.5300398  51.8890810  78.1666374
  73.6224556  52.8862238  78.0352402  72.6022577  51.5313911  78.3437681
  75.1819515  46.6645908  79.8549223  76.0939455  46.1118937  79.2429209
  73.9274931  46.2112617  79.7711372  73.2264900  46.7401409  80.2701187
  73.5082674  45.0530052  78.9315510  74.1976166  44.2090464  78.9565134
  72.1916533  44.4233370  79.4945717  71.4114332  45.1830196  79.4472361
  71.5384579  43.2918882  78.6976194  72.1967268  42.4232578  78.7137556
  70.6308746  42.9829597  79.2162371  71.2032127  43.5817766  77.7017832
  72.2325277  43.9063978  80.8714294  71.7327833  44.5554590  81.3720131
  73.2718515  45.4111528  77.4829102  72.7616930  46.5078259  77.2186327
  73.5660172  44.4586229  76.5634537  74.0400267  43.6618853  76.9642305
  73.6211252  44.7069788  75.0695181  73.0158234  45.5901146  74.8651171
  75.0847673  45.0434494  74.6146202  75.4896450  45.8457756  75.2314234
  75.7798767  44.2322731  74.8311996  75.1340485  45.4060268  73.0907631
  74.3757772  44.8462868  72.5432110  74.6561289  46.8758297  72.9940414
  73.6073875  47.0300102  73.2479715  75.3560925  47.4655962  73.5859203
  74.6990585  47.1549511  71.9412565  76.5376854  45.2366924  72.4727345
  76.5176916  45.5264902  71.4221525  77.3240709  45.7148647  73.0567312
  76.7967415  44.1917610  72.6433277  72.9543829  43.5761118  74.3443441
  73.5736656  42.6056814  73.9701986  71.6918850  43.7518406  73.8637781
  70.7270098  44.7134018  74.2954445  71.0144997  45.7156467  73.9777040
  70.7116318  44.6574926  75.3839016  69.4264221  44.3488741  73.6137009
  69.3496656  44.8036623  72.6260853  68.6330938  44.6397209  74.3022728
  69.5570087  42.8442144  73.3634758  68.8417053  42.4800777  72.6260185
  69.3192005  42.3595667  74.3103981  71.0777617  42.6741219  73.0699301
  71.4840031  41.6997385  73.3413315  71.3524818  42.8816271  71.5902376
  71.3258028  43.9879608  71.0940313  71.6211224  41.8396759  70.8247519
  71.5417051  40.9145260  71.2221193  72.0553350  41.9352865  69.4150591
  71.8567371  42.9104471  68.9703941  73.5472822  41.7524052  69.2922449
  73.8129759  40.9396076  69.9681664  73.7450361  41.4718914  68.2576847
  74.4615650  43.0244589  69.5339584  74.1203737  43.4907770  70.4582071
  75.8801031  42.5334311  69.8513794  76.5328026  43.3517218  70.1554823
  75.8631182  41.9807243  70.7907057  76.2811995  42.0510864  68.9599943
  74.4790697  43.9337873  68.2880688  73.4784555  44.1842079  67.9357100
  75.0660467  44.8325491  68.4772396  74.8977757  43.3345699  67.4795389
  71.3711357  40.8973885  68.5491896  71.2799501  39.7499752  68.9082432
  71.0525417  41.3003492  67.3004198  71.1738491  42.2549582  66.9936609
  70.6820965  40.3997517  66.1896896  70.6938887  39.3469000  66.4715815
  69.1864014  40.5228662  65.9248304  68.8868475  41.5213346  65.6063461
  69.1321898  39.7319531  65.1767540  68.4537601  40.1258373  67.1853781
  68.8151979  39.1411686  67.4818373  68.6798668  40.7367849  68.0592871
  66.9524336  40.0011969  66.9443989  66.2635279  39.1197944  67.4551964
  66.3031816  40.8440399  66.2112951  65.3421021  40.5519962  66.1057568
  66.5520620  41.7774773  65.9165907  71.6137648  40.6314516  64.9581003
  71.7624807  41.7326403  64.4406128  72.3732090  39.6021175  64.5843697
  72.0856953  38.6767673  64.8692656  73.3938026  39.6178603  63.5051346
  73.5330105  40.6246471  63.1113100  74.7941780  39.3011498  64.0830421
  74.9279690  38.2503581  64.3400192  75.3933430  39.5880175  63.2188606
  75.2155209  40.1682138  65.2759886  74.4619417  40.1273251  66.0624695
  76.4536953  39.5359898  65.7860374  77.1193790  39.2380309  64.9759817
  76.8911839  40.1448584  66.5772343  76.1448812  38.5664558  66.1768532
  75.4039717  41.6273689  64.8519039  76.1315966  41.6826391  64.0422106
  74.5088768  42.1676636  64.5436954  75.7820415  42.1060753  65.7552338
  73.0989552  38.6372924  62.3375320  73.0757189  37.4150014  62.5614691
  72.9969597  39.1897082  61.1141348  73.1342411  40.1815605  60.9818983
  72.7531099  38.4275603  59.8593664  72.3697424  37.4573207  60.1752186
  71.5224934  39.0174770  59.1187048  71.7922688  40.0232315  58.7965441
  71.3051033  38.4647393  58.2047415  70.2832127  39.3588519  59.9513435
  70.1620770  40.5585575  60.7641792  71.0206604  41.2120056  60.8115196
  69.1115236  40.8294010  61.6003942  69.1821146  41.6578817  62.2896242
  68.0092096  39.9427176  61.5952539  67.1283436  40.1246119  62.1930790
  68.0589819  38.7845159  60.8137274  67.1583128  38.1905532  60.8628082
  69.1403675  38.5599852  59.9865294  68.9784384  37.7274704  59.3178749
  73.9800072  38.3616495  58.9223099  73.8918495  37.6311278  57.9102945
  74.9952030  39.2055774  59.1068554  74.9258757  39.8630404  59.8704243
  76.2110043  39.2729092  58.2807446  75.8213806  39.2493343  57.2630358
  76.9804287  40.5917788  58.5465860  76.3199902  41.4301920  58.7679052
  77.6752472  40.4032040  59.3649769  77.8484631  40.9227896  57.4043608
  79.0539360  40.3260899  57.0575380  79.4798517  40.9025049  55.9256649
  80.3216648  40.6688929  55.2907038  78.6620188  41.8877411  55.5819082
  78.6672401  42.4345398  54.7327375  77.5575209  41.8023825  56.4583111
  76.7480135  42.5162792  56.4200878  77.0976067  38.0984211  58.4922123
  77.5410509  37.9436922  59.6560717  77.4773216  37.4037790  57.4428988
  76.8972206  37.5651693  56.1090183  77.1142101  38.5416698  55.6760502
  75.8136940  37.4465370  56.1063576  77.4757957  36.4425111  55.1822710
  77.4872684  36.7405677  54.1338778  76.9580221  35.5082536  55.3994751
  78.8637877  36.3837695  55.7991457  79.4296408  37.2239494  55.3966427
  79.4769192  35.5741239  55.4033661  78.5522890  36.3950419  57.3167944
  78.2883024  35.3709579  57.5807333  79.7873735  36.6563320  58.1749105
  80.2182674  35.8210111  58.9358139  80.4158783  37.8677273  58.0304050
  80.0450611  38.6058593  57.4492407  81.5432835  38.2031155  58.8929653
  82.3471069  37.4725962  58.8017797  82.1430969  39.6682048  58.5607672
  81.4325619  40.4678583  58.7700462  82.9245377  39.9449492  59.2684889
  82.6112843  39.8637390  57.1581697  81.8900013  39.4552279  56.4503813
  82.7302074  40.9323311  56.9790983  84.0472317  39.3005848  56.8316889
  84.7380543  38.7470222  57.7265263  84.4065762  39.2994809  55.5650091
  85.2632523  38.8281798  55.3118658  83.9203072  39.7124338  54.7819901
  81.1364841  38.2062650  60.4220486  81.7613316  37.5602603  61.2557125
  80.1027393  38.9685583  60.8476782  79.5327616  39.3996906  60.1339912
  79.6619463  39.2189288  62.2300005  80.4439831  39.7036338  62.8144503
  78.4418631  40.1812267  62.1725416  77.7628326  39.8145270  61.4027691
  77.8594685  40.0999594  63.0903244  78.7925339  41.6162062  61.9278383
  78.9089727  42.1259165  62.8842592  79.7893333  41.6978359  61.4944410
  77.8249598  42.4168634  61.1053419  78.2811928  43.1681633  60.2316618
  76.6332293  42.5169992  61.3560104  79.1777849  37.9422545  62.9463100
  79.6026230  37.6734042  64.0811968  78.4427261  37.0968962  62.2193909
  78.1024027  37.4743271  61.3465643  78.0448818  35.7196879  62.4931669
  77.3841190  35.6559801  63.3577108  77.1412849  35.0741935  61.3805008
  77.5351381  35.2219296  60.3749371  77.1150017  33.6063910  61.6284132
  76.3245583  33.1213021  61.0557079  78.0276966  33.2338858  61.1633062
  77.0808744  33.3309484  62.6824856  75.7552528  35.7773161  61.3850737
  75.2733612  35.5720735  60.4291630  75.1255512  35.4774547  62.2227240
  75.9716606  36.8435121  61.4521170  79.2707968  34.9433541  62.8683758
  79.3634701  34.5515633  64.0363455  80.1943111  34.7537065  61.8868732
  80.0212193  35.3243947  61.0717344  81.3166809  33.8687015  62.0622301
  81.0748100  32.8694391  62.4242687  82.2352791  33.7457561  60.8180332
  82.6793957  34.6864104  60.4924059  82.9557323  32.9527044  61.0183287
  81.4486599  33.3764482  59.6847200  81.0396957  34.1885924  59.3768644
  82.3222828  34.4709563  63.0822706  82.8502941  33.6440349  63.8136005
  82.4875259  35.8114171  63.2846880  81.9835663  36.4288378  62.6642704
  83.1865883  36.4983344  64.3745565  84.2074108  36.1186647  64.4178534
  83.0519962  38.0853653  64.3179607  83.6503887  38.3711267  63.4528780
  82.0255947  38.4108663  64.1486597  83.5304737  38.8068461  65.5640793
  82.9070091  38.4845233  66.3980484  84.4995213  38.3418155  65.7451773
  83.6581898  40.6368923  65.6423426  84.5467949  40.5204582  67.1918297
  84.8094368  41.4934826  67.6069689  83.9489079  39.9599195  67.9104614
  85.4995918  40.0040531  67.0752478  82.7515888  35.8930683  65.7337141
  83.6078930  35.4022336  66.4101648  81.4887428  36.0175633  66.0933733
  80.9252167  36.5167928  65.4200935  80.9771729  35.6992483  67.3859262
  81.5707779  36.0455346  68.2319880  79.5556307  36.3143635  67.5688744
  78.9440393  36.0085082  66.7200470  78.8724136  35.7576632  68.8007259
  78.0873394  36.4334965  69.1398525  78.3818817  34.8167086  68.5515642
  79.5534515  35.6274295  69.6417618  79.7899294  37.8493834  67.7281141
  78.8328743  38.3700681  67.7601814  80.3178787  37.9674554  68.6743879
  80.4256535  38.1381273  66.8911076  80.9238625  34.2358708  67.6032782
  81.2510681  33.7905550  68.6869812  80.5925751  33.4191537  66.5676785
  80.1752853  33.7629819  65.7146025  80.6020737  31.9235015  66.5492105
  79.8219824  31.5861797  67.2316885  80.1916885  31.5548038  65.1350355
  79.3960285  32.2093701  64.7792721  81.1391735  31.5137172  64.5977402
  79.6421719  30.1261616  65.1707315  80.0863171  29.4400692  65.8919144
  78.6234760  30.2317882  65.5438280  79.8006439  29.3205333  63.8737345
  80.8093262  29.4593525  63.4846401  79.7146797  28.2792950  64.1844320
  78.7657452  29.6127629  62.8752995  77.8269482  29.6320462  63.2473040
  78.9393330  30.0818682  61.6491222  80.0634575  30.3091097  60.9794188
  81.0074615  30.1773906  61.3135004  79.9419451  30.5678988  60.0107288
  77.7919769  30.3044200  61.0469437  76.8988085  30.2011728  61.5070438
  77.8550434  30.7578087  60.1466322  81.9620800  31.3948941  66.9678402
  82.0005512  30.4139566  67.8298998  83.0656719  31.9035983  66.4113426
  82.8634644  32.5913763  65.6998825  84.3747330  31.4863372  66.8229389
  84.4236088  30.3989244  66.8798876  85.2095699  31.8039870  65.6197596
  84.7490883  31.2220907  64.8213530  85.1807499  32.8846097  65.4800272
  86.6330051  31.3875532  65.7429743  87.0419502  30.3415179  65.3199673
  87.5141144  32.2882533  66.0881567  88.3971977  32.0311785  66.5055084
  87.1899796  33.2038069  66.3652897  84.8940086  32.1636391  68.0997610
  85.6590366  31.5104246  68.8081455  84.4295502  33.3734465  68.5219526
  83.7994766  33.9026165  67.9362059  84.8585892  34.0546513  69.7590399
  85.9469032  34.0209198  69.8093462  84.3186951  35.4724741  69.6651411
  84.6585941  35.9524989  68.7474585  83.2403088  35.3149390  69.6459961
  84.6897316  36.5137720  70.7704973  84.2500591  36.1646700  71.7047977
  86.2164688  36.6587687  71.1488724  86.8042374  37.0278788  70.3084040
  86.3502979  37.3636627  71.9694281  86.6116714  35.7141089  71.5224218
  84.2066383  37.9426360  70.4140902  84.1074276  38.6033368  71.2753296
  84.8405075  38.3239865  69.6135378  83.2043934  37.8113580  70.0061989
  84.5054531  33.4211779  71.1733055  85.1501369  33.7464952  72.1768856
  83.3836746  32.6639462  71.1296892  82.9320049  32.4271941  70.2578831
  82.9211521  31.8734932  72.2939301  82.7957153  32.5365424  73.1499290
  81.5540695  31.3009167  71.8863630  81.5717411  30.8425474  70.8975792
  81.0437679  30.1808095  72.8183031  81.7367268  29.3526745  72.9670095
  80.8157730  30.6027055  73.7971449  80.0557232  29.8420739  72.5066519
  80.5535698  32.4964690  71.9096231  80.4496288  32.8003955  72.9512215
  80.9013367  33.3990455  71.4071178  79.0913820  32.4060416  71.4453650
  78.5882473  33.3618784  71.5913868  79.0522099  32.1105027  70.3969288
  78.6425114  31.6241598  72.0579624  83.9500713  30.7425404  72.6600266
  83.9569092  30.2199650  73.7673283  84.7744465  30.3804898  71.7143059
  84.8880386  30.9554315  70.8917236  85.6662369  29.3005610  71.7223263
  85.2983665  28.5575056  72.4298859  85.7396221  28.6146450  70.3565168
  86.0670280  29.3053579  69.5794535  86.4687443  27.8128958  70.4734802
  84.4824409  28.0742359  69.7076416  83.6600018  28.7768316  69.5732784
  84.7679615  27.4965310  68.8285303  83.7788582  27.0227742  70.5213451
  84.4126225  26.3919592  71.3235044  82.5232029  26.7207384  70.5023146
  82.2050858  26.0795975  71.2149429  81.9089031  27.2080898  69.8657465
  87.0572853  29.7563434  72.2258806  88.0850506  29.0286660  72.2093582
  87.1089745  31.0391259  72.5611973  86.2697601  31.5457892  72.3180866
  88.0949783  31.5793586  73.5453081  88.5291100  30.7657361  74.1263914
  89.2380428  32.2768712  72.8346348  89.6517372  31.4833164  72.2123623
  88.8545513  33.0996728  72.2312880  90.3871536  32.7049065  73.7346172
  90.7502079  32.0205331  74.6496630  91.0552502  33.8073993  73.4560394
  91.7696190  34.0961933  74.1090059  90.6907558  34.3675590  72.6987600
  87.3451042  32.5159645  74.4835854  86.6029358  32.0106649  75.2812004
  87.6791668  33.8331342  74.5176363  88.4105587  34.1995835  73.9252758
  87.3550320  34.7148800  75.6160402  87.3061180  34.1159201  76.5254116
  88.5350704  35.7053232  75.8185339  88.4888649  36.1202049  76.8254280
  89.3411541  34.9716163  75.8186579  88.7797165  36.7842960  74.7917604
  88.0400467  36.8613791  73.7617683  89.6985912  37.6020598  75.0155687
  86.0602856  35.3875780  75.6463718  85.8767128  36.1861038  76.5886831
  85.1995277  35.1233649  74.6507168  85.4938984  34.4378591  73.9698839
  83.8490105  35.6892633  74.6117973  83.3115864  35.2887535  73.7522221
  82.9722691  35.1538587  75.8111525  83.1886005  35.8263850  76.6412210
  81.9413280  35.3389478  75.5094957  82.9619884  33.7008023  76.2353992
  82.4831486  33.1336737  75.4371691  83.9688492  33.3025694  76.3609123
  82.2008419  33.2881427  77.4547386  81.1264992  33.4722447  77.4538851
  82.1074772  32.2056556  77.5419331  82.7434540  33.8857484  78.6536169
  82.2399139  34.7170091  78.9284992  83.7406254  33.5171032  79.3096399
  84.3664646  32.4346638  79.0129995  83.8666153  31.7217016  78.5012054
  85.3110027  32.2482347  79.3182802  84.2999172  34.2804193  80.2303410
  83.8744259  35.1892090  80.3450394  85.0342751  33.8944888  80.8064365
  83.8013363  37.1852994  74.4002867  82.7019215  37.7156425  74.4075298
  84.9112606  37.9036927  74.1405487  85.7380486  37.3319912  74.2389631
  85.0319099  39.3635368  74.2837381  84.1148663  39.7623634  74.7174215
  86.0396194  39.6614909  75.4436350  87.0417690  39.4499087  75.0707817
  86.1374474  41.0196733  76.0582399  86.2619400  41.7232990  75.2351236
  85.1945400  41.2997103  76.5279198  86.9801807  41.2128162  76.7220163
  85.9017086  38.8161111  76.6036654  86.0847378  37.9113150  76.3401556
  85.3390789  40.2216673  73.0659866  86.3849735  40.0049782  72.4673033
  84.4780445  41.2236977  72.7969217  83.7034130  41.3291883  73.4363794
  84.6617222  42.0983553  71.5902758  85.5991936  41.9120073  71.0663366
  83.5441113  41.8703032  70.6026649  83.6933899  42.1617317  69.5630074
  83.5660458  40.7889509  70.4674149  82.1028709  42.1709013  71.1533546
  81.3577843  41.1679173  71.7540693  81.7674160  40.1716757  71.8322182
  80.1194096  41.4081573  72.2147036  79.5318079  40.6149387  72.6527977
  79.4919682  42.6287127  71.9639730  78.5035038  42.7876139  72.3690510
  80.2082157  43.6988306  71.3938046  79.7557592  44.6785784  71.3516569
  81.5700245  43.4586191  71.0090303  82.1246910  44.2669439  70.5558729
  84.7511768  43.5528851  72.0753527  84.4202900  43.8340378  73.2193947
  85.2545357  44.5397425  71.2939405  85.6575584  44.2651844  70.4094696
  85.4846478  45.9648943  71.6897488  85.4093075  46.0519171  72.7736568
  86.9270992  46.3204622  71.2676001  87.5095558  45.6317616  71.8795872
  87.0369530  46.1127472  70.2032280  87.1902561  47.3681641  71.4131069
  84.4015884  46.8318987  71.0640907  83.9864159  46.6083050  69.9221420
  83.9000511  47.8363037  71.8551636  84.3260956  48.1059647  72.7303028
  83.0348873  48.8562822  71.2724638  82.7338409  48.6597824  70.2434540
  81.6900158  48.8548136  72.0094490  81.7690086  49.2568064  73.0195284
  80.7027721  49.7203493  71.2356472  80.6081295  49.4524622  70.1833248
  79.7662640  49.5957232  71.7792654  80.9917259  50.7713413  71.2304258
  81.0334873  47.4278784  72.0195150  81.5544128  46.8462610  72.7800798
  79.9877167  47.3380804  72.3134613  81.1203957  46.9416094  71.0478735
  83.7475967  50.2373600  71.4565802  83.9758492  50.5756187  72.6149511
  84.1005802  50.9049606  70.3592110  83.7502575  50.5512571  69.4804239
  84.4867039  52.3070145  70.3120899  85.0066566  52.5658321  71.2344646
  85.4460812  52.5094414  69.1994047  85.1025105  51.9214678  68.3483219
  85.5487061  53.5743237  68.9906216  86.8902206  52.1156073  69.5889330
  87.2046661  52.7071667  70.4487562  87.0440865  50.5673933  69.8103237
  86.5695381  50.3106928  70.7574272  86.5777969  50.0452423  68.9748383
  88.1162930  50.3772211  69.8583746  87.8953362  52.3777533  68.4567165
  87.7264118  51.6376925  67.6744938  87.7325916  53.4161711  68.1680918
  88.9089489  52.1747112  68.8023472  83.2551861  53.1581020  70.4267931
  82.2558784  52.8151989  69.8534441  83.4543324  54.3208838  71.0560846
  84.2754936  54.3652296  71.6424417  82.4239922  55.3465652  71.3010931
  81.5216160  54.9153614  71.7345715  82.9383183  56.2379360  72.4106407
  82.2898865  56.9930935  72.8549194  83.2814312  55.6384850  73.2538700
  83.7883282  56.8086863  72.0367002  81.9877243  56.1486673  69.9640512
  82.0619678  57.3749018  69.8770380  81.2680721  55.4605389  69.1061831
  81.1586952  54.4693995  69.2667389  80.8466244  56.0088015  67.7256441
  81.6295338  56.6857862  67.3838186  80.8675194  54.7757816  66.8571091
  80.2234745  54.0418911  67.3415804  80.4054737  55.0311852  65.9034967
  82.1754932  54.0381956  66.7017460  83.3581543  54.7989511  66.6279459
  83.3941460  55.8651829  66.7960548  84.5628071  54.1728830  66.2787867
  85.4631519  54.7623682  66.1877251  84.5945358  52.8011227  65.9785080
  85.8125687  52.3122454  65.5097818  85.6051636  51.7564917  64.7549820
  83.3837128  52.0622015  65.8771133  83.4012413  51.0226822  65.5847216
  82.2183895  52.6952696  66.2932777  81.3341904  52.0752382  66.3057709
  79.6132517  56.9978285  67.7088022  78.5194731  56.6459751  67.3138952
  79.8053932  58.2364798  68.1829119  80.7226086  58.4262991  68.5607672
  78.9120579  59.3344069  68.0905390  78.0624199  59.1775513  68.7550783
  79.6944427  60.6687832  68.5162497  79.9265814  60.6390905  69.5808268
  80.6370640  60.7303619  67.9723930  78.9695168  61.8540621  68.2617903
  78.2613564  61.9334030  68.9050770  78.5340834  59.5012093  66.5895271
  77.4242115  59.9279070  66.2890720  79.4429541  59.1771603  65.6806898
  80.3848839  58.9478350  65.9640551  79.2884874  59.2568588  64.2474318
  78.5131025  59.9891043  64.0222836  80.5780792  59.7155380  63.5704422
  80.2931690  59.8478842  62.5266933  80.7080173  60.7318306  63.9424276
  81.8691254  58.8639355  63.7755966  81.9212246  57.8500128  64.4761992
  82.9790211  59.3595266  63.2945251  83.8541698  58.8571405  63.2517147
  82.9556084  60.3252602  62.9997206  78.7937403  57.8990412  63.6456203
  78.7416506  57.7494287  62.4303627  78.2914305  57.0184612  64.4609499
  78.2817364  57.2098064  65.4526091  77.5714064  55.7972765  64.1279602
  77.4914169  55.2280569  65.0540733  76.1261702  56.1940908  63.6327505
  76.2597656  56.6277838  62.6417065  75.1781559  55.0654840  63.4885120
  74.2331409  55.4019547  63.0620861  75.6435347  54.3173599  62.8467703
  75.0118780  54.5860624  64.4531918  75.3952837  57.2100782  64.5640850
  76.0433626  58.0637884  64.7622919  74.5175076  57.6305294  64.0733433
  75.1508570  56.7563725  65.5245543  78.4399796  55.0166893  63.1758118
  79.5223093  54.6087170  63.5334539  77.9799604  54.8106432  61.9271088
  77.1032238  55.2786303  61.7470264  78.5890818  54.0047598  60.8016872
  78.8007879  53.0076790  61.1878300  77.5543022  53.8284779  59.6695089
  78.0337572  53.1538248  58.9602375  76.7037487  53.2330990  60.0014305
  77.0584393  54.9971199  58.7997341  77.9512310  55.5906105  58.6027527
  76.6220808  54.6602345  57.8594160  76.0326004  55.8062553  59.5113802
  75.1987982  55.3124905  60.2370882  76.0952377  57.1201086  59.3659210
  75.3104353  57.7016497  59.6228266  76.8499136  57.5475693  58.8483858
  79.8796082  54.5707035  60.2878523  80.5987835  53.8747025  59.5493221
  80.1902294  55.8692741  60.4209042  79.6506453  56.4322996  61.0627460
  81.5170765  56.3731956  60.0105333  81.7497158  56.1049604  58.9799833
  81.6095638  57.9381227  60.0305367  81.4134312  58.1530476  61.0809851
  82.6578617  58.1427002  59.8129892  80.6964302  58.7947130  59.1057062
  80.0768089  59.3956470  59.7713280  81.2326050  59.4357634  58.4059429
  79.7826862  57.9996204  58.1414747  78.5161114  58.0274296  58.3469582
  80.2081585  57.5178766  57.0334816  82.6330471  55.8573914  60.9356165
  83.7626362  55.7929850  60.5193663  82.3995876  55.4063606  62.1739388
  81.4301300  55.3904486  62.4567842  83.3141613  54.5906210  63.0365801
  82.8944111  54.5628500  64.0421343  83.3328724  53.1319809  62.5533867
  83.8206673  53.0818129  61.5799189  84.0136433  52.6569748  63.2597971
  81.9704628  52.3661280  62.4446869  81.4822102  52.4375439  63.4166002
  81.3171196  52.8493071  61.7181969  82.2632217  50.8943939  62.1402216
  82.7859592  50.9082603  61.1838436  82.9414463  50.4102707  62.8428888
  80.9945488  50.0898552  62.0106316  80.7719517  49.4716597  62.7776909
  80.0332832  50.1060295  61.0841513  80.1008415  50.7494879  59.9489975
  80.9190559  51.3273335  59.8197222  79.2322302  50.6218958  59.4496536
  78.9539433  49.4554853  61.3029194  78.7804031  49.0995932  62.2320700
  78.3120489  49.2105913  60.5625772  84.6827221  55.2158070  63.2453442
  85.7430172  54.6950579  62.8212976  84.6681118  56.4151382  63.8590050
  83.8052464  56.8336582  64.1758633  85.9320068  57.0237207  64.3253899
  86.7958832  56.3591623  64.3386269  86.2939358  58.2833481  63.4697151
  86.1684418  58.0112839  62.4217033  85.5716610  59.0703344  63.6866951
  87.7301884  58.7837124  63.6692476  87.6669216  59.7783422  63.2278776
  87.9627228  59.0507030  64.7001410  88.8251591  57.9199076  63.0616713
  88.5240555  57.1332455  62.1724272  89.9936390  58.1562471  63.3169413
  85.8300114  57.5010824  65.8378839  84.8718929  58.2272768  66.1388826
  86.8216133  57.2020292  66.7349958  87.5992393  56.6177750  66.4628792
  86.6403198  57.5217390  68.0908060  86.5253258  58.6043453  68.1440258
  85.4746914  56.7732000  68.7399101  84.4701958  57.0947170  68.4647560
  85.4649734  55.6948137  68.5815144  85.3885269  56.9708014  69.8083830
  87.8778172  57.3048830  68.9118528  88.5510349  56.3496065  68.6343431
  88.1289387  58.1294203  69.9546766  87.4338055  58.8429403  70.1213598
  89.3614674  58.0329227  70.7659578  90.0719070  57.5029898  70.1314926
  89.9437046  59.4076538  70.9828138  89.3567562  59.8673105  71.7779875
  91.0281372  59.4119120  71.0927629  89.8335743  60.3315592  69.7696829
  90.5393887  61.1528349  69.8938799  90.1152611  59.7816229  68.8717270
  88.4953213  61.2067890  69.4999790  88.3750153  61.6255951  68.3617544
  87.6569557  61.4472818  70.4180956  89.2186260  57.2346210  72.1630764
  90.1696777  56.8185043  72.8505373  87.9778576  56.7858696  72.4194050
  87.2080040  57.1105194  71.8519306  87.6159668  55.8998251  73.5843372
  88.5166073  55.4284859  73.9777756  87.1121883  56.7822933  74.7477150
  86.1743546  57.2819853  74.5050716  86.8103981  56.1243868  75.5626869
  88.0630970  57.8108358  75.2623844  88.2862568  58.9929008  74.5204020
  87.5937748  59.2873621  73.7456846  89.3019676  59.8605871  74.9391222
  89.5738411  60.7136869  74.3352079  90.1963234  59.5755672  75.9343100
  90.8949471  60.3846598  76.0882425  90.0631523  58.4225893  76.6954422
  90.8013058  58.1824207  77.4463320  89.0022278  57.5465488  76.3873768
  88.9425087  56.6090965  76.9203091  86.6140652  54.8045683  73.2926607
  86.0489750  54.7134495  72.1780968  86.4495754  53.9099932  74.2677069
  86.8624020  54.1610098  75.1546478  85.3945255  52.8440189  74.3214655
  84.4651222  53.4028292  74.2117739  85.5301476  52.2301674  73.4310198
  85.3291893  51.9673204  75.5571508  85.7819843  52.2780991  76.6623306
  84.6072292  50.8700228  75.3938866  84.2071724  50.6583786  74.4909668
  84.2632198  49.8232412  76.4237785  85.0706100  49.8665094  77.1547604
  82.9680729  50.2300596  77.1814537  82.2998333  50.4101706  76.3393593
  82.3183346  49.1339540  77.9968071  81.9123840  48.3395863  77.3704720
  82.8995895  48.5828590  78.7360907  81.5045643  49.6523094  78.5039473
  83.1405544  51.4404106  77.9018164  82.4087715  52.0367098  77.7271366
  84.2435837  48.4960747  75.7093000  83.7006855  48.3830881  74.6226692
  84.7776413  47.4068928  76.3106823  85.2688313  47.5446224  77.1823883
  84.6643353  45.9623432  75.9782505  84.8810863  45.8453989  74.9164391
  85.6702900  45.1078939  76.7110205  85.5189800  44.0585041  76.4580488
  87.1206474  45.4464006  76.2606668  87.1929264  45.4578495  75.1731253
  87.2244358  46.4509630  76.6707611  87.7134132  44.6596146  76.7272520
  85.5386257  45.1341343  78.0701113  86.1487007  44.5309639  78.5009193
  83.3216095  45.4025364  76.2779760  82.6392651  45.9201288  77.1613598
  82.9252243  44.3079853  75.6491470  83.5041237  43.9430046  74.9063396
  81.6446209  43.6528015  75.9196281  81.3195515  43.8717127  76.9367409
  80.6027603  44.1346264  74.9725914  80.8776379  43.8029766  73.9713144
  79.6778059  43.6944437  75.3451538  80.6556702  45.2231503  74.9931622
  81.8758106  42.1222162  75.7824230  82.6984119  41.7047453  74.9546480
  81.1913395  41.3319159  76.6143656  80.6081486  41.7614269  77.3182869
  81.2975025  39.9221659  76.6424131  82.0597839  39.5170665  75.9768915
  81.7651749  39.5782948  78.0314350  82.6204967  40.2265358  78.2219601
  80.9498787  39.7826886  78.7254238  82.2975731  38.1125045  78.0792379
  81.5266418  37.4596381  77.6699448  83.2641697  38.1048489  77.5755215
  82.5409698  37.7146745  79.5252419  82.6176357  38.5851836  80.4721260
  82.6490593  36.5160656  79.8312807  79.8588705  39.2731833  76.5211630
  78.8951254  39.6899986  77.1845007  79.7998381  38.1553125  75.7197285
  80.6154060  37.9754734  75.1517391  78.5466385  37.4043822  75.5162525
  77.7370691  38.0594492  75.1944065  78.8697958  36.6325521  74.1862583
  79.7232914  35.9674859  74.3179560  77.6070213  35.8397746  73.8901949
  77.4324846  35.0938916  74.6656275  76.7177963  36.4699101  73.9077616
  77.6730680  35.3857827  72.9014444  79.1796923  37.5734639  73.0355263
  78.2842493  37.9642820  72.5522614  79.7037458  38.4448147  73.4282303
  79.9414730  36.8858862  71.9373894  79.7549438  37.3939848  70.9912682
  80.9793949  37.1542120  72.1344185  79.7157049  35.8319950  71.7747736
  78.2284594  36.5464902  76.7706633  79.0961504  35.7973170  77.1689701
  76.9900227  36.6262650  77.2306538  76.3132811  37.2266412  76.7815828
  76.4922523  35.8019471  78.3297873  77.2430611  35.2253699  78.8701200
  76.0919809  36.7748046  79.4303083  75.9081173  36.1709976  80.3189659
  76.9643259  37.3249054  79.7831583  74.8765993  37.5207782  79.1448116
  73.6061954  36.9972563  79.3900061  73.5456419  35.9489441  79.6425343
  72.4552059  37.7316093  79.3752480  71.5074635  37.3494577  79.7247458
  72.5704098  39.1048956  79.0905046  71.4013195  39.8228359  79.1120577
  71.3311148  40.5724049  79.7077274  73.8303709  39.7268486  78.8852978
  73.9615154  40.7937050  78.7802410  74.9774170  38.9263248  78.9528275
  75.9949827  39.2751408  78.8564396  75.3083563  34.9014997  77.8876400
  74.9556065  34.0505028  78.7235165  74.8654032  35.0647354  76.6378593
  75.1585102  35.8320737  76.0501671  73.7763262  34.2228794  76.1606073
  73.8545036  33.1871223  76.4910555  72.4419785  34.8358536  76.7611122
  72.4091864  35.8761024  76.4372158  71.5564871  34.3620849  76.3373756
  72.4458694  34.8191547  77.8509760  73.7466145  34.2026377  74.6504831
  73.8366985  35.2953124  73.9995623  73.3411789  33.1223464  74.0541029
  73.0211544  32.3304796  74.5932055  73.6080837  33.0012918  72.6399374
  73.5071707  33.9467478  72.1069908  75.0232649  32.3347664  72.5123453
  75.7669878  33.0167794  72.9244566  74.9645138  31.5150928  73.2284403
  75.5175734  31.9553423  71.1628675  75.6160736  32.8697395  70.1329708
  75.3270006  33.9081216  70.2008009  76.1791182  32.5131583  68.8848639
  76.2599468  33.2764244  68.1250668  76.5964603  31.1953115  68.7396479
  76.9323874  30.9219670  67.4545956  76.5435791  30.0753140  67.2230673
  76.5120935  30.2480459  69.7544622  76.8046904  29.2202711  69.5980501
  75.9914017  30.7024145  71.0128403  75.8422804  30.0005054  71.8199825
  72.4998426  32.0847368  72.0784092  71.8903065  31.2852955  72.7354097
  72.2947025  32.2467375  70.7086372  72.8760195  32.9927063  70.3540945
  71.4889479  31.4355183  69.7380257  71.7087507  30.4142499  70.0491571
  69.9771166  31.7120767  69.8895121  69.7402811  31.4438725  70.9191084
  69.8258352  32.7889848  69.9635363  69.0097618  31.1627054  68.8846254
  69.1639996  31.6456628  67.9197073  69.2132187  30.1042485  68.7222290
  67.6051378  31.3232613  69.3172741  67.6038885  31.0575986  70.3744030
  67.4683619  32.4043322  69.3433523  66.5760756  30.6507969  68.4378767
  66.8300009  30.4599261  67.4791336  65.3554916  30.2319431  68.8560867
  64.5882988  29.6468925  68.0355883  64.8540735  29.7777200  67.0700026
  63.7187862  29.2851734  68.4005594  64.9419308  30.2751160  70.1069641
  65.6607962  30.4977894  70.7805729  64.1124964  29.8514938  70.4977226
  72.0139885  31.7370176  68.3556700  72.5301695  32.8616071  68.1599712
  71.8348646  30.7589030  67.5077200  71.5306377  29.9571490  68.0413246
  72.1685648  30.7518435  66.0470009  72.1893024  31.8059349  65.7703066
  73.4822750  30.1368594  65.6364965  74.2092276  30.7093406  66.2126064
  73.5448360  29.0885448  65.9284258  73.7367916  30.0124884  64.0577459
  73.2070255  29.1034675  63.7729073  73.2673502  30.8507609  63.5429478
  75.2209282  30.0341129  63.5196114  76.1861849  29.6962738  64.1833973
  75.3663445  30.3267980  62.3311090  70.9933567  30.0999308  65.2806997
  70.8260489  28.8701367  65.3886271  70.3041267  30.8757663  64.3909168
  70.7049322  31.7938876  64.2624331  68.9804602  30.6088233  63.8007832
  68.6714840  29.6352148  64.1811991  68.0177641  31.7308831  64.2371178
  68.1466198  31.9687319  65.2930212  68.2403660  32.6253486  63.6553288
  66.5291643  31.3926744  63.9131069  65.8640623  32.1073055  64.3979168
  66.3884211  31.6140103  62.8551340  66.1085224  29.9333024  64.3768549
  65.7544899  29.1852975  63.4445572  66.0402441  29.6036696  65.5935144
  69.0882969  30.4886556  62.2877884  69.8855972  31.2473702  61.7567730
  68.6882257  29.3734121  61.6637087  68.0303812  28.7639713  62.1283865
  69.1388559  28.9850879  60.3233528  69.4383526  29.8881340  59.7914457
  70.3397083  28.0260229  60.3045893  70.0822258  27.0738363  60.7684278
  70.5464458  27.8718805  59.2455339  71.6070127  28.5011578  60.9734488
  71.8408298  29.5262384  60.6859827  71.3473225  28.4554720  62.0310736
  72.7777243  27.6170230  60.6494331  72.6291656  26.4877129  60.1466227
  73.9750290  28.0853367  60.8965397  74.6878767  27.7092743  60.2878380
  74.0957451  28.9881659  61.3329124  68.0366802  28.2931948  59.5134306
  67.0956993  27.6127505  60.0451088  68.1248713  28.4568691  58.2175684
  68.9764166  28.9297318  57.9504156  67.1103001  28.0749750  57.2575760
  66.8068886  27.0519066  57.4797726  65.8820200  29.0101957  57.3907471
  65.5736160  29.0028000  58.4361792  66.2331629  29.9943686  57.0805788
  64.7123146  28.7173438  56.4677572  64.5531988  27.6244330  55.9130192
  63.8029051  29.5564699  56.4347887  67.7552366  28.1550717  55.8356333
  68.9552641  28.4045720  55.7746840  67.1369600  27.6652813  54.6828508
  66.1298513  27.6068592  54.7320843  67.7964211  27.6320219  53.3849382
  68.7446642  27.0964861  53.3387184  66.8618488  26.9661641  52.3440552
  66.0502338  27.6652503  52.1424198  67.4859142  26.8903780  51.4536047
  66.3095284  25.6522489  52.6188374  64.8749876  25.4845119  52.7725458
  64.1339874  26.2591219  52.6410437  64.4370127  24.2110562  53.0224085
  63.3802938  23.9903355  53.0545521  65.3234386  23.0952120  53.1268597
  64.8637915  22.1229243  53.2257557  66.6892195  23.3253455  53.0942917
  67.3444748  22.4983025  53.3245897  67.2110319  24.6094275  52.7616692
  68.2617712  24.8404527  52.8564310  68.1656694  29.0933037  52.9501724
  67.4223423  30.0378370  52.8601122  69.5397806  29.3198252  52.8207541
  70.0394154  28.4477139  52.7213097  70.3268385  30.5464244  52.5703430
  71.3719273  30.2411222  52.5185823  70.0184631  31.0220265  51.6393137
  70.3442526  31.7026901  53.6357450  70.7992315  32.8492236  53.3712149
  70.1472807  31.2165093  54.9091148  69.9967194  30.2179956  54.9291611
  69.9869919  32.0353317  56.0940266  70.4623985  32.9943061  55.8879805
  68.5260010  32.1564627  56.4286566  68.2764864  31.1182594  56.6477108
  68.4098911  32.7922845  57.7974463  67.3746920  32.8207898  58.1375170
  68.9162970  32.2114420  58.5683346  68.7029982  33.8346171  57.6720142
  67.6547766  32.7702856  55.3401566  67.6483536  33.8586926  55.3987312
  67.9577637  32.6965809  54.2957115  66.1561728  32.3221660  55.2913094
  65.5176020  32.7985144  54.5473862  66.2615824  31.2579703  55.0804138
  65.7613802  32.3897195  56.3050556  70.7958746  31.4120626  57.2168207
  70.5839968  30.2563834  57.5669861  71.6108322  32.1823931  57.9572010
  71.7460394  33.1341243  57.6473141  72.1365356  31.9594431  59.2746830
  71.5000010  31.2621236  59.8193550  73.5887718  31.4014602  59.2532539
  74.2130804  32.2098851  58.8727427  73.8678217  31.0417938  60.2436447
  73.9147902  30.1706123  58.3558130  74.8375225  29.8123884  58.8122559
  72.9943180  29.5917892  58.4319305  74.0921354  30.3041220  56.8674755
  74.5196629  31.3027382  56.3018084  73.9636564  29.2397094  56.2495899
  72.0428848  33.2768679  60.0436020  72.4048042  34.3146920  59.5239496
  71.5849924  33.2617164  61.3142967  71.1188078  32.4583673  61.7110395
  71.3078213  34.4752455  62.0652246  71.9597912  35.2754402  61.7149067
  69.8274136  34.9114561  62.0092583  69.3151808  34.2077422  62.6653862
  69.6945477  36.2816882  62.7184820  70.1209545  36.2567401  63.7213039
  70.2769279  36.9931221  62.1329927  68.6668968  36.5642238  62.9469538
  69.0416908  34.7842073  60.6759739  69.5384264  35.3528523  59.8898458
  69.0916109  33.7247014  60.4248619  67.5683117  34.9937367  60.7616806
  67.1689320  35.0852823  59.7516203  67.0963621  34.1061091  61.1829662
  67.2177362  35.8976221  61.2598658  71.6829634  34.3304920  63.5137844
  71.1246872  33.5341215  64.2470837  72.7441216  34.9633169  63.9480591
  73.0159950  35.6871128  63.2982111  73.2206821  34.9531674  65.3642845
  73.0751133  33.9775825  65.8281183  74.8027706  35.1680040  65.2977943
  75.0430012  35.9024930  64.5290852  75.3608608  35.8105850  66.5515947
  74.9513197  36.8031406  66.7392445  75.0399923  35.2529454  67.4314737
  76.4448595  35.8381248  66.4407492  75.5250978  33.8433766  65.0175619
  75.2132511  33.1401229  65.7897520  75.1434422  33.4950852  64.0578032
  76.6075420  33.9469647  64.9421597  72.4100447  35.9906960  66.1815214
  72.2150421  37.0672965  65.6956387  71.8969250  35.6088090  67.3616648
  72.1468353  34.6581912  67.5939798  71.0974741  36.3130331  68.3288145
  71.1026573  37.3793316  68.1027937  69.5738220  36.0128570  68.3191919
  69.3815947  35.1375318  68.9396381  68.9996767  36.7699289  68.8533258
  68.9990234  35.8294964  66.8674898  69.2558479  36.7160273  66.2876558
  69.5359516  35.0151634  66.3810015  67.4761820  35.4620099  66.8617058
  67.3170280  34.4745231  67.2948790  66.9252586  36.1522746  67.5005436
  67.0262766  35.6515193  65.3696394  67.4349403  36.5316248  64.8731422
  67.4949837  34.7824049  64.9080563  65.5567551  35.7735419  65.3186464
  65.1146936  34.8950791  65.5488348  65.3807735  36.3340282  66.1402225
  65.2435589  36.1891484  64.4530392  71.6479826  36.0919738  69.7161245
  71.7763662  34.9520016  70.1904297  72.0584106  37.2020316  70.2571154
  71.8350458  38.0461907  69.7495604  73.2521534  37.1943164  71.2205267
  73.0753756  36.3153529  71.8404341  74.5608377  37.0949864  70.3235912
  74.5383930  36.2322783  69.6577597  74.8330402  38.3169293  69.3771839
  75.6825495  38.1163454  68.7243462  73.9347649  38.3712435  68.7621593
  74.9258852  39.1354871  70.0909376  75.8449888  36.9906569  71.2609863
  76.7429256  36.8068767  70.6710386  75.9627676  37.8106213  71.9694281
  75.8408308  36.1166000  71.9122219  73.0641747  38.3188605  72.1649361
  72.7434111  39.4376588  71.7734814  73.2872200  38.1240606  73.4770870
  73.6400080  37.2668839  73.8781929  73.2240009  39.0540171  74.5827961
  72.8720617  40.0546455  74.3318081  72.3437023  38.6087990  75.7560730
  72.8883696  37.7799201  76.2081766  72.3253059  39.4235396  76.4799213
  70.8935261  38.1846309  75.5152225  70.4293680  39.0718699  75.0845671
  70.8306217  37.3862052  74.7758579  70.1395845  37.7330565  76.8097544
  70.5902719  36.8878365  77.3299313  70.0601912  38.5813451  77.4896097
  68.7404108  37.2370148  76.4567947  68.2919884  38.0741167  75.9217310
  68.7781811  36.4002752  75.7592726  67.9126978  36.9227958  77.6231575
  67.0077753  36.6388083  77.2759247  68.3403254  36.2059259  78.1917810
  67.8301191  37.7386570  78.2127762  74.6377420  39.1398430  75.1334143
  75.2353621  38.2071257  75.6975746  75.1428890  40.3635550  75.0369787
  74.6452570  41.1456394  74.6359730  76.3973475  40.7435846  75.7167912
  76.8450546  39.8906517  76.2268591  77.3048878  41.2620020  74.5690680
  78.3507538  41.2330675  74.8747206  77.2060490  40.7559013  73.6087561
  77.0271254  42.2981501  74.3758297  76.2380743  41.7088366  76.8948317
  75.1268530  42.2018862  77.0798874  77.2890043  41.9525146  77.6300430
  78.1462526  41.4511490  77.4459982  77.3767853  42.8950357  78.6877823
  76.6301394  43.6784887  78.5580921  77.0218325  42.2635174  80.0404263
  76.0371637  41.7980242  79.9974108  78.0523729  41.2064266  80.3627586
  79.0661812  41.5970087  80.4507065  77.8516960  40.6940508  81.3036633
  78.0281639  40.4784107  79.5518923  77.0720005  43.2901859  81.1394310
  78.0821180  43.5408354  81.4633656  76.6465902  44.2339373  80.7981777
  76.2385702  42.9067278  82.3707771  76.6122389  43.4592581  83.2328606
  75.1607227  42.9993677  82.2374821  76.4038944  41.8630743  82.6383018
  78.7128305  43.5801840  78.6315489  79.7480917  42.9788065  78.3217669
  78.6935091  44.9112511  78.8269281  77.8709126  45.3911591  79.1632652
  79.8618555  45.7698917  78.8847446  80.4111195  45.7203722  77.9445505
  79.5263720  46.8010092  78.9958191  80.7532597  45.3010178  80.0480080
  80.2525139  45.1747656  81.1713791  82.0741367  45.2412462  79.8949146
  82.4592304  45.4205751  78.9785957  83.0484676  44.7915268  80.8993149
  82.4974060  44.4647980  81.7811775  83.6818504  43.4879780  80.5487347
  84.2204762  43.5831213  79.6058989  84.4445038  43.2799864  81.2992001
  82.6656628  42.3413944  80.3838730  81.9687939  42.5005245  79.5609760
  83.2666016  41.4471722  80.2185154  81.8082714  42.0866442  81.6282368
  82.1869087  42.4427509  82.5863171  80.8469868  42.5709867  81.4566326
  81.5091991  40.6776381  81.7734432  82.0712948  40.0382853  81.2299633
  80.6186008  40.0896835  82.5289631  79.8455191  40.7471037  83.2148647
  79.9367905  41.7523479  83.1794834  79.0972996  40.3362226  83.7547207
  80.4825020  38.8015962  82.5398254  81.0710430  38.2491827  81.9327259
  79.6363974  38.4616160  82.9741383  84.0196991  45.8178663  81.4614487
  84.0903378  46.0301352  82.6850224  84.8089886  46.4394665  80.6192780
  84.5882797  46.2906837  79.6449852  85.8881378  47.4454737  80.9475613
  85.7702827  47.8297234  81.9607544  87.2351074  46.7420483  80.8232403
  87.3544312  46.2578249  79.8540163  88.0682755  47.4411583  80.8952141
  87.4670982  45.7597923  81.9681358  88.5092545  45.8396816  82.2773552
  86.8844509  46.1751938  82.7903748  87.1837807  44.2564917  81.7111969
  87.0352554  43.8101959  80.5928612  87.1343327  43.4689999  82.7823925
  86.7692757  42.5276661  82.7556038  87.3872948  43.8191319  83.6953640
  85.9666634  48.6199999  79.9695492  85.9662247  48.3493042  78.7890434
  86.1480045  49.8586321  80.4138756  86.3949203  49.9266863  81.3908672
  86.4173508  51.0433197  79.5271873  85.9424591  50.8815718  78.5594988
  85.7132053  52.3662806  80.0775528  85.4367542  52.9093218  79.1737938
  84.7217083  52.0444918  80.3961086  86.4674282  53.1097031  81.1310482
  87.1015167  52.4245214  81.6936874  87.1709824  53.8412333  80.7335854
  85.5034447  53.9737368  82.0269871  84.8785305  54.6384335  81.4305210
  84.8343372  53.2629442  82.5119209  86.3113403  54.8104143  82.9635525
  86.2524509  55.8164454  82.8962040  87.2815228  54.3670750  83.8227463
  87.5103569  53.1476879  84.1007233  86.9123745  52.4077177  83.7616730
  88.2168007  52.9290295  84.7886467  87.9205894  55.3269196  84.5124626
  87.6356697  56.2910175  84.4153118  88.6777687  55.0410986  85.1166916
  87.9313183  51.3266802  79.2215014  88.7849331  50.9384680  80.0019169
  88.1919289  51.9637060  78.0795240  87.4236298  52.4048185  77.5945139
  89.4701004  52.2161198  77.5155830  90.1058960  52.2617054  78.3997726
  89.8028660  50.9824419  76.6038704  90.7998466  51.1475515  76.1953783
  89.9170303  50.1608276  77.3109961  88.8364029  50.5723619  75.5557632
  88.6791801  51.3014078  74.3599415  89.0970898  52.2925711  74.2632484
  87.8298378  50.8546352  73.3454180  87.5174618  51.4525652  72.5020266
  87.1578407  49.5869970  73.5367489  86.5404797  49.1232300  72.7816486
  87.4027157  48.8350534  74.6655369  86.8260765  47.9300928  74.7877407
  88.1907845  49.4010210  75.7091999  88.3752632  48.8890982  76.6421032
  89.6765804  53.5291386  76.7020702  88.7564754  54.1823530  76.2165117
  90.9373665  53.8557959  76.3858032  91.6562939  53.2053947  76.6690397
  91.4114952  54.8202944  75.4205465  90.5305862  55.3431034  75.0480413
  92.3076153  55.8311272  76.0918188  92.6665688  56.5498781  75.3551722
  91.7194176  56.3955021  76.8154287  93.5942650  55.2104044  76.7265511
  93.2533646  54.6146822  77.5733137  94.1671371  54.5704603  76.0554409
  94.5282745  56.2153482  77.3738289  94.8766613  56.8657207  76.5714979
  94.0028095  56.8491030  78.0882072  95.7530499  55.4319143  77.8302002
  95.5534267  54.6947336  78.6079025  96.0300064  54.9810219  76.8772650
  96.9068623  56.2196493  78.1971598  97.7565384  55.6737995  78.2112455
  97.0815277  56.8920183  77.4640083  96.8175220  56.8267393  78.9993811
  92.0942688  54.1020632  74.2212486  92.5495434  52.9612207  74.3210316
  92.1058273  54.7263002  73.0724382  91.5234852  55.5504751  73.1139040
  92.3927498  54.2202711  71.7196035  92.3329163  53.1349802  71.8012667
  91.1726570  54.5072651  70.7600117  91.0315514  55.5695248  70.5605173
  91.3744450  53.7669182  69.4226599  91.6117382  52.7343845  69.6788931
  90.4384327  53.9098167  68.8826895  92.0757294  54.4090652  68.8897800
  89.8413467  54.0017843  71.2681627  89.7508812  52.9216146  71.3828230
  89.7178841  54.3885040  72.2797489  89.0682793  54.2170668  70.5305147
  93.6802292  54.6682215  71.0597658  93.9567375  55.8317757  70.8387280
  94.5812798  53.7738848  70.5664635  94.3741035  52.7907896  70.6699228
  95.9968472  53.9512491  70.1986980  96.2936687  54.9741602  70.4303360
  96.8317318  53.0565166  71.1251593  96.9500351  52.0579147  70.7045698
  97.8770161  53.3651018  71.1094666  96.4759159  53.0431843  72.6114798
  95.4356575  52.7717304  72.7911663  97.4188900  52.0929289  73.3699131
  97.1408558  51.9663858  74.4162369  97.3613548  51.1021709  72.9191542
  98.3990765  52.5549841  73.2522297  96.7495155  54.4080353  73.2441950
  95.9935474  55.1632404  73.0290747  96.7615032  54.2502928  74.3226528
  97.7293110  54.7383928  72.8992891  96.2944603  53.6897326  68.7239408
  97.3426437  54.1047573  68.2236385  95.3100967  52.9751062  68.1233501
  94.5031166  52.7812624  68.6989450  95.3653812  52.5069857  66.7152548
  95.4511833  53.3528614  66.0331774  96.5276909  51.5455532  66.3452959
  97.4721622  52.0859098  66.4093637  96.6756535  50.7146502  67.0350790
  96.4824486  50.9641218  64.9660921  97.1616459  50.1211739  64.8386478
  95.4912758  50.6049395  64.6892118  96.9936562  52.0676661  63.9721251
  96.1396790  52.9607248  63.6700058  98.1648636  52.0801020  63.5875416
  93.9843082  51.9348717  66.3589907  93.3112335  51.3513851  67.1718597
  93.5517216  52.2113466  65.1147604  94.2608929  52.5338554  64.4719744
  92.2969913  51.8290758  64.5834398  92.0904255  50.8568811  65.0309467
  91.1843586  52.8708744  64.8733997  91.0870457  52.9763651  65.9539080
  91.4523888  53.7818193  64.3381977  89.7708988  52.6328421  64.4512749
  89.8580742  52.5390148  63.3688259  89.2428303  51.3290691  65.0266314
  90.0273800  50.5735588  64.9843121  89.0374374  51.4415884  66.0911751
  88.3498669  50.9906816  64.5010710  88.8797951  53.8240576  64.7593260
  88.9354515  54.0486670  65.8244801  89.2185402  54.7291279  64.2551327
  87.8612900  53.5087919  64.5326853  92.3811150  51.4677715  63.0177975
  92.7580833  52.2568893  62.1356630  92.0888233  50.2180576  62.7217007
  91.8903446  49.5730639  63.4731579  92.2759914  49.6599960  61.3881063
  92.4977493  50.3760719  60.5968046  93.5619736  48.7948895  61.4396477
  93.3423901  48.0054855  62.1584797  93.7924671  48.3659458  60.4644680
  94.8752689  49.4207811  61.9276762  94.8872948  50.3890800  61.4273262
  94.8127365  49.5811415  63.0040026  96.1935329  48.6876345  61.5921021
  96.1980438  47.8701878  62.3131180  96.0651016  48.3024549  60.5805492
  97.3537922  49.6181536  61.7345190  97.5870609  49.8896122  62.6789761
  98.1547070  50.1634169  60.8538437  98.9537334  51.1955833  61.1302567
  98.9482498  51.5917778  62.0592880  99.4280529  51.6313410  60.3522921
  98.2560539  49.6616173  59.6504831  97.7441883  48.8439417  59.3513250
  98.7631416  50.1846886  58.9509392  91.1194038  48.8837814  60.7858753
  90.8525658  47.7240229  61.1362648  90.4824352  49.3363476  59.7302246
  90.8284950  50.1912022  59.3184328  89.7570515  48.4858036  58.6999464
  89.0546131  47.8451967  59.2331505  89.0591145  49.3779993  57.6463795
  88.6155891  48.6622190  56.9542551  87.9637814  50.3554487  58.1159735
  87.0958138  49.8598766  58.5508728  88.3374596  51.0900259  58.8293266
  87.5293732  50.8109331  57.2260714  90.0286102  50.1530361  56.9364977
  90.4803848  49.5001936  56.3967752  90.6828499  47.3999739  58.0798388
  91.8891144  47.5260353  58.0735064  90.0507259  46.3185406  57.5578260
  89.0423965  46.3761473  57.5500298  90.6405067  45.0351667  57.2151041
  91.6650200  45.2639723  56.9216251  90.5420685  44.0868664  58.4246969
  89.4964218  43.7950706  58.5225201  91.1373711  43.2154560  58.1519985
  90.9554958  44.6436214  59.8328018  90.4801464  45.5988789  60.0555706
  90.5207920  43.9334106  60.5361795  92.4203777  44.7438383  60.0724840
  93.3030796  44.0793753  59.5244455  92.8998470  45.6151581  60.9548283
  93.8812733  45.5361891  61.1799192  92.2768307  46.2002707  61.4929724
  89.8957443  44.4482565  55.9877157  88.6575222  44.6323395  55.8810759
  90.6068993  43.6510801  55.1701975  91.6093636  43.6065054  55.2850008
  90.0262070  42.6754284  54.1916323  89.1231441  43.1097603  53.7627697
  91.0863686  42.3257542  53.0991554  91.3773346  43.2434082  52.5879288
  91.9273472  41.8215895  53.5752535  90.5199528  41.4169598  52.1601772
  90.5418301  41.8429661  51.3001537  89.6965694  41.3963747  54.9858332
  90.5384827  41.0408640  55.8120298  88.6612511  40.6363344  54.6686459
  88.7349701  39.6419001  54.8291588  87.4502945  41.0486794  53.9659405
  87.8209782  41.6276360  53.1200647  86.7452621  39.9004555  53.3689165
  86.4744473  39.1310930  54.0919971  85.7901478  40.1935911  52.9331112
  87.5449276  39.2259717  52.2428703  88.1179333  38.1255794  52.5213099
  87.6515102  39.7681212  51.1124420  86.4248657  41.8360662  54.8969412
  85.6639862  42.6702547  54.4039774  86.5031719  41.6701555  56.2110281
  87.2761917  41.1169529  56.5523481  85.7196140  42.4726677  57.2486067
  85.7012749  43.5019350  56.8903255  84.6807384  42.1504879  57.1776295
  86.3912296  42.3604536  58.6309004  87.4240398  41.7701530  58.8303471
  85.6393433  42.9949284  59.5640993  84.7949791  43.4273100  59.2174101
  86.0131168  43.1559563  60.9953213  85.1412582  43.7305927  61.3079929
  86.0638332  41.8132114  61.8391228  86.9302082  41.1938095  61.6070747
  86.1653137  41.9305706  63.3196068  86.1115456  40.8950329  63.6555719
  87.1104813  42.3557520  63.6572123  85.3724957  42.5696325  63.7083864
  84.8473930  40.9465218  61.5624857  84.8693562  40.6753635  60.5069780
  84.9759960  39.9855924  62.0606613  83.4068394  41.4207172  61.8282986
  82.6334763  40.8320522  61.3348484  83.2249165  41.2291670  62.8858042
  83.2009220  42.4756432  61.6471100  87.1649075  44.1096544  61.2949133
  88.2856846  43.7340498  61.2356043  86.8826485  45.4246330  61.5709448
  85.8810043  45.5525303  61.5923595  87.8409481  46.4355183  62.0333958
  88.7052631  46.3626575  61.3732767  87.0663548  47.7522707  62.0118999
  86.7115688  48.0096054  61.0138941  86.2118626  47.6088572  62.6732492
  87.7673435  49.0524912  62.4991751  88.2019615  48.9033937  63.4875965
  88.5551548  49.2872047  61.7833805  86.7613411  50.2250957  62.5044966
  85.6335258  50.1577282  63.0150890  86.9740105  51.2601614  61.8015051
  86.3022995  52.0143938  61.7962742  87.8384209  51.3812017  61.2933207
  88.5451603  46.0269165  63.3494759  88.0270767  45.2467680  64.1969395
  89.8181725  46.4656305  63.4979916  90.2617836  47.0543957  62.8075790
  90.6177521  46.1563301  64.6907902  89.9740791  45.6682348  65.4226065
  91.7580509  45.3218222  64.2138243  91.4801598  44.5095062  63.5422421
  92.3924828  45.8770275  63.5229206  92.6833630  44.7277403  65.2951670
  93.5774708  44.3172884  64.8259211  92.7470207  45.5070305  66.0546112
  92.1497822  43.5020781  66.0323906  92.4425125  43.3239460  67.1888733
  91.3306332  42.6196194  65.4855824  91.0479164  41.8660021  66.0956860
  91.0539150  42.5868750  64.5147753  91.2330341  47.4041224  65.3818750
  91.8842316  48.2946682  64.7438240  91.0609818  47.4844027  66.7480326
  90.5519581  46.6968775  67.1232748  91.4799309  48.6066008  67.6283932
  91.8719673  49.4716692  67.0935392  90.1462078  49.0750790  68.3051825
  89.6991825  48.3650112  69.0009403  90.2884197  49.9888897  68.8820839
  89.3731117  49.4202328  67.6186705  92.4572372  48.0755472  68.6466742
  92.4599838  46.8971539  69.0046167  93.3627987  48.9179897  69.0989208
  93.3668423  49.8475361  68.7039137  94.4098091  48.6073017  70.1337576
  94.1625309  47.6889467  70.6662750  95.7910442  48.5075045  69.4171286
  95.7762051  47.6245403  68.7781811  95.8209801  49.4625998  68.8927317
  97.0164871  48.3800459  70.3754139  96.8481731  49.1319227  71.1464214
  97.1759510  47.4063587  70.8386660  98.1836319  48.8689375  69.5154715
  98.3057785  48.1998444  68.6637115  98.0140781  49.8867226  69.1640854
  99.4618797  48.9195204  70.3295660  99.2316628  49.0204239  71.3901854
  99.8265839  47.8923941  70.3192377 100.3845215  49.9635410  69.8137093
 100.7131481  49.7545624  68.8818073  99.8789406  50.8294773  69.6926928
 101.1426926  50.1538897  70.4532719  94.3861389  49.7425747  71.1970377
  94.2888355  50.9579754  70.9491396  94.1220665  49.2991447  72.4112511
  94.2020607  48.3120632  72.6096821  93.4727669  50.0964403  73.4726238
  93.7150478  51.1389351  73.2661915  91.9285870  49.9239445  73.5184002
  91.4735222  50.5714083  74.2679358  91.3331318  50.2328539  72.1753311
  91.5287399  49.3806839  71.5244579  90.2577591  50.4099321  72.1574783
  91.8763828  51.1022806  71.8051147  91.5796661  48.4929276  73.9257050
  90.5195999  48.2392788  73.9293766  92.1399403  47.7169847  73.4040642
  91.8970203  48.3328676  74.9561262  94.1001129  49.9198294  74.8486090
  94.8764229  48.9935446  75.0536203  93.8087559  50.8424282  75.7549858
  93.2671261  51.6666842  75.5373812  94.3219757  50.8684826  77.1603966
  94.6578789  49.8607016  77.4046230  95.5451679  51.7723560  77.3660898
  96.2538910  51.5514612  76.5679550  95.1606560  52.7922535  77.3738098
  96.3763714  51.6910744  78.6793423  95.8259964  52.1171999  79.5181561
  96.5659046  50.6364965  78.8794422  97.6848316  52.4764252  78.5685349
  97.8757763  53.3714342  77.7942419  98.7527466  52.1147442  79.3101120
  99.6221256  52.6138878  79.1870356  98.7187481  51.3224649  79.9356031
  93.1589985  51.0735607  78.1469631  92.4222946  52.0920658  78.0910254
  92.8875637  50.0465202  78.9834213  93.6556816  49.3992949  79.0892696
  91.8489742  49.9929523  79.9884653  90.9129620  50.2689171  79.5028448
  91.7479420  48.5984850  80.4769135  92.6908684  48.0613804  80.5794239
  91.0007668  48.4424782  81.8888950  89.9479389  48.7163639  81.8207836
  91.1199188  47.4512815  82.3264313  91.5199947  49.0354586  82.6418114
  90.9803581  47.6604795  79.4996548  90.5311203  46.8346024  80.0512123
  90.1289463  48.1614971  79.0390253  91.8147755  47.1297884  78.2992887
  92.0820427  47.9503155  77.6334000  92.7191830  46.7429399  78.7688589
  91.3820362  46.2684250  77.7904844  92.1804142  51.0086727  81.1473179
  93.3233261  51.0444927  81.6625690  91.1340046  51.7971087  81.4951324
  90.2494144  51.7136478  81.0148811  91.1221218  52.8605509  82.5580883
  92.1688652  53.1630898  82.5880051  90.4145622  54.0927744  82.0399666
  89.3583488  53.8954163  81.8567276  90.4652786  54.7149467  82.9335117
  91.0459137  54.6983767  80.7529163  90.9792423  53.9974689  79.9208164
  90.1597595  55.9286213  80.4397297  90.5883598  56.3616037  79.5358944
  89.1255569  55.6326866  80.2637672  90.3313351  56.6932344  81.1973763
  92.5361633  55.1529169  80.8338547  93.1986523  54.3137836  80.6215763
  92.7384281  55.8645582  80.0333691  92.7100468  55.5931473  81.8157196
  90.6888485  52.3268986  83.9498234  89.6739769  51.5557861  84.0420723
  91.3093472  52.7444315  85.0801563  92.5707722  53.5142756  85.1221085
  92.6589394  54.3454838  84.4225216  93.4591484  52.9018450  84.9677753
  92.6249886  54.0966702  86.5241051  91.8701744  54.8818636  86.4811802
  93.6682415  54.3753624  86.6725922  92.1985435  52.8585339  87.3520184
  91.8386745  53.2030344  88.3215141  93.0294895  52.1564817  87.4209213
  91.0513401  52.3330736  86.4947796  91.0907078  51.2441683  86.5237427
  89.6258640  52.6728773  87.0858383  89.1816998  52.0712996  88.0755615
  89.0270710  53.6379385  86.5258503  79.6521902  57.8160143 101.9132996
  80.5676365  57.6373863 102.3007774  79.3445206  56.9279718 101.5434074
  79.0442657  58.0825996 102.6745224  79.6094322  58.7445116 100.7427979
  80.3327465  59.5317125 100.9554672  80.0980854  58.0744791  99.4625759
  81.0029984  57.5114393  99.6911049  79.4226360  57.2639608  99.1888428
  80.2615166  59.0059090  98.2714844  80.8680439  58.4866905  97.5294304
  79.2532158  59.2332745  97.9254436  80.9199810  60.3491020  98.7963295
  80.2209854  61.1763334  99.3729973  82.1086884  60.5456495  98.5918236
  78.2098818  59.2889690 100.5312920  77.3358250  58.6138725  99.9027348
  77.9145527  60.4675627 101.1295319  78.6307430  60.9733295 101.6308975
  76.6101551  61.0768890 101.0475826  75.8701134  60.3683805 101.4196777
  76.5161371  62.3456287 101.9878674  76.8648338  62.0347023 102.9726696
  77.4379778  63.3553839 101.5092754  77.2952318  64.1972351 102.1867943
  78.4292793  62.9228258 101.3739109  77.1022511  63.7513256 100.5508327
  75.2043486  62.9674625 101.9436550  74.7373915  62.4502945 102.6040363
  76.2373304  61.4072704  99.5922661  75.0311995  61.4780283  99.2680740
  77.1219683  61.5709066  98.6314201  78.0873823  61.4716816  98.9111137
  76.8221045  61.6127777  97.1785259  76.1343479  62.4538374  97.0906830
  78.1515980  61.8456125  96.4936066  78.5788584  62.7630568  96.8983841
  78.8578272  61.0178709  96.5583229  78.0597067  62.0064163  95.0080109
  77.6193380  61.1020851  94.5880508  77.2155571  63.1823015  94.5833588
  77.5895452  64.0973425  95.0426388  77.1964264  63.2365179  93.4948730
  76.1896133  63.0758238  94.9357700  79.5113420  61.9395685  94.4509411
  80.0018215  61.0273361  94.7905922  79.3943024  61.9561720  93.3673668
  80.1170444  62.8172112  94.6767044  75.9682751  60.4375648  96.6821098
  75.0475645  60.6924486  95.9153461  76.0555601  59.2420292  97.1551514
  76.8608856  59.1357613  97.7553654  75.1268387  58.1029844  96.9139767
  75.1842642  57.9468489  95.8367443  75.5941486  56.7274332  97.4233532
  75.5104351  56.6719294  98.5087109  74.8967886  55.9308958  97.1638966
  76.9480610  56.3173962  96.8835258  76.9438696  56.2353945  95.7966232
  77.7216482  57.0638609  97.0636749  77.4717379  54.7213888  97.5603580
  76.2746048  53.5731745  96.8744278  76.7219162  52.5822878  96.9528770
  75.2672100  53.6983585  97.2713947  76.0883617  53.6617517  95.8041191
  73.7536573  58.3359241  97.3891258  72.7727556  58.3150148  96.5734386
  73.5938358  58.7822866  98.6177540  74.3625450  58.8258028  99.2714214
  72.2816086  58.9990377  99.1777039  71.6780519  58.0934238  99.2383957
  72.3887348  59.5280313 100.5815697  72.8504086  60.5106497 100.4844952
  71.4507294  59.6802330 101.1155033  73.2464266  58.7450027 101.6233444
  73.5102510  59.3224001 102.6574898  73.5959625  57.5618029 101.3738346
  71.6014433  60.0849104  98.3787823  70.4276228  59.9850130  97.9632759
  72.3374176  61.2022543  98.1190395  73.2913589  61.1380625  98.4445763
  71.8120670  62.3967886  97.4040604  70.9350109  62.7326727  97.9572868
  72.8750610  63.4905577  97.4179840  73.7734747  63.1767845  96.8864822
  72.5337267  64.3403196  96.8268013  73.3027124  64.0667200  98.7173462
  72.6043940  64.8732662  98.9407921  73.2753229  63.2700729  99.4607830
  74.6526575  64.6185732  98.7970066  75.3688908  63.8547945  98.4941006
  74.7228432  65.3660870  98.0068207  74.9951267  65.0067902 100.1681805
  75.0351524  64.2410755 100.8255768  75.2310991  66.1697865 100.5699253
  75.0817490  67.2788382  99.8782158  74.7578001  67.2535181  98.9219093
  75.4266405  68.1407881 100.2759457  75.7031536  66.2748909 101.7416096
  75.8128929  65.4940796 102.3727989  75.7868958  67.2395802 102.0287704
  71.4086294  62.0587444  95.9517479  70.3763151  62.5308132  95.4929924
  72.1196222  61.1710358  95.2645969  72.8805399  60.7520294  95.7798958
  71.7821884  60.5298328  93.9693642  71.6055775  61.2701082  93.1890392
  72.9419231  59.7142649  93.3885956  73.4181833  59.0905190  94.1450500
  72.4616528  58.7071609  92.3042297  71.8432713  59.1009235  91.4976025
  73.3432579  58.1790686  91.9409084  71.8700123  57.9733896  92.8516102
  74.0964413  60.6063938  92.7882576  74.2423964  61.5491009  93.3156204
  75.0614738  60.1478100  93.0039310  74.0189838  60.9933090  91.2463093
  74.8762035  61.5743113  90.9061527  73.9923191  60.1722193  90.5299282
  73.1353855  61.5839624  91.0044765  70.4165506  59.8187685  94.0779781
  69.4977045  60.0023413  93.2546806  70.2210522  58.9796877  95.1251030
  70.9984255  58.6618090  95.6861305  68.8790846  58.3032560  95.2835846
  68.7560225  57.8257942  94.3114758  68.9729452  57.2570086  96.3794994
  69.5354843  57.6874638  97.2079659  67.9644775  56.9709301  96.6782475
  69.7283936  55.9931564  95.8584881  69.2383528  55.6116390  94.9627113
  70.7480621  56.2234879  95.5497456  69.7519875  54.9340916  96.9832706
  68.7277937  54.8739672  97.3513889  70.1188421  53.9898968  96.5807533
  70.7840872  55.4257441  98.0007076  71.7811775  55.3534651  97.5663185
  70.5954170  56.4655304  98.2678318  70.7151699  54.6703672  99.3211365
  71.4328909  55.1392984  99.8550797  69.8012686  54.8417950  99.7154617
  70.9051228  53.6823988  99.2320633  67.7489805  59.2931700  95.5259037
  66.7462778  59.1183567  94.9112892  67.9839325  60.3213978  96.3475800
  68.8303185  60.2380896  96.8923664  67.0259905  61.4181471  96.4856720
  66.1237764  61.0746574  96.9917488  67.5506783  62.4830484  97.4312973
  68.1422281  61.9698191  98.1894302  68.3557081  62.9723835  96.8830490
  66.5372944  63.3622074  98.2093143  65.6567669  62.8986454  98.6541462
  67.0870543  63.8080597  99.0382195  66.0897493  64.5629597  97.2973251
  66.9292593  65.1922607  97.0018482  65.6317997  64.1884565  96.3818264
  65.0693226  65.4670382  98.0237484  64.2934513  64.7899723  98.3811188
  65.6584835  65.8501434  98.8569450  64.3635893  66.4542294  97.1174049
  63.5825014  66.9247150  97.5517464  64.9872494  67.0699883  96.6154099
  63.9830923  66.0163975  96.2905884  66.5590334  61.9910288  95.1663971
  65.4163027  61.9537067  94.7916698  67.4375677  62.4671841  94.3015099
  68.4090328  62.4976778  94.5761490  67.1287632  63.0668163  92.9838181
  66.5076399  63.9538574  93.1081486  68.4644413  63.4415960  92.3657703
  68.7925291  64.2935562  92.9612827  69.2026663  62.6416874  92.4229527
  68.5154533  63.8766098  90.8908749  69.5411873  64.2309189  90.7887077
  68.2512188  63.0458450  90.2365780  67.6091576  65.0582933  90.4280186
  67.1388674  65.1298285  89.2846298  67.3011446  65.9705114  91.2997818
  66.6568279  66.6638899  90.9473801  67.9660130  66.0441113  92.0565033
  66.4156818  62.0153046  92.0639229  65.4560518  62.3587275  91.3103008
  66.8707323  60.7703495  92.1007252  67.6511478  60.4871559  92.6759338
  66.2259054  59.7443533  91.3016415  66.1120892  60.0553560  90.2631664
  67.0602512  58.5326958  91.2618160  67.2447824  58.2231569  92.2905254
  66.4819002  57.7112579  90.8389091  68.3216429  58.6243200  90.3934479
  68.8471508  59.5727968  90.5045414  69.3595028  57.5348473  90.6567287
  69.5835066  57.2861147  91.6940594  69.0876722  56.5908480  90.1844120
  70.3351402  57.8930902  90.3282547  67.9584837  58.5326719  88.9221954
  68.8078022  58.7937641  88.2908535  67.8016710  57.5247335  88.5380363
  67.0988131  59.1390514  88.6369419  64.8213625  59.3852472  91.7768574
  64.0562201  59.0125847  90.9278202  64.4060469  59.5701790  93.0318356
  65.0926447  59.9072361  93.6914349  63.0014849  59.4629574  93.5314846
  62.6588058  58.7015486  92.8308201  62.9662991  59.0533686  94.9821377
  63.4961700  58.1266069  95.2022552  63.4751034  59.7840023  95.6109428
  61.5231943  58.8155746  95.4294300  61.2626934  59.8137712  95.7813549
  60.9187603  58.3529282  94.6492290  61.4301443  57.8055668  96.5947151
  61.9892168  56.9230652  96.2837029  61.9629097  58.3819151  97.3510742
  60.0168324  57.6043701  96.8518639  59.5397949  57.1180582  96.1061859
  59.2573643  58.2941914  97.7002430  57.9864311  58.1458521  97.4504089
  57.6734591  57.4633884  96.7748356  57.3349619  58.8931894  97.6432323
  59.6913385  59.1093159  98.6328602  60.6476307  59.4307899  98.6804390
  59.0330172  59.4811487  99.3025208  62.1770859  60.7385969  93.1351757
  61.0036993  60.7547522  93.2001114  62.8432751  61.7426014  92.5961971
  63.8484955  61.6619301  92.5402451  62.1922302  62.8067970  91.8788815
  61.2284422  63.0384350  92.3322678  63.0236435  64.1219902  91.6975594
  63.7450552  63.9801025  90.8928680  62.3091507  64.8486280  91.3107586
  63.7429428  64.6860933  92.9339695  64.4671106  63.9783096  93.3373642
  64.2913008  65.5486202  92.5552177  62.7415371  65.1606226  93.9707661
  61.6500282  65.6549597  93.6207390  62.9899740  65.0433969  95.2202606
  61.8013620  62.4403381  90.3863621  60.8361053  62.9579926  89.7842884
  62.4274683  61.4508724  89.7966480  63.2250023  61.1144638  90.3170967
  62.0454121  60.9092999  88.4620762  61.8339252  61.7266512  87.7726555
  63.1474781  60.0996399  87.8538418  63.2652473  59.1977978  88.4545994
  62.7410412  59.7169876  86.9176292  64.4683933  60.7389259  87.5380325
  65.0190449  61.8116903  88.1377602  64.6544647  62.3439550  89.0038872
  66.2685585  62.0948219  87.6409912  66.9298649  62.7102470  88.0926800
  66.5887070  61.2494516  86.5513706  67.6299000  61.1752605  85.5932236
  68.4320736  61.8879938  85.7154179  67.6207542  60.1687241  84.6389961
  68.5017681  60.0631762  84.0233135  66.5450907  59.2869997  84.5815945
  66.6048241  58.4435844  83.9096642  65.5518961  59.3029785  85.5884457
  64.8015738  58.5261869  85.5913925  65.4711485  60.3149462  86.5470600
  60.7175875  60.1456165  88.4659004  59.8671675  60.3856707  87.5775337
  60.4448032  59.3563318  89.4962788  61.1770201  59.2753029  90.1872253
  59.5089626  58.2510519  89.6056175  58.5268354  58.7002659  89.4581985
  59.8541880  57.3194933  88.4002113  59.9485683  57.8585005  87.4575233
  60.8560801  56.8947744  88.4628773  58.8708305  56.2171793  88.1072140
  59.1926670  55.2581072  87.4368954  57.7150774  56.3317537  88.5819626
  59.7562551  57.4255419  90.9122276  60.6736469  57.5897312  91.6950512
  59.0025377  56.3037729  91.1376190  58.2835722  56.0849190  90.4628658
  59.3230534  55.3346300  92.1304417  59.7974586  55.8229065  92.9816914
  58.0295610  54.5863581  92.6310825  57.4086666  54.1612434  91.8424988
  58.3576202  53.8371277  93.3515930  57.0873690  55.6000805  93.3696842
  56.6075897  56.2176085  92.6103687  56.2806892  55.0815439  93.8878536
  57.7842379  56.4509821  94.4161606  58.5282469  55.9248400  95.2560425
  57.5346231  57.6673126  94.5328617  60.3456879  54.4613361  91.5067196
  60.0273132  53.3291769  91.1520290  61.5406370  54.9821568  91.2862682
  61.6745186  55.8960724  91.6948605  62.5885105  54.5076609  90.4203415
  62.1318245  54.3116045  89.4502449  63.5151005  55.7526064  90.2602959
  62.8343058  56.6005802  90.1857662  64.1702652  55.9042120  91.1181355
  64.3043947  55.7345343  88.9434624  64.6817017  54.6920395  88.3958530
  64.5323753  56.9009781  88.3758545  65.0923443  56.9231796  87.5355911
  64.3160295  57.7188492  88.9275646  63.2104206  53.3083677  91.0414982
  63.1364632  52.9678774  92.2190475  64.0070629  52.6011944  90.2160645
  64.3053198  53.0841923  89.3806934  64.5245123  51.2160206  90.4304218
  63.7365246  50.7205868  90.9976196  64.7780848  50.4790401  89.0946388
  65.6433964  50.9878159  88.6698055  65.0102186  49.4442415  89.3464375
  63.6259222  50.4386759  88.1330776  62.9877949  51.3221216  88.1535149
  63.9686584  50.3404808  86.6969776  63.0569744  50.1487923  86.1311245
  64.2694712  51.3454819  86.4010239  64.6954393  49.5527935  86.4983749
  62.8186560  49.2365456  88.5177231  62.6227188  49.3100786  89.5874500
  61.8185043  49.2459488  88.0844784  63.3743715  48.3408642  88.2401848
  65.8069706  51.1887550  91.3627052  66.6663742  50.3061676  91.2486553
  65.8068323  51.9323635  92.5050259  64.9314070  52.3739481  92.7473927
  66.9331169  52.0039463  93.4852123  67.8314495  52.1237803  92.8796291
  66.9356441  53.2030392  94.4486713  67.9110909  53.2246256  94.9346161
  66.8107605  54.1347647  93.8969612  65.8062696  53.0661249  95.5576324
  64.9009752  52.7577734  95.0346947  66.1153555  52.2692299  96.2340450
  65.5950308  54.2539692  96.4482594  66.4095259  54.4446993  97.1470547
  65.4961061  55.1193857  95.7929993  64.2224884  53.9056587  97.0569420
  64.0058756  54.7346592  97.7306938  63.4824085  53.7972784  96.2640762
  64.3671703  52.7886534  98.0028820  64.3017578  51.9267511  97.4804306
  65.1676416  52.9078197  98.6071491  63.5337257  52.7663708  98.5729408
  67.3214769  50.6561756  94.1936398  68.4897327  50.4377842  94.5209503
  66.3068104  49.8973322  94.4490528  65.3545427  50.2118921  94.3293381
  66.4731979  48.6703825  95.1365852  67.3783922  48.7677956  95.7359505
  65.2921963  48.3484745  96.1671638  64.3913221  47.9643869  95.6886196
  65.5488110  47.4987125  96.7997360  64.8852825  49.5242119  97.0590305
  63.7254333  49.9617052  97.0427418  65.7812643  50.0587511  97.7563381
  66.5985680  47.5772524  94.1396427  67.5785494  46.8411636  94.0870476
  65.7067442  47.5398302  93.1376171  64.9697447  48.2304239  93.1416130
  65.6568527  46.5147877  92.1288490  65.6561518  45.6041908  92.7279472
  64.3802309  46.6164780  91.3744640  64.3881845  47.5842333  90.8729839
  64.3941259  45.7925653  90.6609726  63.1125355  46.4951086  92.2372913
  63.0091906  45.3582335  92.8094864  62.2763443  47.4276733  92.3938656
  66.8524027  46.4497375  91.2247944  67.1218634  45.3317165  90.8108139
  67.5733328  47.5551319  90.9916401  67.2784233  48.4363270  91.3874054
  68.4419346  47.6904106  89.7771740  68.7134552  46.7402697  89.3171597
  67.6413250  48.3988380  88.6660957  66.8042374  47.7705622  88.3616829
  67.3538637  49.4246054  88.8969040  68.4571743  48.4443426  87.4723339
  68.6042452  47.4987555  87.3959637  69.7338438  48.4720755  90.0337029
  70.7842112  47.9615498  89.7836304  69.7020483  49.6971846  90.5760288
  68.7911320  50.0978231  90.7487297  70.9003305  50.4445028  90.8605099
  71.4776993  50.6678534  89.9633694  70.4162645  51.8075514  91.3081074
  69.8202515  52.2724485  90.5227852  69.7348166  51.5735865  92.1260262
  71.3683891  52.7972317  91.9051170  71.9849968  52.2850418  92.6437378
  72.4019146  53.2821751  90.8482265  72.9628658  52.4189329  90.4901123
  71.9127655  53.7640238  90.0016689  73.0198860  54.0709162  91.2772942
  70.6366682  54.0029669  92.5217056  71.3363028  54.8160839  92.7151966
  69.9168253  54.4045067  91.8084717  70.1838684  53.6589050  93.4515953
  71.7312860  49.7050571  91.9256878  71.1284018  49.3913078  92.9481030
  72.9526186  49.2350483  91.6922188  73.6815214  49.1740322  90.4323769
  74.3594265  50.0257301  90.3761864  73.0177832  49.0710783  89.5739174
  74.4943523  47.8841066  90.4648399  75.3989697  47.8422022  89.8581982
  73.8338041  47.0615530  90.1906490  74.8905182  47.8168058  91.9115639
  75.7412004  48.4635019  92.1265602  75.2257347  46.8200159  92.1981716
  73.5834932  48.3025408  92.6043320  72.8408480  47.5367785  92.8283691
  73.9459753  48.8190937  93.9468384  73.8596392  50.0574064  94.1487980
  74.4265509  47.9506302  94.8310089  74.6396923  47.0390892  94.4518375
  74.9582052  48.3099604  96.2145329  74.3341446  49.1163397  96.5997696
  74.7507715  47.0529079  97.1269798  75.6179094  46.3925934  97.1142769
  74.6050644  47.3967075  98.1510258  73.6154795  46.2402201  96.7127609
  73.7939310  45.7596731  95.9010792  76.4339542  48.7374640  96.3243961
  76.7191076  49.6961260  97.0151520  77.3326302  48.0980444  95.5717182
  77.0234776  47.2931480  95.0457287  78.7769175  48.5457897  95.4032421
  79.1709900  48.5619402  96.4193821  79.5237923  47.4736357  94.7230148
  79.4556618  46.6137791  95.3894329  79.1315031  47.3334312  93.7157631
  80.9653664  47.8833151  94.4772530  81.2602711  48.3870697  93.3991432
  81.8973541  47.7658463  95.3861237  82.7696037  48.2312107  95.1794243
  81.6170692  47.5418091  96.3302326  78.9370728  50.0049400  94.8340130
  78.1920719  50.3616858  93.8960552  79.7668886  50.8881807  95.3239536
  80.7553959  50.8335209  96.3834953  81.5949535  50.4087400  95.8332157
  80.4675388  50.2331018  97.2464752  80.9421349  52.2465372  96.8907070
  81.9389248  52.3752928  97.3125267  80.2485371  52.4088287  97.7157497
  80.4384422  53.1298351  95.7444668  81.2559605  53.5434055  95.1539326
  79.7846413  53.9325619  96.0854435  79.6907425  52.2954655  94.7513580
  78.6943913  52.7349710  94.7985268  80.2215195  52.5489521  93.3112812
  79.6566439  53.3291388  92.6052094  81.2205982  51.7588949  92.8325558
  81.6987610  51.1144733  93.4458923  81.6690159  51.8264580  91.4073563
  81.9385242  52.8495121  91.1450005  82.9436493  50.9785223  91.2031746
  82.6430035  49.9500513  91.4030647  83.3808899  51.0664701  89.7237778
  83.8250637  52.0352840  89.4952488  83.9748383  50.2015781  89.4283295
  82.5324249  50.9459114  89.0502262  84.0966511  51.3053942  92.1821690
  84.6980476  52.1411467  91.8244553  83.7501431  51.6068649  93.1706715
  84.9793053  50.1037931  92.2449017  84.4598484  49.1783381  92.4934769
  85.3199291  49.9696970  91.2182045  85.8625793  50.1881170  92.8779984
  80.5472851  51.3149881  90.4527760  80.3197670  51.9894838  89.4154644
  79.8870850  50.1836538  90.7411957  80.1270294  49.6727133  91.5787315
  78.7671661  49.7242308  90.0017166  79.0177011  49.5522881  88.9549255
  78.3310127  48.2972527  90.6213188  77.9997206  48.5709572  91.6230297
  77.5540924  47.8986120  89.9689579  79.4197035  47.1611214  90.6775475
  79.1599941  46.1983967  91.5310192  80.4691029  47.1924877  90.0231647
  77.5272512  50.6660700  90.0305080  76.8450260  50.8674192  88.9806080
  77.2052526  51.1896753  91.1803722  77.6841688  50.9703970  92.0421410
  76.2837601  52.3690224  91.3455772  75.2697611  52.0549059  91.0981178
  76.3066483  52.8119946  92.8750324  76.2654257  51.9308281  93.5153103
  77.2746563  53.2714510  93.0749321  75.3037453  53.8574362  93.3724308
  75.6163836  55.2229643  93.1150913  76.5345430  55.4314184  92.5860023
  74.6747637  56.2048006  93.5867786  74.9595976  57.2432709  93.5040188
  73.5845661  55.7808304  94.3667221  72.9179239  56.4637756  94.8722553
  73.3290672  54.4102907  94.6475887  72.4998474  54.1329908  95.2815437
  74.1774035  53.4375715  94.1516495  74.0450287  52.3954535  94.4023705
  76.6463518  53.5205317  90.3883076  75.7325649  53.9663887  89.6185875
  77.9210663  53.9313698  90.2898788  78.6288881  53.4311008  90.8083630
  78.3140278  55.0709105  89.3505669  77.6685476  55.9159279  89.5901394
  79.6942997  55.5862141  89.7789097  79.7697496  56.6695976  89.6856785
  80.0176907  55.2377176  90.7597637  80.6877613  55.0689411  88.9405346
  80.6230640  54.1119576  88.9804935  78.1736994  54.7591591  87.8900433
  77.6129961  55.5585527  87.1725655  78.3728504  53.5370588  87.4655056
  78.8606501  52.8380060  88.0072498  78.2281780  53.1752157  86.0456371
  78.4991789  54.0384388  85.4377747  79.2424870  52.0541191  85.7351303
  79.1394424  51.1868668  86.3873196  78.9194536  51.7676306  84.7342873
  80.6953526  52.5371599  85.6675625  81.2212849  53.5956764  84.8826790
  80.5799294  54.2569923  84.3190193  82.5656509  53.8683033  84.8143196
  82.9847908  54.7429085  84.3391418  83.3977222  53.0006266  85.5705166
  84.7127247  53.2484818  85.5944157  85.1659775  52.4301672  85.8100986
  82.9213238  51.9093609  86.2888432  83.5867786  51.2257099  86.7949963
  81.5983868  51.7423916  86.3478756  81.2075710  50.9094048  86.9133854
  76.8233395  52.8061390  85.6749916  76.4296293  53.0854368  84.4871330
  75.9187222  52.4405432  86.6104507  76.2364578  52.2948503  87.5580311
  74.4509983  52.4895859  86.3343906  74.3215513  51.8350554  85.4724503
  73.6850071  51.8913317  87.5343800  74.1366577  50.9292173  87.7761555
  73.7275839  52.5016689  88.4364891  72.2796917  51.6488361  87.2000504
  71.7526770  50.4361057  86.9045448  72.4425173  49.6343470  86.6861439
  70.3899240  50.5562401  86.6955853  69.7735357  49.7562647  86.6811848
  69.9557543  51.8021441  87.0241261  68.7003231  52.3106098  87.4034786
  67.8129864  51.7136288  87.2529793  68.5960722  53.6562347  87.9048920
  67.6732874  54.1370344  88.1942081  69.7324371  54.4567013  87.9589176
  69.6352577  55.5169630  88.1400394  70.9794044  53.9132309  87.6031876
  71.8125916  54.5656681  87.8188896  71.1423349  52.5589991  87.2400188
  73.9511347  53.8304043  85.9498501  73.2129908  54.0510845  85.0086117
  74.2967463  54.8069668  86.7542458  74.8196936  54.5691395  87.5849533
  73.9633656  56.2867212  86.5581417  72.8906059  56.4728689  86.5068913
  74.5353651  57.1823835  87.7134800  75.6067610  57.1429110  87.9100895
  74.3507814  58.7114191  87.3787022  74.2043924  59.3275213  88.2658863
  75.2124786  59.0244198  86.7891216  73.4538221  58.8517570  86.7754841
  73.6992121  56.8151951  88.9624310  72.6992416  57.1967840  88.7561703
  73.7642384  55.7538652  89.2021084  74.1306829  57.3231411  89.8249435
  74.4245052  56.7420053  85.2127075  73.6090803  57.1404028  84.3746567
  75.7495070  56.5440655  84.9640179  76.3607979  56.1904621  85.6860924
  76.3402939  56.8085861  83.6856556  76.4634800  57.8765154  83.5054970
  77.7141714  56.2263727  83.5465240  78.1908512  56.5539169  82.6226234
  78.3756924  56.5641832  84.3442631  77.7359104  55.1366043  83.5404587
  75.4673052  56.2993336  82.5587654  75.1958323  56.9845295  81.5263081
  75.0855446  55.0233936  82.6470089  75.5650759  54.4391584  83.3169556
  74.3424416  54.3147230  81.5928650  74.7801399  54.4728899  80.6072140
  74.4992638  52.8573036  82.0119095  73.7193346  52.2868443  81.5075397
  75.4176664  52.4457073  81.5933132  74.4586802  52.7722120  83.0978203
  72.8407717  54.7604704  81.4376354  72.1864367  54.5825863  80.3884983
  72.2870207  55.2236414  82.5147152  72.9344702  55.2665806  83.2887077
  70.8785868  55.6979561  82.5315189  70.3733969  55.2661657  81.6675472
  70.2745152  55.1994562  83.8393021  70.9020281  55.3664637  84.7147655
  69.3834734  55.7717323  84.0974712  69.8358250  53.7401628  83.8273716
  68.6617041  53.4025621  83.5929298  70.7734632  52.8431511  83.9871883
  70.6529474  51.8998671  83.6469173  71.6499853  53.2126522  84.3267155
  70.7397509  57.1920109  82.2782040  69.6615648  57.7401638  82.0981598
  71.8837118  57.9320192  82.2759914  72.7694178  57.5243330  82.5394630
  71.8413925  59.3854094  81.9752407  71.0884953  59.8658752  82.6000500
  73.1702614  60.0879383  82.3152924  74.0275908  59.4760084  82.0348835
  73.3118105  60.9524107  81.6666317  73.4267807  60.5408144  83.7534809
  73.1130409  59.7736454  84.4613743  74.9149370  60.9325695  84.0404224
  75.3001261  61.7861128  83.4825706  74.8436260  61.1646128  85.1030445
  75.6079769  60.0925970  83.9929390  72.5613260  61.7717218  84.1701221
  72.7899599  62.5982046  83.4972572  71.5219259  61.4435148  84.1763401
  72.7548027  61.9612503  85.2259350  71.3989973  59.7513008  80.5491924
  72.1636391  59.5822191  79.6278334  70.2921343  60.5124044  80.3132629
  69.2375088  60.9417439  81.2720585  69.6832943  61.4402628  82.1327877
  68.6752653  60.0940752  81.6637707  68.2867241  61.8340778  80.4186249
  68.7551737  62.8122663  80.3099632  67.2891903  62.0264292  80.8136272
  68.3493328  61.1184597  79.0440083  67.9552412  61.7150450  78.2212830
  67.8035116  60.1773071  78.9775562  69.8623705  60.8315849  78.9364815
  70.0375128  59.9481535  78.3225012  70.5919456  61.9775200  78.2399750
  70.0504541  62.8021908  77.5307655  71.9022274  62.0558262  78.4086418
  72.3292303  61.2522888  78.8469410  72.7876043  63.0684185  77.9069757
  72.2391653  63.9923429  77.7234316  73.9191866  63.3548784  78.9215469
  74.6208715  64.0554428  78.4688377  73.4132147  64.0519905  80.2082920
  72.9051733  64.9859667  79.9681234  72.7724743  63.3311367  80.7161617
  74.2689705  64.3545866  80.8117962  74.7204018  62.0377207  79.2788744
  74.0612793  61.4304590  79.8992729  74.8073149  61.5141535  78.3268166
  76.1307812  62.3280907  79.8275471  76.0651350  62.8703594  80.7708073
  76.6666460  61.3845539  79.9309063  76.6176510  62.9994583  79.1202116
  73.3860207  62.7807617  76.5417290  73.2404709  61.6608667  75.9502268
  74.0793610  63.7504864  75.9830856  74.1904974  64.5933867  76.5283155
  74.7451639  63.5973072  74.6880770  73.9976835  63.2566214  73.9716148
  75.1056433  64.9970627  74.1415358  74.2273664  65.6407738  74.0928745
  75.7466459  65.5224180  74.8495102  75.8048630  64.8505020  72.8190613
  75.3543568  64.0712643  71.9449615  76.6478634  65.6972313  72.4374771
  75.9163761  62.5531673  74.6778727  76.6524982  62.5037289  75.6843948
  76.1140156  61.8829918  73.5680151  75.5125713  62.0174122  72.7678299
  77.2967052  61.0249472  73.2762909  77.2618103  60.2086449  73.9977789
  77.2321224  60.4951525  71.8231583  76.9618034  61.3136148  71.1559677
  78.1838083  60.1449394  71.4234734  76.2426710  59.3648672  71.6251707
  75.8327484  59.0743780  70.5164194  75.9735584  58.6714745  72.6311779
  78.5672283  61.7375040  73.5919094  79.4131708  61.0867834  74.1820526
  78.7621355  63.0161285  73.1231070  78.2170296  63.1202555  72.2792387
  79.9590921  63.8468885  73.3978224  80.7901287  63.2781029  72.9807377
  79.9241686  65.1080036  72.4797106  80.9617043  65.4001951  72.3176956
  79.4642878  64.8860979  71.5167093  79.2226791  66.2324858  73.0843019
  78.3350563  65.9845877  72.8154612  80.3258801  64.2271709  74.8326302
  81.5013504  64.0957069  75.1848078  79.3163586  64.5275927  75.6876040
  78.3705473  64.5381689  75.3334570  79.5473623  64.7004080  77.1463919
  80.3751945  65.3501701  77.4303007  78.3176899  65.4349470  77.7382421
  78.3704901  66.4136600  77.2613430  77.4194002  64.8615503  77.5093508
  78.1869030  65.6483698  79.2923927  78.0878448  64.6661854  79.7545671
  79.3148470  66.4328671  79.9137878  79.0299559  66.7022228  80.9308338
  80.0672245  65.6537390  80.0362110  79.5681763  67.3004580  79.3045187
  76.8457270  66.3196230  79.6172476  76.0559702  65.6375647  79.3023109
  76.8195868  66.4771557  80.6954861  76.6937971  67.2707891  79.1070461
  79.7894621  63.3640146  77.9292393  80.5623817  63.3209085  78.8746881
  79.1117716  62.2792959  77.5748301  78.3717012  62.4118042  76.9004107
  79.3190384  60.9204435  78.1371593  79.2439890  61.1333227  79.2035294
  78.0661821  60.0391054  77.7205658  77.0780897  60.4989147  77.7392435
  78.1445551  59.7997761  76.6600561  78.0384207  58.9184999  78.7711334
  78.8046074  58.1866074  78.5154152  78.4227562  59.2805099  79.7247267
  76.6915894  58.2407331  78.9806271  76.7252636  57.8242064  79.9873400
  75.8867359  58.9699411  78.8879776  76.5477753  57.1232796  77.9798841
  77.2495079  56.9439268  77.2759628  75.5036020  56.2891197  77.9525757
  74.4324875  56.3636255  78.7005186  74.5076418  56.8485069  79.5833254
  73.6313343  55.7711983  78.5353708  75.5435896  55.3046846  77.0521498
  76.4165020  55.0094080  76.6387129  74.6614599  54.8728609  76.8166161
  80.7070637  60.2997303  77.9108858  81.2961388  59.6349907  78.8015270
  81.3205051  60.5369282  76.7609978  80.7223320  60.9753370  76.0753679
  82.7424335  60.4127598  76.3577604  83.0377102  59.3832016  76.5600443
  82.8926373  60.7625103  74.8499155  82.3761463  61.6931629  74.6149063
  84.3373203  60.8340693  74.4041967  84.4982147  61.1035633  73.3603668
  84.8066139  61.5982056  75.0238419  84.8403263  59.8708344  74.4894028
  82.1791553  59.5951509  74.0387058  82.8818512  58.7663221  74.1245365
  81.2760162  59.4078064  74.6195269  82.0657825  60.0278330  72.5651026
  81.4986610  59.2491674  72.0550585  81.5023518  60.9593201  72.6196241
  83.0076027  60.0264788  72.0164013  83.6047173  61.2868643  77.3009872
  84.4633865  60.7311916  78.0514860  83.3636475  62.6041079  77.4106884
  82.7718449  63.0512428  76.7251682  84.0152359  63.5467529  78.3681393
  85.0708294  63.6171722  78.1057453  83.4464073  64.9541092  78.2733965
  83.4543324  65.1607895  77.2031975  82.4154472  64.8834181  78.6201429
  84.2024899  66.0624790  78.9105415  83.6689281  67.0125723  78.8834524
  84.3610668  65.8554792  79.9688959  85.5445671  66.4469194  78.3331013
  85.7517052  67.0585251  77.2911358  86.5869236  66.2376785  79.0315580
  87.4796963  66.4442062  78.6068249  86.4794731  65.7815218  79.9262476
  84.0217876  62.9059982  79.7739840  85.0808716  62.8917742  80.4328251
  82.9308605  62.2541904  80.1580143  82.0977306  62.2759056  79.5874739
  82.7917862  61.6769981  81.4728546  83.2060242  62.3839855  82.1916580
  81.3226318  61.3970661  81.8817043  80.7925797  60.9536362  81.0387802
  81.2092876  60.7314014  82.7373505  80.5557728  62.6301146  82.2139931
  80.8764362  63.4033823  81.5159035  78.9721727  62.4469376  82.0942402
  78.7777710  62.0734739  81.0888386  78.6805487  61.7633200  82.8915596
  78.3593607  63.3321142  82.2646141  80.8884716  63.2136250  83.5802460
  80.6237125  62.4446678  84.3059921  81.9058418  63.6041260  83.5564709
  80.3534603  64.1263151  83.8426590  83.6781502  60.4410124  81.6975021
  84.3926907  60.3217840  82.6935768  83.5502529  59.4780302  80.7819080
  82.9071045  59.6153450  80.0153446  84.1712761  58.1410265  80.8856010
  83.8621521  57.5744343  81.7639637  83.6364937  57.4489403  79.6371412
  83.5447407  58.1449032  78.8032913  84.2824841  56.6413546  79.2927599
  82.2202873  56.8996668  79.9135303  81.5067863  57.6257038  80.3032398
  81.5676880  56.3843489  78.6130285  81.6483212  57.1074629  77.8014183
  81.9015408  55.3938961  78.3037710  80.4916954  56.2371349  78.7061930
  82.3005390  55.6960392  80.7824230  83.0347538  55.0070477  80.3649235
  82.6824188  56.0678196  81.7332363  81.3500118  55.1668835  80.8501911
  85.6957150  58.1545019  80.9001064  86.2161541  57.3368979  81.6887188
  86.4085007  59.0887594  80.2779484  85.8403587  59.6537781  79.6630716
  87.8867149  59.3108273  80.4360676  88.3755875  58.3483648  80.2851391
  88.4814739  60.3043747  79.4221592  89.5559692  60.3967571  79.5803738
  88.2505417  59.9248981  78.4267855  87.8233337  61.6520643  79.6014833
  86.7873096  61.5140724  79.2921019  87.8492546  62.1002769  80.5947208
  88.4272099  62.7395916  78.6323690  87.9083729  63.6440086  78.9500713
  89.4975376  62.7896547  78.8323736  88.0515003  62.5162125  77.1485043
  88.6312580  61.6789675  76.7598963  86.9939518  62.4475145  76.8936062
  88.5509872  63.7014103  76.3458443  88.1857967  63.5996914  75.4096842
  88.2874012  64.5822191  76.7639399  89.5529366  63.7440062  76.2258959
  88.3634186  59.7895718  81.8128586  89.5756531  59.7469997  82.1028042
  87.4008083  60.0551319  82.7152061  86.4270496  60.1086283  82.4524403
  87.8157711  60.3048611  84.1135311  88.6453056  61.0107374  84.0722466
  86.6861439  60.9452391  84.9019146  85.8655262  60.2800417  84.6332073
  86.9575214  61.0857058  86.3722229  87.8140163  61.7002153  86.6495514
  86.0620022  61.4321280  86.8881130  87.2427464  60.1312351  86.8146515
  86.1893749  62.3693085  84.4471931  86.0955143  62.4079275  83.3619308
  85.2663612  62.5576258  84.9955368  87.1172333  63.6140203  84.5811081
  86.6434288  64.4866514  84.1315174  87.1917057  63.6429977  85.6681824
  88.0484104  63.3176184  84.0982628  88.2847977  58.9721584  84.7382069
  87.4786186  58.0185080  84.8980713  89.5212746  58.9753056  85.1830578
  90.0265503  59.8083448  84.9168873  90.3074169  57.8047466  85.6945324
  89.9358940  56.9503069  85.1288414  91.7602158  57.9826546  85.3112888
  92.3962593  57.2144556  85.7510853  91.7514420  57.8841019  84.2257881
  92.3954487  59.3207026  85.6729889  91.8348503  59.9960089  86.5880775
  93.4755802  59.6479654  85.1571560  90.0050163  57.4703789  87.1625900
  90.6575298  56.7667532  87.8846550  88.8134003  57.8045607  87.6490307
  88.1745434  58.3533382  87.0915318  88.2713890  57.5055552  88.9628029
  88.4936905  56.4689016  89.2158508  88.9122581  58.5189056  89.9590778
  89.9337006  58.1679678  90.1060486  88.8193798  59.5406199  89.5908737
  88.3110905  58.4149361  91.2574387  88.6696720  57.6694632  91.7445660
  86.7378712  57.6235437  89.0685749  86.1656666  58.5895586  88.6075687
  86.0336113  56.7028666  89.7413445  86.4773655  56.0463524  90.3675842
  84.5614147  56.5583467  89.7705078  84.1882324  56.7115498  88.7578964
  84.2265415  55.1981020  90.1786327  84.8875237  54.5997429  89.5516014
  84.4367599  54.9220896  91.2119484  83.1774139  55.0035143  89.9559879
  83.8931465  57.6889801  90.6479454  83.1347084  58.5490370  90.0233269
  84.2553616  57.8206110  91.9360256  84.9349594  57.1862555  92.3307800
  83.6371040  58.8333559  92.7796650  82.5516605  58.7482500  92.7278996
  84.0655136  58.7511349  94.2732620  85.1243973  58.9526367  94.4353199
  83.4165478  59.8855209  95.1393604  83.6596203  59.8631716  96.2016773
  83.4866905  60.8685970  94.6737957  82.3961353  59.5075750  95.0760555
  83.7942219  57.3291063  94.8561192  84.5824337  56.6636848  94.5039368
  83.9612389  57.3338032  95.9332371  82.4053383  56.6588783  94.6044922
  81.6394424  57.2735357  95.0774670  82.1758556  56.4560270  93.5584068
  82.4226570  55.6394386  94.9899006  83.9281273  60.2874899  92.1962452
  83.0382919  61.1326265  92.1471119  85.1437473  60.4146242  91.7744255
  85.7848454  59.6342182  91.7817879  85.5147076  61.6939735  91.1964798
  85.4666710  62.4788427  91.9513226  86.9967079  61.6695690  90.7351589
  87.1971989  60.8495760  90.0455856  87.2117519  62.5481510  90.1269245
  87.9543114  61.5893507  92.0010662  87.8831959  60.7260418  92.6626778
  88.9958286  61.4222908  91.7264175  87.9708672  62.8639889  92.9002857
  87.5846863  63.9865685  92.4497414  88.5658836  62.8289652  94.1031361
  88.5366726  63.7233496  94.5714569  88.8225746  61.9174767  94.4544315
  84.5746136  62.0860052  90.0322247  84.0720749  63.1949520  89.9797726
  84.3369961  61.1808443  89.0383720  84.8934937  60.3386641  89.0044594
  83.3612537  61.2886620  87.9951572  83.6575794  62.1225214  87.3587894
  83.3141613  60.1099396  86.9969463  84.3571472  59.8580122  86.8050575
  82.7434444  59.3125677  87.4729443  82.6488400  60.3573418  85.6824017
  81.6331482  60.7127047  85.8561707  83.3135319  61.0284615  85.1384544
  82.4987125  59.0788269  84.9125099  82.2211075  59.2953157  83.8809299
  83.3960724  58.4601974  84.9006462  81.4589405  58.1857395  85.3932285
  80.5204964  58.5363865  85.2648830  81.4693546  57.2057056  86.2266064
  82.5715351  56.5921831  86.6640949  83.4811115  56.8513012  86.3096428
  82.4856853  55.8801317  87.3752403  80.3396511  56.7894840  86.6747856
  79.5539427  57.4084711  86.5347385  80.2420139  56.0401630  87.3449230
  81.9530106  61.4603376  88.5737324  81.2054348  62.3476458  88.0579662
  81.4910126  60.7211781  89.6230984  82.1301270  60.0848913  90.0778389
  80.1470470  60.7205343  90.1922035  79.3872929  60.4535389  89.4576359
  79.9765921  59.6670771  91.2693787  80.3495026  58.7328482  90.8495426
  80.5805588  59.9262428  92.1389484  78.5222721  59.3765068  91.7017460
  78.1274128  60.2357388  92.2438908  77.6519203  58.9472675  90.5555916
  76.9190931  58.1755543  90.7912064  77.1517038  59.7895288  90.0775909
  78.3145952  58.6461306  89.7442436  78.6030769  58.3435440  92.8633690
  77.6774645  57.8244066  93.1120586  79.3534088  57.6089525  92.5709915
  78.8759661  58.8603258  93.7834644  79.7052479  62.1624756  90.7213688
  78.5460091  62.5263071  90.7154751  80.6873989  62.9701567  91.0764599
  81.6053391  62.5738382  90.9335709  80.5564022  64.3556595  91.3899708
  79.8651457  64.4087458  92.2310734  81.9068623  64.8590612  91.8987656
  82.7093410  64.7612524  91.1676216  81.6977406  65.9211063  92.0269394
  82.4171352  64.2306232  93.2703590  81.7620277  64.4278669  94.1189098
  82.4236965  63.1411886  93.2358932  83.8133240  64.6981859  93.5723400
  84.4465637  64.4516563  92.7200890  83.7710857  65.7873678  93.5755920
  84.2771816  64.1348362  94.9155426  83.6684132  63.5869122  95.5065536
  85.3734016  64.4879627  95.5540371  86.2331009  65.3360271  95.1138878
  85.9057331  65.8521843  94.3098259  87.0985794  65.4590893  95.6197548
  85.6335640  63.9970064  96.7256832  85.0001526  63.2749081  97.0378876
  86.2648869  64.4242287  97.3882675  79.8723364  65.1239300  90.2134418
  78.8938046  65.8346510  90.4010677  80.4574680  65.0745201  88.9885235
  81.2635517  64.4956112  88.8009453  79.7812796  65.5739832  87.7745342
  79.5484352  66.6302681  87.9092312  80.7857895  65.5229044  86.6413116
  81.0821056  64.4844675  86.4931965  80.2531242  65.7030153  85.7075405
  82.1480370  66.6461086  86.8599415  81.6659927  67.8803778  86.6893005
  78.4372711  64.8607826  87.4809647  77.5358772  65.6131124  87.1112537
  78.2259560  63.5770321  87.8927231  78.9621019  62.9654598  88.2154655
  77.0071840  62.9279232  87.4677753  76.6318750  63.1930828  86.4793777
  77.1931219  61.4208126  87.5848389  77.5649214  61.1593819  88.5755539
  76.2467003  60.8830929  87.5278473  78.1137180  60.9584236  86.4771938
  77.7718925  61.2877798  85.4959774  79.0992594  61.4196873  86.5407944
  78.4083986  59.4506454  86.3702965  78.1738138  58.6186123  87.3258114
  78.8678169  59.0471601  85.2682114  75.8110762  63.3916998  88.3163929
  74.7273874  63.4899330  87.7419186  76.0486603  63.7482691  89.5600224
  76.9517136  63.5452795  89.9642467  74.9141645  64.3804550  90.3246307
  73.9807892  63.8281870  90.2154922  75.1898193  64.3688297  91.8782330
  75.3395271  63.3424139  92.2131252  76.0023880  65.0486851  92.1344185
  74.0777493  65.0344276  92.7571774  74.0290689  66.0783339  92.4473476
  72.6782513  64.4135809  92.6222324  72.0395803  64.7100830  93.4542656
  72.1466589  64.7272921  91.7238426  72.7080393  63.3262587  92.5519466
  74.4940329  64.9684668  94.1852665  75.4157734  65.5025768  94.4159508
  73.7125206  65.4949760  94.7331047  74.3703032  63.9758873  94.6183681
  74.6479607  65.8194971  89.8331451  73.4619331  66.1054420  89.7409248
  75.7183886  66.6161680  89.5973396  76.6715765  66.2910509  89.5209789
  75.5662203  68.0319595  89.2229843  75.0938654  68.5747194  90.0417614
  76.9584656  68.5755014  89.0975094  77.3256493  68.6274958  90.1224899
  77.5320482  67.8639793  88.5035133  77.0378113  70.0370121  88.5262012
  76.2637234  70.9207773  89.0767479  77.7104330  70.2411127  87.4647141
  74.8326969  68.1783867  87.9252052  73.9105272  68.9152241  87.8560543
  75.2034664  67.3745918  86.8786049  75.8847475  66.6458416  87.0363426
  74.5817757  67.2351122  85.4983902  74.5772171  68.2134008  85.0177288
  75.3687859  66.3285780  84.5106030  75.3716803  65.3455353  84.9814796
  74.5756292  66.1519766  83.1722069  74.9718809  65.3860044  82.5055885
  73.5852861  65.7698298  83.4197617  74.5855999  67.0757914  82.5937843
  76.7812300  66.8843985  84.2444134  76.7152643  67.6192045  83.4420395
  77.0352507  67.3546600  85.1943779  77.7653074  65.8085632  83.9199734
  77.3863697  65.2898788  83.0393600  78.7781477  66.1682940  83.7386990
  77.8533792  65.0927401  84.7372437  73.0667973  66.8187237  85.6575871
  72.1271753  67.3335123  85.0460434  72.7792740  65.9760475  86.5988922
  73.5481834  65.4196644  86.9443130  71.3674355  65.4659414  86.9286633
  71.0489941  65.1341677  85.9404278  71.5093374  64.2531776  87.8342724
  72.3112011  63.6386299  87.4250698  71.6844511  64.5495510  88.8684845
  70.3016758  63.2796764  87.8569031  69.4497013  63.8796091  88.1767845
  70.0078297  62.7754259  86.9363117  70.4791784  62.0556402  89.1540432
  71.3973284  60.8701181  88.2159996  71.7624760  60.0862789  88.8796043
  70.7541561  60.3741837  87.4890423  72.2894669  61.2363243  87.7079773
  70.4655838  66.5563631  87.5386620  69.3479729  66.5873337  87.0458031
  70.9940243  67.2861671  88.5223675  71.9181919  67.1024466  88.8860416
  70.2651834  68.3925533  89.1266727  69.2737532  68.0375814  89.4080353
  71.0007524  68.6901474  90.4177856  71.0126781  67.7688646  91.0001945
  72.0287323  69.0306568  90.2936745  70.2752209  69.7788525  91.2100792
  69.1687012  69.5697689  91.6296673  70.9492540  70.8287334  91.6845608
  70.5112791  71.3524294  92.4288845  71.9544125  70.9095526  91.6277504
  70.1762199  69.6394491  88.1671238  69.2758846  70.4352093  88.2511330
  71.1035490  69.7877121  87.2010422  71.9487429  69.2401981  87.2783947
  71.0532427  70.7105637  86.1258125  70.5891514  71.6493368  86.4281750
  72.4520969  71.1281490  85.6984520  73.0065680  70.1976395  85.5767727
  72.3517752  71.6529560  84.7483921  73.1382608  72.1194172  86.6534233
  72.7825069  73.1497049  86.6469860  73.1505013  71.7318821  87.6721287
  74.5861864  72.1929455  86.2330532  75.0064373  71.1875343  86.2583447
  74.6418858  72.4935627  85.1868153  75.4472876  73.1265640  87.0900917
  75.0611591  74.1422176  87.0037365  75.4623127  72.8005648  88.1300831
  76.8411207  73.0142260  86.6735744  77.4329710  73.6931753  87.1305656
  77.2349215  72.1054602  86.8714809  76.9640541  73.1389046  85.6788635
  70.1972723  70.2253675  84.9549866  69.7060585  71.0604239  84.1517830
  69.9079084  68.9332771  84.9028301  70.2474594  68.3064699  85.6183147
  68.9972448  68.3791399  83.8720989  69.2274284  68.9510441  82.9731941
  69.2345905  66.8825483  83.6048412  70.3005314  66.7158270  83.4496975
  69.0585184  66.2364817  84.4648933  68.3220530  66.2369251  82.2121048
  68.3685398  67.2341967  81.3243103  67.4747801  68.6838531  84.1735744
  67.0257902  68.6244822  85.3144550  66.6703987  68.9836502  83.1778240
  67.1414900  69.0289783  82.2855759  65.2632713  69.3915176  83.2582951
  64.8078203  69.0589952  84.1910839  65.2034235  70.9454536  83.2022667
  64.1836643  71.3302517  83.1909657  65.8506155  71.5491915  84.3932152
  66.8983173  71.2596893  84.4744778  65.7722569  72.6151276  84.1793251
  65.3312159  71.3317299  85.3265095  65.9571362  71.4244938  82.1064281
  65.4430819  71.9488335  81.4880371  64.4419146  68.7843180  82.1114349
  63.8253927  67.7300358  82.3536968  64.4124842  69.3897963  80.9338093
  64.9241400  70.2573347  80.8583832  63.5561848  69.0692949  79.8080063
  62.8007412  68.3465862  80.1163769  62.8184748  70.2982807  79.2405510
  62.7525139  71.0601759  80.0172520  63.3204460  70.8221769  78.4271288
  61.5530586  69.9459887  78.7077713  61.1291981  70.7594633  78.4245729
  64.3390608  68.4348679  78.6795712  65.6265593  68.5336971  78.6093187
  63.6835670  67.8096437  77.6979589  62.6767063  67.8876829  77.7133846
  64.2913866  66.9922876  76.6042852  65.3668880  67.1694946  76.6057205
  64.0650272  65.5148268  76.8873024  63.0345392  65.4173708  77.2289133
  64.2521858  64.8572540  76.0383797  64.9646616  64.9201012  78.0052471
  65.2279425  65.7640362  78.6428642  64.1531038  63.9405060  78.8384151
  63.2638645  64.3820047  79.2883492  63.9181852  63.0815792  78.2098007
  64.7784996  63.6285257  79.6748638  66.3131428  64.3930578  77.4954557
  66.9166183  64.3545914  78.4023380  66.2253332  63.3998823  77.0550108
  66.8193197  65.0146580  76.7568731  63.6880064  67.4914503  75.2639532
  62.5107241  67.6586723  75.0958204  64.5966911  67.8832102  74.3463564
  65.5671644  67.8434563  74.6233130  64.2353106  68.4306908  73.0303240
  63.1575823  68.3320475  72.9004097  64.4650888  69.9331045  73.1017065
  63.8969946  70.3174210  72.2545528  64.1794634  70.2164078  74.1147470
  66.1924028  70.5180025  72.9026365  66.7677212  69.5772982  73.6569452
  64.9105358  67.6602221  71.9021559  65.9319973  67.0188665  72.1452188
  64.2990208  67.7112198  70.7367229  63.5075140  68.3078384  70.5426168
  64.9089432  67.0758152  69.5793676  64.9103403  65.9863806  69.6145296
  63.9664793  67.4463081  68.4521627  64.0097618  68.5248852  68.3008289
  62.9405737  67.0887280  68.5402870  64.5937729  66.7660475  66.9365358
  66.3422251  67.5685501  69.3103886  66.6433525  68.7548447  69.2718744
  67.2219610  66.5362024  69.1931009  66.8918467  65.5968904  69.3628645
  68.6256981  66.7313814  68.9344788  69.0107012  67.3703003  69.7292471
  69.4317532  65.4241085  68.8938713  69.2178297  64.9275112  69.8403025
  68.9819288  64.7675133  68.1491280  70.9496260  65.5535126  68.5578585
  71.0569048  65.7973194  67.5009060  71.4530373  66.2579584  69.2200041
  71.5403318  64.1835594  68.8080549  71.7693329  64.2031574  69.8735476
  70.7147169  63.5300684  68.5262585  72.8879023  63.9343357  67.9400253
  72.6452208  64.1197014  66.8936777  73.6439753  64.6380186  68.2882929
  73.3992910  62.5852489  68.0828142  74.2829323  62.4629736  67.6091766
  73.6600828  62.2338486  68.9930916  72.6918650  61.9714403  67.7048111
  68.9329576  67.5394201  67.7285624  69.8136187  68.4483147  67.7385473
  68.2564878  67.0980978  66.6157770  67.6045227  66.3278627  66.6579866
  68.5433340  67.5635719  65.2383757  69.6160269  67.4464989  65.0843525
  67.8599739  66.6504002  64.1953230  66.7798662  66.7636204  64.2883539
  68.1127024  66.9425106  63.1760550  68.2972860  65.1382399  64.3326616
  68.3312368  64.7489119  65.3501940  67.6479387  64.4903135  63.7439060
  69.7087002  64.8899460  63.7451458  70.6972647  65.0529003  64.4962788
  69.8542404  64.7121382  62.4955320  70.7648897  64.3967485  62.1932983
  69.0602589  64.3936348  61.9586420  68.2270145  69.0403605  65.0233555
  69.0728569  69.8986530  64.6927118  66.9311476  69.4476318  65.2671814
  66.2176847  68.7838268  65.5325842  66.5127611  70.8207321  64.9089432
  67.1894693  71.2981749  64.2002630  65.2274609  70.6396103  64.1839123
  65.2353287  69.7367287  63.5733032  64.9724817  71.4275551  63.4752274
  63.7593126  70.4169416  65.2840376  66.4742947  71.7060900  66.1221552
  66.7987347  72.8798103  66.0974455  66.2052155  71.1029530  67.3023510
  66.0697889  70.1035690  67.2476721  66.2507010  71.7796183  68.5945797
  66.1876297  71.0552025  69.4065809  67.6110506  72.4415398  68.9187193
  67.7636862  73.3262205  68.3005381  67.5679016  72.8733253  69.9186182
  68.8694811  71.5111923  68.9090824  69.3225002  71.6557932  69.8898792
  68.6228752  70.4776001  68.6662197  69.8106861  72.0739746  67.8769588
  70.0693798  73.2611752  67.7812576  70.4816008  71.2589216  67.1097183
  71.1175346  71.7520332  66.4993620  70.5487680  70.2875233  67.3779917
  65.0048637  72.6323414  68.7695885  65.0491285  73.5625744  69.6270657
  63.9206553  72.4250031  68.0413103  64.0727711  71.8076515  67.2565603
  62.7577162  73.2880735  67.9718447  62.8562021  74.3321419  68.2690334
  62.2052145  73.3947897  66.5463829  61.8846369  72.4039650  66.2245083
  61.3739157  74.0919399  66.6514063  63.2123423  74.0382910  65.5891037
  64.0359116  73.3249187  65.5586290  62.8463984  73.9416218  64.5669317
  63.6437273  75.4381227  65.9654331  62.7876377  76.3069105  66.2030506
  64.8703766  75.7692719  65.8824635  61.6978455  72.8133154  68.9608002
  61.0235071  73.6754084  69.6239424  61.4743805  71.5132284  69.0268517
  62.1470976  71.0063457  68.4695101  60.3903055  70.7589531  69.6637726
  59.5806360  71.4656115  69.8458910  60.1019335  69.5620155  68.7046099
  60.9403992  68.8661051  68.6765099  58.9481592  68.6281157  69.2613268
  59.3517685  68.2831335  70.2132654  58.0101633  69.1716337  69.3747044
  58.7224913  67.7367878  68.6759138  59.6301603  69.8640919  67.3830795
  60.2306271  69.4468927  66.7609978  60.8577871  70.3560829  71.0441160
  61.8769073  69.6653557  71.1937904  60.1252460  70.7662868  72.0665503
  59.3571424  71.3673401  71.8041611  60.1434851  70.3659821  73.4667063
  61.1219120  69.9463320  73.7005472  59.8946905  71.4951468  74.4185114
  60.7075500  72.1918678  74.2137241  58.9566135  71.9915915  74.1702127
  59.9826670  71.1300325  75.9697390  59.0646791  70.6207657  76.2630939
  60.8706713  70.5007553  76.0293865  60.0753975  72.3590517  76.9692087
  60.7600594  72.3503160  78.0197096  59.2955732  73.3231449  76.7922211
  59.2751217  69.1332912  73.7243462  58.1688166  69.1089869  73.2660484
  59.7776556  68.0648184  74.3860960  60.7287693  68.0991745  74.7241831
  59.2075634  66.7118025  74.2854261  58.2888317  66.8521976  73.7159395
  60.1122761  65.7049608  73.4722805  61.1111355  65.6607962  73.9063692
  59.4432354  64.3308973  73.3025026  58.4424925  64.4043303  72.8767967
  60.0680304  63.6924219  72.6779413  59.4168377  63.8063049  74.2575932
  60.1934338  66.2009621  71.9660330  59.2609596  66.1294031  71.4061546
  60.5053186  67.2450829  71.9913054  61.2942076  65.6347227  71.0744762
  60.8947086  64.7856951  70.5198050  61.4906120  66.3774920  70.3012848
  62.1934223  65.2326202  71.5411949  58.8310051  66.1536264  75.6657171
  57.6615667  65.8479309  75.8544350  59.7102928  66.0163355  76.6844177
  60.6632519  66.3327217  76.5755129  59.2673874  65.5676603  78.0592251
  58.3128595  66.0465193  78.2775640  59.0710115  64.0494061  78.0381775
  58.4835291  63.7536287  77.1689939  60.4265308  63.2926226  77.9921150
  60.9208441  63.3297443  78.9628839  60.3337812  62.2773075  77.6065969
  61.0945368  63.7504816  77.2625637  58.3644295  63.6570358  79.0838242
  57.4185514  63.6157990  78.9250278  60.2380800  66.0000753  79.1591167
  61.1830759  66.7331171  78.8323402  60.0913954  65.6743908  80.4283905
  59.3570757  65.0244904  80.6702805  61.0972261  65.9977818  81.4918137
  62.0348740  66.3023806  81.0269070  60.7224035  67.0606279  82.6040077
  61.6451788  67.3519850  83.1056976  60.0847578  68.3579063  82.0320606
  60.0092173  69.0985394  82.8282070  60.6370926  68.8216209  81.2147427
  59.0581322  68.1695938  81.7179298  59.9198675  66.3790846  83.5236645
  59.8887730  67.0276833  84.2307377  61.5586662  64.7065115  82.1684837
  60.7864380  63.7753105  82.1683502  62.7146339  64.7289610  82.8674126
  63.2624960  65.5769444  82.8969193  63.2806730  63.5233164  83.6197376
  63.3826208  62.6903343  82.9241467  64.6410465  63.9669466  84.1781235
  65.1231003  63.1036901  84.6369362  65.2758408  64.3776083  83.3929539
  64.4577312  64.9709702  85.3039074  63.9145803  65.8211803  84.8913097
  63.8214684  64.5056820  86.0567474  65.8193731  65.4178953  85.7527351
  66.3668013  64.4920921  85.9296989  66.3428545  66.0329771  85.0207901
  65.5187464  66.1553526  87.1124172  64.5812702  66.7049980  87.0279694
  65.3706837  65.4007816  87.8849506  66.5958643  67.0821524  87.4386024
  67.3849916  66.5778112  87.8167915  66.8919420  67.5281668  86.5821552
  66.2749434  67.7919436  88.0814934  62.2795010  63.0507326  84.7518539
  62.5147009  62.0411587  85.3883839  61.2258387  63.7846327  85.0135708
  61.0578489  64.5424366  84.3673420  60.2524281  63.6013746  86.1314011
  60.6070042  63.0261421  86.9866657  60.0176764  64.9274731  86.8172550
  59.3548441  65.5893469  86.2598705  59.4824600  64.6679592  87.7306557
  61.2184191  65.7014990  87.2813797  61.7128754  66.6653681  86.6592789
  61.7607069  65.2668571  88.3650684  62.4342871  65.8770657  88.8055706
  61.4210606  64.3978310  88.7517548  58.9607000  63.0378008  85.5662155
  58.1589317  62.6008701  86.3768768  58.7321138  62.9958677  84.2168427
  59.4552469  63.3914042  83.6331177  57.6486731  62.3183823  83.5553074
  56.7144823  62.3949623  84.1116524  57.4022436  63.0049229  82.1451569
  58.2863331  62.7449274  81.5630245  56.7141008  62.4417877  81.5147305
  57.0755672  64.4918442  81.9953537  57.9642344  64.9835396  82.3910904
  57.1051788  64.8272562  80.9586620  55.7765007  64.8812389  82.6687717
  55.1582432  64.1345119  83.4373665  55.3125715  66.0165644  82.4424458
  57.7754974  60.7804203  83.3575344  56.8662262  60.0066328  83.0067730
  59.0301847  60.3893948  83.5421085  59.6532059  61.0896349  83.9184093
  59.6817207  59.0354681  83.3689785  59.6140432  58.7885904  82.3094654
  61.1391115  59.0900135  83.9433765  61.2439823  59.8958111  84.6698666
  61.7381763  57.7281380  84.4524479  61.7654324  56.9670153  83.6726761
  62.7338409  57.7914858  84.8914719  61.1645174  57.2670794  85.2564716
  61.9940901  59.5905399  82.6648045  61.8109655  58.8918352  81.8484783
  61.6059732  60.5609608  82.3553658  63.4803486  59.7486162  82.9098034
  63.9315653  60.2922440  82.0797634  63.6987734  60.2017260  83.8768005
  63.8966179  58.7412453  82.9135895  58.8012838  57.8900719  83.9241505
  58.0617666  57.9692984  84.9106503  58.8305473  56.7142963  83.2918167
  59.3913984  56.6056824  82.4588966  58.1294537  55.4620552  83.7793255
  57.7950907  55.5446720  84.8134804  56.8801308  55.2631950  82.8447247
  56.1651468  55.9790087  83.2503223  57.1100092  55.4156494  81.7902088
  56.1787844  53.8982201  82.9286957  55.9249449  53.1182289  81.7549896
  56.2581205  53.4587908  80.7857609  55.3417683  51.8134880  81.8360519
  55.1097631  51.2239218  80.9614182  54.7345018  51.4417410  83.0998993
  54.2905521  50.4592943  83.1639767  54.8919916  52.2396660  84.2368126
  54.4701481  51.9426632  85.1856232  55.6234884  53.4701157  84.1415119
  55.6777334  54.0787172  85.0320530  59.1237020  54.2820501  83.7808990
  59.5343494  53.6789227  82.7813244  59.4917202  53.7990713  84.9559212
  59.3662882  54.4229269  85.7402515  60.5373192  52.6971006  85.1130581
  61.1963701  52.6371098  84.2469406  61.5522575  53.0530787  86.1873722
  61.2489986  52.6131153  87.1374035  62.5533485  52.6592684  86.0117531
  61.7390251  54.4701290  86.3066292  61.0882187  54.8548412  86.8982792
  59.9570131  51.3253260  85.1527023  60.1312113  50.5377007  86.1160374
  59.2935705  50.9424782  84.0654564  59.2131138  51.5535450  83.2653141
  58.8740349  49.5396280  83.8288784  58.2088137  49.3339252  84.6674919
  58.0034399  49.4484234  82.5484180  57.1023035  50.0512648  82.6608181
  58.5975456  49.9497080  81.7843151  57.5711012  48.0647993  82.0609188
  58.3975554  47.3783064  81.8770409  56.7159843  47.3264694  83.1450272
  55.9329128  47.9929590  83.5065365  56.2968063  46.4159107  82.7169228
  57.3434162  47.0782614  84.0010834  56.8474197  48.1456900  80.7536888
  55.7873106  48.3831072  80.8426094  57.4129105  48.7374926  80.0339031
  56.9490337  47.1271133  80.3791523  59.9804449  48.4325790  83.8933372
  59.9077654  47.5140858  84.7015762  60.8957291  48.4633017  82.9501152
  60.9262466  49.3023062  82.3886490  61.9503117  47.3942566  82.7532864
  61.5039968  46.4014006  82.8094101  62.7422142  47.5355244  81.3973808
  62.0367336  47.5160217  80.5667019  63.2766771  48.4787750  81.2845612
  63.7079620  46.5410709  81.2090111  63.8601303  46.4896011  80.2625370
  62.8867865  47.4338579  83.9512157  63.3316851  48.5003042  84.3159771
  63.2202101  46.2776232  84.5261574  62.9503441  45.3764200  84.1586018
  64.1551399  46.2610292  85.7192326  63.9283895  47.1674347  86.2805843
  63.8433599  45.0780249  86.7361641  63.7192249  44.1381264  86.1983013
  64.7450352  44.7883368  87.2757626  62.7473879  45.3683996  87.7552414
  62.6228714  44.5451307  88.4586811  63.1288958  46.2238407  88.3127117
  61.4386845  45.8696985  87.1191406  61.5969801  46.7762566  86.5350151
  61.0643387  45.0494623  86.5066147  60.3929853  46.0242033  88.1758881
  60.5090189  45.3858376  88.9499187  59.4058466  46.8366766  88.3311653
  58.8324833  46.9309711  89.5114422  59.3424320  46.4320993  90.2264118
  58.0763626  47.5800133  89.6761322  58.9420605  47.5490999  87.3584270
  59.3802786  47.5203323  86.4488983  58.3010674  48.3033085  87.5594139
  65.6098986  46.2931347  85.3202057  66.4639044  46.1505604  86.2028313
  65.9150267  46.3878345  84.0318584  65.0630045  46.4870834  83.4986496
  67.2090006  46.7100620  83.4451771  67.9958582  46.1282396  83.9252281
  67.1155548  46.2894440  81.9830227  66.6317797  45.3131342  82.0127392
  66.5190887  47.0295715  81.4496040  68.5195017  46.1418009  81.3316536
  68.3222532  45.6912899  80.3589153  69.0297174  47.1038008  81.2832928
  69.5479345  45.1945257  81.9799995  69.4031811  43.9607573  82.0129681
  70.5462027  45.7130098  82.4018002  67.5751877  48.1813622  83.5858917
  68.7850857  48.4207726  83.6256981  66.5493202  49.0606451  83.8061142
  65.6128931  48.6822367  83.8086414  66.6779995  50.5248070  83.8694763
  66.8270636  50.7520580  84.9250507  67.5462198  50.9168625  83.3397770
  65.4161167  51.2825251  83.3673286  64.5818710  50.6805229  82.5847912
  65.1711941  52.5426579  83.7963581  65.8200312  53.1733847  84.9402809
  66.9063091  53.0834484  84.9369335  65.3548098  52.8321218  85.8650589
  65.4462814  54.6255541  84.8171616  66.2483788  55.1992798  84.3528557
  65.2405643  55.0474787  85.8009052  64.2007685  54.7839117  83.9280033
  64.3348932  55.6702900  83.3079720  63.3736324  54.7397518  84.6365166
  64.2655468  53.4837627  83.0635643  63.3017588  52.9748964  83.0472279
  64.8364353  53.8132286  81.7355633  64.0140343  53.9007187  80.8138084
  66.1554384  53.8603210  81.5020275  66.7557430  53.7917137  82.3113632
  66.8415451  53.9353561  80.2055836  66.1552191  54.0154886  79.3625927
  67.6725912  55.2912998  80.1966095  67.0575380  56.0734558  80.6416225
  68.6420870  55.1610899  80.6774712  67.8600597  55.7606792  78.7110949
  68.3496046  54.9290562  78.2042933  66.9372606  55.7554531  78.1309986
  68.7523556  57.3273897  78.3812332  70.3988409  56.8199635  78.9224625
  70.7950878  56.0452414  78.2660437  71.0174036  57.6949406  78.7227201
  70.4636669  56.5177298  79.9677086  67.7027369  52.7002382  79.9754238
  68.6066294  52.4421692  80.7702351  67.4034500  51.8210030  78.9991093
  66.6217613  51.9732380  78.3779097  68.1296015  50.6270170  78.7347794
  69.1719341  50.6136799  79.0533113  67.3992825  49.4972849  79.4392538
  67.3838043  49.6162415  80.5226326  66.3569832  49.3104458  79.1807747
  67.8884077  48.5434866  79.2414331  68.1774712  50.3088760  77.2620630
  67.3643446  50.9057379  76.5649271  69.2092466  49.5653296  76.7204618
  69.9259043  49.2167711  77.3409510  69.4338179  49.3744135  75.3132153
  69.0743303  50.3236055  74.9158335  70.9310627  49.3251228  74.9035072
  71.2284231  48.2793760  74.9815559  71.1486530  49.9261475  74.0205956
  71.5707874  49.8527527  75.6109381  68.5913515  48.1716347  74.7277403
  68.7292147  47.0601130  75.2936077  67.7927160  48.3581257  73.6891747
  67.6239395  49.3007040  73.3679771  67.0197535  47.2511339  73.1202984
  67.2990465  46.3006687  73.5749626  65.5236197  47.4447584  73.3729935
  65.2423525  48.4750938  73.1552744  64.8925686  46.9184732  72.6568270
  64.9504852  47.0462656  74.7049904  63.9531612  46.0732508  74.8650312
  63.7120724  45.4988337  73.9828062  63.3176994  45.8533430  76.0550976
  62.5362635  45.1086998  76.0907698  63.7065983  46.6323853  77.2133207
  63.1967068  46.3246679  78.4574270  63.0212402  45.3932714  78.6101437
  64.7139692  47.6060724  77.0783567  64.9499846  48.2770729  77.8910446
  65.2509785  47.8751373  75.8126974  65.9981251  48.6414289  75.6678724
  67.3759937  47.1614599  71.6140461  67.9915667  48.0348349  71.1020660
  66.9720602  46.0997868  70.9635401  66.3979244  45.4315615  71.4574575
  67.2937632  45.7209253  69.5819807  67.7434015  46.5550900  69.0433693
  68.4308434  44.6184301  69.6669626  69.2245626  44.9872160  70.3166628
  67.8793955  43.2364607  70.1947117  67.1883106  42.8260422  69.4584608
  68.6681843  42.4849558  70.2286816  67.3708773  43.3723497  71.1491966
  68.9470863  44.4769096  68.2412243  69.2728758  45.4302073  67.8250742
  69.7188139  43.7243366  68.0794573  68.1829357  44.1409254  67.5403023
  66.1302280  45.3413391  68.6900568  65.3463316  44.4829893  69.0088940
  65.9650850  46.0379171  67.6127768  66.5904474  46.7797947  67.3323488
  64.9509048  45.7487440  66.6276598  64.0167809  45.5159903  67.1388817
  64.7870111  47.1345568  65.9596300  63.7214375  47.2825432  65.7842684
  65.0730896  47.9087639  66.6715765  65.5032110  47.3266554  64.6120119
  66.3984060  46.6269684  64.1660929  65.1543856  48.4211540  63.9353704
  65.4607534  48.5357761  62.9798031  64.5461321  49.1101694  64.3541670
  65.2099323  44.5619822  65.7010984  66.2619305  43.8922310  65.8371496
  64.2910242  44.2547846  64.7589493  63.0042076  44.9130630  64.5631552
  63.2646084  45.9188366  64.2334414  62.3706150  44.9957466  65.4462290
  62.3063612  44.1937017  63.3675098  62.7229023  44.5585346  62.4286318
  61.2186718  44.1962576  63.4384298  62.8367329  42.8177309  63.5832977
  62.6559782  42.1221161  62.7638149  62.2515154  42.4128246  64.4089317
  64.3204689  43.0108929  63.9859247  64.6136475  42.1761990  64.6226549
  65.2418613  43.0747652  62.8002691  65.5003929  42.0488167  62.2351074
  65.8543301  44.2152119  62.4806643  65.4734230  45.0142050  62.9671001
  67.0937300  44.4096375  61.7217064  67.1507072  43.5539484  61.0489082
  66.9451237  45.5496359  60.7416773  66.8412876  46.5125465  61.2417984
  67.7603722  45.6299973  60.0226402  65.6856012  45.2717829  59.9152422
  65.5364370  44.2013550  59.0202808  64.3129826  44.1497421  58.6014366
  63.9110518  43.4358788  57.8976965  63.7022495  45.2564335  59.1170359
  62.7535725  45.4905272  58.8614607  64.5355988  46.0143328  59.9257278
  64.2877626  46.9293737  60.4431200  68.4130192  44.4561338  62.5465870
  69.4815636  44.4575691  61.9481277  68.3219862  44.3643951  63.8546515
  67.4690199  44.6413755  64.3192387  69.4641018  44.2677593  64.7351360
  69.1898489  43.9216185  65.7316589  70.1254272  43.4695435  64.3980789
  70.3175783  45.5620193  64.8996878  71.4389420  45.5309486  65.3544664
  69.7419548  46.7393875  64.5373964  68.9189625  46.6245890  63.9632893
  70.0549555  48.0368805  65.1166725  71.1257553  48.2315397  65.0565863
  69.4076633  49.1995382  64.2726994  68.3309317  49.0303421  64.2615652
  69.5826340  50.1648474  64.7477388  70.0876093  49.1274023  62.9090214
  71.3854027  49.6967363  62.7557278  71.8324757  50.1795149  63.6121464
  71.9832230  49.7537708  61.4813089  72.9483461  50.2051306  61.3046265
  71.4058733  49.0846777  60.4129839  72.0442057  49.0167522  59.2003584
  72.9661512  49.2275381  59.3652439  70.1005030  48.4772491  60.5887270
  69.6777201  47.8641939  59.8065376  69.4628906  48.5543108  61.8288326
  68.4483671  48.1840181  61.8332815  69.5819807  48.1253433  66.5687847
  68.5150433  47.6854658  66.9470644  70.4884815  48.6764765  67.3972845
  71.3384676  48.9426708  66.9210911  70.2398205  48.8795090  68.8081408
  69.3335772  48.3775902  69.1471052  71.5199614  48.4168530  69.6271181
  72.2892952  49.1487217  69.3809700  71.2805700  48.5620689  71.1479139
  72.1354246  48.0391598  71.5767384  71.2910891  49.6088600  71.4515877
  70.3990173  48.0023432  71.4604425  72.0686293  47.0099068  69.1637850
  72.7466536  46.5133381  69.8579121  71.1428404  46.4373732  69.1070461
  72.5537777  47.0422220  68.1882381  70.0345135  50.2713251  69.1883421
  70.6511593  51.1331940  68.5476494  69.2454052  50.5566168  70.2296305
  68.7312889  49.7684717  70.5965281  68.8237906  51.8695307  70.6406641
  69.5404482  52.6012707  70.2677631  67.4325371  52.0819998  70.1338196
  66.7763424  51.2360716  70.3385687  67.0257521  52.9683685  70.6206226
  67.3497820  52.2961521  68.6642313  67.1864939  53.5565948  68.0797052
  67.0337486  53.2943201  66.7471313  66.7527103  53.9758730  65.9578848
  66.9705057  51.9958162  66.5481758  66.9399309  51.5429974  65.6458902
  67.2719383  51.3598824  67.7173615  67.2832584  50.2859020  67.8307056
  68.7870359  51.9639826  72.1820450  68.3723927  50.9714079  72.7724743
  69.2295170  53.0184460  72.7831316  69.4919634  53.7918186  72.1888924
  68.9704227  53.2857609  74.2102194  68.8825226  52.4175072  74.8632956
  70.1615906  53.9881659  74.8571730  70.4839563  54.8599577  74.2878246
  69.7849607  54.3746328  75.8042192  71.4220572  53.1783724  75.2500057
  71.1392403  52.5582218  76.1006117  71.6753912  52.5971460  74.3633842
  72.6356745  54.0805387  75.5664968  73.3466721  54.4203615  74.5755196
  72.8635693  54.4760656  76.7284012  67.6218891  53.9499140  74.4513798
  67.3503065  55.0446415  73.9530849  66.7077303  53.2157803  75.0720072
  66.9132185  52.3426390  75.5362225  65.2622747  53.5501671  75.0661469
  64.9952984  54.4233036  74.4707870  64.3849707  52.3809910  74.7497225
  64.5990181  51.6684198  75.5462933  62.9419279  52.7507353  74.8452902
  62.6982975  53.4992647  75.5992413  62.6382971  53.1999159  73.8996983
  62.3765850  51.8576527  75.1115274  64.7347593  51.6461658  73.4349298
  65.7765579  51.3435936  73.3290768  64.1151762  50.7910681  73.1646919
  64.5878696  52.6261187  72.2966957  63.5139179  52.7627373  72.1699286
  65.0258207  53.6120415  72.4524593  65.1266623  52.2054529  71.4476681
  64.9333668  54.0660000  76.4601517  64.9286079  53.3364916  77.4470186
  64.7330141  55.4332924  76.5353251  64.8732615  55.8903885  75.6456661
  64.1439199  56.2133265  77.6899242  64.5308828  55.7618237  78.6034393
  64.4927311  57.7194643  77.6549196  65.5053997  57.8835154  77.2865582
  63.9142036  58.0304193  76.7850256  64.0726233  58.5285807  78.9557409
  63.0794287  58.1946135  79.2559671  65.2081394  58.2354307  80.0183487
  65.3036833  57.1628618  80.1873684  66.1805773  58.5855961  79.6721506
  65.0993919  58.7989807  80.9450054  64.0319443  60.0085068  78.6963081
  65.0358152  60.3526783  78.4475040  63.2660103  60.3895807  78.0208635
  63.8802433  60.5537033  79.6278906  62.6355934  55.9741926  77.7493572
  61.9170332  56.3255978  76.8734217  62.1355724  55.3654957  78.8638258
  62.8337574  55.1281166  79.5539618  60.7797241  54.9165154  79.0510893
  60.3419209  54.8516560  78.0549812  60.7823038  53.5988188  79.7793722
  61.0545349  53.8466167  80.8053303  59.4632387  52.7949333  79.7008467
  59.0905619  52.8173637  78.6767769  59.6079969  51.7289352  79.8763037
  58.7356091  53.2574463  80.3677368  61.7513275  52.7562714  79.2363310
  62.6158333  53.0309725  79.5506096  60.0516367  55.9516954  79.9286270
  60.4614305  56.3396597  81.0088158  58.9085150  56.4849901  79.4563818
  58.6951876  56.3205004  78.4829664  58.2908010  57.7329016  79.9560022
  58.6061811  58.0087423  80.9622574  58.8605118  58.9041567  79.0909719
  58.6551523  58.6237526  78.0578709  58.1075335  60.1738739  79.3987513
  58.6088896  60.9612370  78.8359022  57.0831585  60.1144600  79.0310097
  58.1419134  60.4146051  80.4612827  60.3359365  59.1668081  79.3468428
  60.6854534  59.8811436  78.6014175  60.5051804  59.5988131  80.3331661
  60.9221077  58.2526779  79.2526865  56.7780972  57.6597548  79.7753572
  56.3496828  57.2711515  78.6978674  55.9079266  58.0008316  80.7936859
  56.2531567  58.2978296  81.6951847  54.4738483  57.8408384  80.5953217
  54.2969418  56.8079472  80.2954197  53.8839245  58.0796623  82.0191383
  54.2679453  57.3650980  82.7471638  54.1475630  59.0985012  82.3029900
  52.4104977  57.9232979  82.1380806  51.6870689  58.9118910  82.7642155
  52.1316051  59.8587894  83.0328655  50.2941275  58.6772251  82.9069042
  49.6737003  59.3992424  83.4169674  49.6499252  57.4135208  82.5569248
  48.3176279  57.2421598  82.7016449  48.1661224  56.3607931  83.0506992
  50.4944277  56.4065695  82.0169926  50.1776981  55.4777050  81.5661049
  51.8585443  56.6883612  81.7827988  52.5282431  55.9409428  81.3837051
  53.8661242  58.8759565  79.5774651  52.8379917  58.5564804  78.9972639
  54.4682693  60.1042366  79.4123840  55.2078009  60.2391100  80.0869274
  53.8936090  61.0214806  78.4610891  53.4761000  60.4110956  77.6603317
  52.7950525  61.9055557  79.1464472  52.5541449  62.7478075  78.4978533
  51.9301414  61.2438297  79.1928101  53.1379795  62.3948622  80.5748940
  53.2778311  61.5311813  81.2249756  54.1133928  62.8723001  80.6682587
  52.0297098  63.2848024  81.1046124  51.9734049  64.2400980  80.5827332
  51.1106491  62.7692127  80.8260536  52.0319033  63.4767389  82.6282978
  52.0515442  62.5126648  83.1365013  52.9728794  63.9867067  82.8346920
  50.9195900  64.4519758  82.9125977  50.0190306  64.1892719  82.5383186
  50.7077837  64.5204592  83.8977623  51.1154938  65.3645897  82.5267696
  54.8639679  61.9503546  77.7288389  55.9232187  62.2192907  78.2309628
  54.5338964  62.3273039  76.4906979  53.6160421  62.0613909  76.1636829
  55.4432297  63.1462479  75.6394053  55.9821987  63.7582350  76.3626528
  56.4611816  62.2603369  74.8680830  56.8350744  61.3848734  75.3990030
  56.1503792  61.8324852  73.9149570  57.3542643  62.8736115  74.7480917
  54.5973730  64.0451479  74.7125912  53.8345623  63.5528517  73.8270283
  54.6544600  65.3796291  74.8286772  55.3584909  65.7519674  75.4498148
  53.9748383  66.3796949  73.9979792  52.9487991  66.1081886  73.7497187
  53.9376497  67.6848602  74.8440981  53.9691257  67.4343586  75.9044552
  54.8701811  68.1819105  74.5768261  52.5064373  68.6905384  74.2691183
  53.1201410  69.8145628  74.6496916  54.7039890  66.6339779  72.6556730
  55.8424807  66.2553072  72.4808693  53.9835167  67.2187328  71.6987705
  52.9956818  67.4051714  71.7963219  54.5499945  67.7039576  70.4546976
  53.7334681  68.0733156  69.8342466  55.5017328  68.8572311  70.6487989
  56.4166451  68.4810781  71.1065578  55.7390642  69.3310213  69.6962786
  54.9313688  69.9537277  71.5601730  53.8020086  70.4600716  71.4099598
  55.7571554  70.4874039  72.4599504  55.4259682  71.2578821  73.0227804
  56.6652203  70.0685167  72.6015472  55.1675987  66.6392565  69.5078135
  55.9398556  67.0000744  68.6169052  54.7555590  65.3904915  69.6186018
  54.0019798  65.1351595  70.2407122  55.2470684  64.3529463  68.6400747
  56.1474180  64.6405697  68.0971670  55.6887579  63.1074858  69.4106865
  54.8682070  62.6126289  69.9302292  55.9470224  62.4062681  68.6171532
  56.8426180  63.2695103  70.4409170  56.6477013  64.0218258  71.2052011
  57.0281649  61.9710732  71.1881351  56.1168385  61.4180136  71.4155436
  57.8137732  61.3319302  70.7851219  57.3354626  62.2845697  72.1858263
  58.1198549  63.6705160  69.7102928  58.9470625  63.4924936  70.3974199
  58.2197905  63.1667137  68.7488890  58.1021261  64.7467279  69.5383930
  54.2098427  63.9417601  67.6260424  53.0393267  63.8322735  67.9442120
  54.6354914  63.7115908  66.4244795  55.6428432  63.6626720  66.3701534
  53.7357426  63.2142210  65.3584766  52.7076912  63.5262871  65.5424023
  54.2074442  63.8387299  64.0419292  54.0428019  64.9129057  64.1264582
  55.2400637  63.5362244  63.8678885  53.4198999  63.2640648  62.8899288
  52.1815777  63.2350540  62.8346157  54.1010952  62.7136564  61.9500065
  53.6244535  62.4697447  61.0936117  55.0390816  63.0339289  61.7558146
  53.7069225  61.7033720  65.1946688  54.7379351  61.0191822  65.1260805
  52.4997997  61.1011648  65.0323582  51.6672230  61.6728783  65.0243044
  52.4253273  59.6661854  64.9010849  53.3713913  59.2447090  65.2408361
  51.2551832  59.1228580  65.7581139  50.2885914  59.4819307  65.4047585
  51.3063383  58.0526257  65.5579042  51.2343454  59.4218254  67.2298431
  51.0400963  60.4767609  67.4234343  50.3005695  58.5408449  68.0349922
  50.5361414  57.5046301  67.7923536  50.4022837  58.8905430  69.0623522
  49.3002367  58.7593269  67.6612282  52.6408529  59.0075731  67.7922916
  52.8352976  57.9429197  67.6626730  53.5772991  59.3485832  67.3508310
  52.6846075  59.2716980  68.8489056  52.2296429  59.2854548  63.3753633
  51.3944960  59.9057007  62.7232647  53.0797911  58.4126949  62.9087639
  53.8203144  58.0450916  63.4889269  53.2862997  58.2249403  61.4359236
  52.4538374  58.7525415  60.9703636  54.6373940  58.9656162  61.1090517
  54.5061541  60.0156021  61.3705969  55.8896351  58.4943771  61.9418240
  55.7409286  57.4881887  62.3337173  56.8150997  58.5272789  61.3668966
  55.8291006  59.0734005  62.8633308  54.9818611  58.7060976  59.5878077
  55.5018377  57.7537346  59.4842148  54.0475798  58.6519194  59.0289783
  55.8194876  59.8655224  58.9955235  56.1181164  59.6711445  57.9654121
  55.1987171  60.7605791  58.9551449  56.7321014  60.0170326  59.5719624
  53.2525826  56.7464447  61.0161734  53.6302805  55.8129120  61.7340851
  52.7754736  56.4460468  59.8005962  52.3841238  57.2759581  59.3784618
  52.3045397  55.0959301  59.3048429  51.9322205  55.0519228  58.2813501
  53.2237387  54.5111799  59.2694998  51.3748646  54.3418789  60.1630068
  50.7208014  54.9258661  61.0265779  51.2008715  53.0311203  59.9123764
  51.8076134  52.6332617  59.2097569  50.1963234  52.1605253  60.5315113
  49.1508198  52.4188232  60.3632545  50.2769375  50.8093977  59.7938919
  51.3120985  50.4776335  59.8743868  49.7437859  50.0230026  60.3281546
  49.7402096  51.0033846  58.3368349  48.6712551  51.1895561  58.4406328
  50.2117395  51.8070745  57.7712917  49.8733091  49.6950293  57.5287962
  49.3293524  48.9016533  58.0414057  49.4947386  49.7902060  56.5110922
  51.3198185  49.4186068  57.3251390  51.9877720  50.1523161  57.5138330
  51.8543243  48.2515001  56.9881487  53.2304478  48.2285690  56.9200611
  53.8052559  48.9783669  57.2771358  53.6644220  47.3305893  56.7606831
  51.1513662  47.1524143  56.8152285  50.1694918  47.1479416  56.5785789
  51.6805601  46.3272619  56.5719557  50.5567122  51.7915249  62.0012379
  51.7919779  52.0111895  62.4017763  49.5888186  51.1758709  62.7135420
  48.1411791  51.2580204  62.5064373  47.8795004  50.7592916  61.5732241
  47.7995110  52.2930574  62.5142384  47.4489307  50.5130291  63.6876678
  47.2566319  49.4473600  63.5632658  46.5568781  51.0551882  64.0013599
  48.5891008  50.6339645  64.7376204  48.5071850  49.7544861  65.3762913
  48.4597397  51.5748644  65.2724743  49.8722935  50.5112600  63.9952660
  50.6535292  51.0353470  64.5458174  50.3528786  49.0554333  63.7048244
  50.0878239  48.4720182  62.6681995  51.0096073  48.4178591  64.6941900
  51.0616732  48.9367723  65.5591297  51.5621614  47.0437527  64.6424150
  50.9630251  46.2924671  64.1279173  52.8443480  47.0886326  63.8571072
  52.5553608  47.1546030  62.8081846  53.4107590  47.9695797  64.1591167
  53.6118937  45.9099436  63.9246607  54.1039658  45.7686996  63.1125498
  51.9463921  46.5177393  66.0192585  51.9113874  47.2634840  66.9952917
  52.2352409  45.1878262  66.1411333  52.3185301  44.7985458  65.2128983
  52.6809597  44.4394445  67.2732306  53.0220890  45.2077913  67.9670477
  51.6016006  43.6412048  67.9785538  51.9676924  43.0871010  68.8428783
  50.3745937  44.4465971  68.3341932  50.0729609  45.1455593  67.5540829
  49.5440435  43.7662554  68.5224056  50.5087662  45.0030708  69.2617893
  51.0436344  42.7677536  67.0779133  50.5466938  43.2312918  66.3998413
  53.9417744  43.5461473  66.9189501  54.3905020  42.8165722  67.7434969
  54.4752216  43.6778212  65.7302046  54.0340757  44.3682671  65.1396322
  55.6950903  42.9280138  65.1938248  55.5770350  41.8721294  65.4372692
  55.7920170  42.9736710  63.6850643  55.7620144  44.0200281  63.3812094
  56.7675161  42.5731373  63.4092379  54.7188044  42.2399187  62.9723358
  53.7555075  42.6599932  63.2616568  54.7846222  42.4702787  61.9089842
  54.7358322  40.7030106  62.9984808  54.2702627  40.0195026  63.9856577
  55.1716423  40.1639557  61.9391680  57.0291948  43.3460665  65.8913469
  57.2365856  44.5282173  66.1128426  57.7809477  42.3408842  66.3972855
  57.3670530  41.4223051  66.3265848  58.9042902  42.4709749  67.3054886
  59.0115690  41.4823532  67.7518225  60.1808071  42.7482080  66.5468502
  60.0579214  42.3285389  65.5484152  60.3316498  43.7811470  66.2331867
  61.4775848  42.3939323  67.2269487  62.0828581  41.1375237  67.2446108
  63.3128929  41.3380718  67.7698278  64.0267038  40.5881548  68.0772448
  63.4642410  42.6674747  68.0160236  64.3412828  43.0930614  68.2801580
  62.3237944  43.3509016  67.6732540  62.1930933  44.4165421  67.7904081
  58.6143589  43.4767723  68.4746313  59.4840813  44.2647505  68.8040495
  57.4182177  43.4147978  69.1084671  56.7021608  42.8150320  68.7242222
  57.1414232  44.1550064  70.3392410  57.2646809  45.2186728  70.1354885
  55.7220745  43.9920235  70.8339214  55.1205635  44.3545151  70.0003290
  55.4717922  42.9529428  71.0478544  55.5415392  44.8053551  71.9919491
  54.6819496  45.2327681  71.9869709  58.1369400  43.7596941  71.4664459
  58.3162546  42.6012707  71.7575359  58.7211370  44.7610950  72.0741510
  58.5466290  45.6935930  71.7276049  59.6989584  44.7151136  73.1655836
  60.3463125  43.8568163  72.9856968  60.5023718  46.0753059  73.1155777
  59.8435593  46.9253445  72.9380941  60.9952736  46.2061787  74.0789175
  61.5753222  46.2084150  72.0759249  62.2209263  45.1802731  71.4780045
  62.0618868  44.1254902  71.6469622  63.0708742  45.7098103  70.4908419
  63.7239170  45.1851988  69.9265575  63.1299591  47.0781326  70.5146933
  63.7708092  48.0427647  69.7173166  64.4162512  47.6710653  68.9352322
  63.5478926  49.3886805  70.0008345  63.8935089  50.1444054  69.3110228
  62.7385092  49.7435045  71.0725594  62.5324011  50.7804537  71.2931395
  62.1821499  48.7529993  71.9016552  61.5439129  49.0610790  72.7166080
  62.2261381  47.3653936  71.5386629  58.9070559  44.4235802  74.4474173
  59.4469500  43.6955214  75.2876854  57.7170229  45.0021458  74.7360706
  57.3346710  45.2870798  73.8457203  56.9754934  44.9200010  76.0674047
  57.6859331  44.4234514  76.7283344  56.7936325  46.3831568  76.4529800
  56.1792564  46.9872379  75.7853460  56.2396955  46.1899900  77.3716402
  58.0379677  47.2219849  76.7509651  58.6395168  47.1534157  77.9861879
  58.2934237  46.5400791  78.8049889  59.8714018  47.9121017  78.1299353
  60.3583574  48.0053091  79.0894079  60.5165100  48.3761215  77.0396376
  61.4345169  48.9363861  77.1384382  59.8773956  48.4313011  75.7729197
  60.3976822  48.8727856  74.9357843  58.6379719  47.8737116  75.6904173
  58.1455135  47.8500271  74.7295189  55.6167841  44.0122032  76.0506582
  54.9039268  44.0517902  75.0454569  55.3466892  43.2187748  77.0818520
  56.0209942  43.2907867  78.4076881  56.2104130  44.3479729  78.5936356
  56.8595314  42.6098061  78.2619810  55.1156855  42.4894905  79.3084002
  54.3455744  43.2437801  79.4698620  55.5310726  42.1258783  80.2482605
  54.5711851  41.4153910  78.3658266  53.7567806  40.8593893  78.8302755
  55.3198147  40.6461239  78.1763744  54.3049860  42.1791506  77.0551443
  54.3441963  41.4511681  76.2448311  52.8566837  42.7206039  76.9496584
  52.3605680  43.4478521  77.8421497  52.1474934  42.4864674  75.8741713
  52.5231695  41.8707800  75.1671410  50.8065176  42.9916286  75.6151342
  50.3333139  42.3842907  74.8435640  50.2418613  43.0319595  76.5466022
  50.7453537  44.3598843  74.9685574  49.7098589  44.9499750  74.8830700
  51.8708992  44.9371815  74.4849539  52.6893854  44.3512201  74.5675373
  52.0144606  46.2973404  74.0110731  51.0704660  46.8359041  74.0942955
  53.1448030  47.1028423  74.7129822  54.0671206  46.5260363  74.6442461
  53.3336306  47.9865265  74.1034365  52.8540421  47.5167131  76.0803986
  53.2594681  46.6847610  77.1478224  53.7863302  45.7681513  76.9272566
  52.7652979  46.9937897  78.4238577  53.1190825  46.3447618  79.2112589
  51.9329929  48.0949926  78.7268877  51.3727522  48.1484079  79.9566126
  50.7635117  48.8861513  80.0351048  51.4903641  48.8185930  77.6289940
  50.7037926  49.5350313  77.8145313  52.0012236  48.6075735  76.3196802
  51.7586374  49.2205334  75.4642105  52.1624708  46.3806581  72.4868155
  53.2038641  45.8919811  71.9495153  51.1659622  46.9116449  71.7822075
  50.4111338  47.2767973  72.3452330  51.2612104  47.4820518  70.4099894
  51.7078924  46.7483664  69.7389555  49.8709869  47.7637196  69.8915625
  49.3983030  46.7897177  70.0180149  49.4342613  48.5811377  70.4653263
  49.8398209  48.0973577  68.8543510  52.1021986  48.8345337  70.2945852
  52.2009563  49.5064783  71.3344049  52.7856350  49.1739225  69.1757965
  52.6881123  48.4687614  68.4593201  53.6334944  50.2576494  68.9350510
  53.6078930  50.8139801  69.8720360  55.0167131  49.7035456  68.8154984
  55.6561661  50.5405378  68.5350704  55.2345371  49.2921448  69.8010969
  55.2783298  48.6293364  67.8313160  55.2898645  47.3147392  68.0725098
  55.1204920  46.8908882  69.0513182  55.7391691  46.6566753  66.9173336
  56.2193727  45.7837105  67.0829678  55.9302330  47.4949360  65.8435535
  56.3725328  47.2807360  64.5091152  56.6063070  46.2955475  64.1334200
  56.4679337  48.4467316  63.6463594  56.7695236  48.3453512  62.6142883
  56.1492825  49.6923304  64.1895866  56.1211729  50.5750656  63.5679817
  55.8083630  49.8745060  65.5477238  55.4850245  50.8449125  65.8943653
  55.6788588  48.7285376  66.4045715  53.0889750  51.1424494  67.7917242
  52.4923468  50.7692194  66.7629051  53.2878113  52.4599648  67.8974771
  53.7798548  52.8014565  68.7107325  53.2884264  53.3905935  66.7779016
  53.2404947  52.7821922  65.8747673  52.0354080  54.2796516  66.7851877
  52.0071840  54.7681427  67.7591896  52.0673323  55.3604412  65.6597757
  52.0164061  54.8738289  64.6857595  51.1583185  55.9614468  65.6838512
  52.9115343  56.0366392  65.7946062  50.8879662  53.5444641  66.5483761
  51.0867167  52.6496506  66.8337107  54.5068026  54.3002176  66.9048595
  54.7951365  54.9291706  67.9240417  55.3020477  54.4040585  65.8349895
  54.9995756  53.7837839  65.0975132  56.3750124  55.3982019  65.5831480
  57.1042013  55.1517487  66.3549280  56.9344950  55.2153826  64.2069769
  56.1851454  55.4298067  63.4450054  58.0178356  56.2680817  63.8451004
  58.8104677  56.2196732  64.5917511  58.2833385  56.2545204  62.7880192
  57.5347900  57.2376347  63.9665031  57.5588655  53.8446426  63.9879560
  57.9363203  53.8648081  62.9655886  58.3963966  53.6576319  64.6600199
  56.7867470  53.0909061  64.1422939  55.9790897  56.8757153  65.8390665
  54.9482393  57.3828363  65.3616381  56.8742371  57.5835323  66.5301037
  57.6895332  57.1160460  66.9000387  56.6983891  58.9840841  67.0073414
  55.7465029  59.3334341  66.6073751  56.5382671  58.8047600  68.5131264
  57.4551773  58.4078217  68.9488029  56.5286160  59.7870016  68.9855814
  55.5624056  58.3427143  68.6624718  57.8513670  59.9489355  66.5192127
  59.0665102  59.7079372  66.8194103  57.5899696  61.0642672  65.8565807
  56.6284990  61.1899233  65.5739450  58.6123848  61.9346571  65.2251577
  59.6500587  61.6463423  65.3931189  58.4170055  61.8657780  63.6938620
  57.3740816  62.0708466  63.4523106  59.0641785  62.6269197  63.2580519
  58.7028074  60.4204941  63.1964111  59.6571779  60.1956749  63.6725760
  57.9507589  59.7464609  63.6065340  58.9443922  60.3622770  61.6962433
  58.5680389  61.2273312  60.9072685  59.6552992  59.3859577  61.2514400
  59.8426390  59.2439318  60.2691793  60.0788546  58.7543297  61.9160795
  58.4274769  63.3436728  65.6454086  57.3724556  63.8085890  65.9918356
  59.4872999  64.1349411  65.5465078  60.2801180  63.7459278  65.0563955
  59.4785881  65.6270552  65.7814789  59.0446663  65.8161926  66.7633343
  60.9015656  66.1329317  65.7832956  61.5884209  65.5912018  65.1330233
  61.3954973  65.9145308  66.7300987  61.0627127  67.9978466  65.5346966
  58.4879398  66.2804317  64.7583485  58.5046768  65.9055901  63.5723925
  57.6605606  67.2281075  65.2262878  57.6813126  67.3348856  66.2304115
  56.7787313  68.0910158  64.4996500  55.9018803  67.5545454  64.1371155
  56.3949776  69.2373848  65.4967403  56.0311413  68.8446903  66.4462233
  57.3127365  69.8006201  65.6658030  55.2356195  70.0778246  65.0178909
  55.4765892  70.5504656  64.0657139  54.3235826  69.4957972  64.8854542
  54.9354410  71.1798000  66.0845327  54.7970104  70.6890106  67.0478916
  55.7737970  71.8733978  66.1492825  53.6831999  71.9338560  65.7721901
  53.8599253  72.4677467  64.8384666  52.8272343  71.3091230  65.5169630
  53.2831383  72.8552628  66.8454695  53.4124613  72.4674034  67.7690220
  53.7622213  73.7442780  66.8609238  52.3140955  73.1366587  66.8022442
  57.5265980  68.7047863  63.3213377  56.8516302  68.9343023  62.3367214
  58.8050222  69.0997219  63.4595442  59.3410683  68.7144089  64.2239332
  59.4997931  70.0956917  62.4926472  58.7025070  70.5860567  61.9340944
  60.3158617  71.1784744  63.2960033  61.1080217  70.7989979  63.9414310
  61.0011625  72.1639872  62.3532295  61.6652489  71.5964746  61.7012930
  60.3201294  72.5980806  61.6212034  61.4936876  73.0052996  62.8407860
  59.3201447  71.9942141  64.1092157  58.9252806  71.2771559  64.8289490
  59.9382401  72.7642775  64.5707941  58.1620693  72.6838303  63.3951378
  58.5156584  73.5924673  62.9078484  57.4742842  72.1442938  62.7440262
  57.4997282  73.0795622  64.1650724  60.3555918  69.3569040  61.5049076
  60.1783276  69.4956970  60.3320074  61.2286139  68.5136318  62.0249128
  61.2513494  68.4956551  63.0345011  62.3195553  67.8922558  61.2311602
  62.2772169  68.3594322  60.2472639  63.5901260  68.2913780  61.8705606
  63.6125708  69.3386412  62.1719646  64.3857050  68.1607199  61.1370182
  64.1156483  67.1847677  63.1838274  62.1200180  66.3965416  60.9616852
  62.8968477  65.8419180  60.1379156  61.1041451  65.8174038  61.5706730
  60.4945040  66.3757324  62.1509409  60.7921791  64.4389582  61.3111448
  60.1392746  64.1746187  62.1429729  60.1572704  64.2912197  59.8809528
  59.2789555  64.9320555  59.8035240  60.8913279  64.4045734  59.0831995
  59.7612572  63.2758331  59.8646879  61.9960642  63.5091972  61.6254520
  62.1545458  62.4589729  61.0075426  62.8670979  63.9439726  62.5322485
  62.7586937  64.8631382  62.9365778  63.7524176  62.9893970  63.1962919
  64.2167902  62.4557734  62.3670149  64.8115158  63.6913490  64.1196489
  65.3274202  64.4343138  63.5114098  64.3593788  64.1101265  65.0187016
  65.7536459  62.7723980  64.5775938  66.2985516  63.1680298  65.2618170
  62.8941870  61.9529057  63.9489555  61.8497229  62.1909428  64.4720745
  63.4310818  60.7035875  64.0233231  64.2805290  60.5078840  63.5131884
  62.7324438  59.6305799  64.7763729  61.6532660  59.7644377  64.7017860
  63.1389046  58.2512856  64.1621351  62.6911736  58.1928682  63.1700563
  64.2282581  58.2140255  64.1678905  62.5968170  57.0607758  64.9300623
  61.3085842  56.5436745  64.6833992  61.2080765  55.4973316  65.5206203
  60.3559828  54.8413229  65.4206228  62.2948980  55.3215218  66.2440538
  62.3897171  54.7954082  67.1009779  63.2695818  56.2612534  65.8251810
  64.2447090  56.5108299  66.2166405  63.0659103  59.6450901  66.2550879
  64.1927624  59.2202950  66.6930056  62.1876287  60.3328657  67.0416451
  61.2806892  60.5120659  66.6348839  62.3302412  60.4218340  68.4890938
  63.3364677  60.6375265  68.8483715  61.5310335  61.6337442  69.0840387
  60.4618502  61.5483236  68.8900089  61.5560389  61.6832590  70.5973101
  60.9303141  60.8429575  70.8980703  62.5715446  61.4182520  70.8916330
  61.0638142  62.5561810  71.0260630  61.9953060  62.9682779  68.3464193
  62.0319033  62.9158735  67.2582912  61.3103485  63.7705755  68.6207438
  63.3134222  63.6074972  68.8132286  63.3242369  63.7052584  69.8987818
  64.0990353  62.9554462  68.4314585  63.3965302  64.5409584  68.2565880
  62.0587492  59.0677309  69.2326975  62.7011347  58.7940502  70.2420712
  61.2112188  58.2295179  68.6597204  60.7586670  58.5045195  67.7996826
  61.0294628  56.7992592  69.1150188  61.7632198  56.3373375  68.4544611
  61.3379622  56.6224051  70.1453829  59.6384239  56.3007212  68.8005161
  59.1202021  56.4053631  67.7204084  59.0616846  55.7482433  69.8846579
  59.4746017  55.8278036  70.8029556  57.8161860  54.9331284  69.8015881
  57.3481894  55.2226973  68.8607168  58.1607914  53.4754419  69.7746944
  58.5779953  53.1598997  70.7309723  57.2680759  52.8540230  69.7040129
  59.0806866  52.9623032  68.7178802  58.7178898  52.4389982  67.5220251
  57.7001858  52.3790789  67.1655273  59.7777224  52.0143032  66.8168831
  59.6796417  51.7093849  65.8590174  60.9975290  52.3135281  67.4142265
  62.3282194  52.2003126  67.0500994  62.6207829  51.5730667  66.2210226
  63.2932901  52.8061771  67.8087664  64.3266058  52.8781748  67.5030279
  62.9091167  53.4672642  68.9876795  63.7383413  53.9460707  69.4872141
  61.6059685  53.5947752  69.4019079  61.4377928  54.0830278  70.3504467
  60.5674410  52.9714632  68.6158228  56.8180227  55.2517033  70.9578800
  57.2028542  55.2841520  72.1494007  55.4286432  55.3336763  70.6522083
  55.0787354  55.2582979  69.7077608  54.3598223  55.1685381  71.6815090
  54.7782660  55.4950190  72.6335669  53.1064749  56.0771179  71.3385344
  53.4220934  57.0578766  70.9827137  52.4005270  55.5885983  70.6669092
  52.1995544  56.3823271  72.6195383  51.6914225  55.4458189  72.8494406
  52.8282547  56.6410542  73.4715319  51.1988258  57.4716568  72.2927952
  51.7321587  58.3224630  71.8687773  50.4925013  57.0302343  71.5896940
  50.4085112  57.7563190  73.5712481  49.9449635  56.7881203  73.7604904
  51.0616589  58.1138611  74.3672752  49.3917751  58.7830925  73.2570934
  48.7070417  58.8280249  73.9981890  49.7410250  59.7305250  73.2347918
  48.8300228  58.5266447  72.4578619  53.9704323  53.6994028  71.7841864
  53.6139631  53.0774021  70.8149338  54.0817547  53.2316637  73.0095673
  54.3127966  53.9175892  73.7140036  53.5291100  51.8799543  73.3572197
  53.4398317  51.2781382  72.4528122  54.5142412  51.2271595  74.2713356
  54.7140026  51.9670963  75.0463772  54.1440916  50.3673029  74.8296642
  55.8151722  50.8201408  73.6567068  57.0521975  51.3909674  74.0097380
  57.1324968  52.1537352  74.7700882  58.2063818  51.0148668  73.3433247
  59.1458273  51.5031624  73.5564232  58.2148361  49.8852491  72.5410366
  59.1874981  49.5176315  72.2491550  57.0214224  49.1652632  72.3123121
  57.0240498  48.2561684  71.7292643  55.7956076  49.6595764  72.8077936
  54.8295784  49.2349863  72.5777531  52.1865034  51.8994713  74.0200090
  51.9783974  52.6341438  74.9752140  51.2123775  51.1014032  73.5909367
  51.2362051  50.5963755  72.7165890  49.9074221  51.0685968  74.2011690
  49.9548912  51.5336895  75.1858187  48.7641764  51.7722797  73.3276939
  47.8072929  51.5254736  73.7876558  48.8736343  53.2943439  73.3454657
  48.6340714  53.6566210  74.3451977  49.8409796  53.7052393  73.0564690
  48.0915022  53.6678362  72.6844978  48.7610531  51.3605785  71.9429445
  49.1733599  52.1509695  71.5867329  49.4995737  49.6409321  74.4229698
  49.8181295  48.8193130  73.5403252  48.8355017  49.2904854  75.5472946
  48.5996914  49.9821615  76.2444878  48.2688475  47.9281950  75.7633400
  49.1163588  47.2435474  75.7304192  47.4952126  47.9695415  77.1576500
  48.2233906  48.0394936  77.9657125  46.8691301  48.8609171  77.1971703
  46.8349695  47.1030664  77.1950006  47.3143673  47.5840330  74.6035814
  46.6332102  48.4985113  74.1105318  47.2186852  46.2873888  74.2635489
  47.8428888  45.6568289  74.7461033  46.3529921  45.8485460  73.1005955
  46.3185215  46.5839100  72.2967577  46.9180727  44.5056963  72.4464035
  46.1161184  44.2307711  71.7612839  48.3447886  44.5988131  71.8710470
  48.5711670  43.6231136  71.4410925  48.3486938  45.3307295  71.0633421
  49.1534901  44.7456408  72.5869751  46.9587708  43.5960102  73.5393572
  47.0999908  42.7574444  73.0938625  44.8558378  45.5434084  73.5539770
  44.0786362  45.0460434  72.7865267  44.5176172  45.7330990  74.8464060
  45.2256441  46.0447741  75.4957581  43.2091236  45.2676630  75.4028845
  42.4409151  45.3621292  74.6354008  43.3243752  43.7120628  75.8341265
  42.3401308  43.4047174  76.1875439  43.4463549  43.0270815  74.9950695
  44.4795132  43.5061026  76.8982220  45.4307270  43.8507986  76.4926577
  44.3645096  44.1055155  77.8013134  44.3435860  42.0415783  77.4501944
  43.4070015  41.9492340  78.0000830  44.3129253  41.4215469  76.5542459
  45.4975080  41.7315865  78.3140469  46.4609814  41.7553616  77.8048754
  45.4420662  42.5024509  79.0826797  45.2134609  40.3757429  78.8017082
  45.3000450  39.6368408  78.1186056  45.9539366  40.1734400  79.4581127
  44.3619442  40.2595186  79.3322897  42.8459311  46.1391735  76.6105032
  43.6666250  46.7225170  77.2806358  41.5582228  46.2631989  76.8086100
  40.9343147  45.7437754  76.2077427  41.0278940  47.1255827  77.8148985
  41.3735199  48.1397629  77.6146984  39.5252490  47.1779156  77.7763462
  39.1828966  46.1613083  77.9697514  39.0326762  47.7431488  78.5675430
  38.9248133  47.7957058  76.5522814  39.1745472  48.8526058  76.4590359
  39.4416404  47.2509527  75.7621908  37.3901272  47.6849937  76.6517115
  37.0875263  46.6423368  76.5547562  37.1327949  48.0658340  77.6400614
  36.9494486  48.4684658  75.4121542  37.2951293  49.5015621  75.4483652
  37.4514818  47.9382515  74.6028662  35.4839730  48.4056282  75.2888298
  35.1221085  49.0032148  76.0182476  35.0935459  48.8338661  74.4616175
  35.0314903  47.5027370  75.3009510  41.5298700  46.7837429  79.2585564
  41.7272377  47.6506901  80.0991821  41.6550493  45.4943132  79.5296907
  41.3770199  44.8322678  78.8194084  41.9900036  44.8636723  80.7915020
  41.5529251  45.4585266  81.5935135  41.3075256  43.4890032  80.9183788
  40.2754259  43.5875225  80.5819798  41.7437840  42.7833462  80.2114010
  41.3303852  42.9362392  82.3454571  41.1076689  43.7767744  83.2620144
  41.5886259  41.7238569  82.6000023  43.4377098  44.8252439  81.1325073
  44.0913630  43.7960005  81.1307049  44.0736246  46.0081625  81.2679005
  43.5690451  46.8803310  81.1985111  45.5140638  46.0461473  81.3381100
  45.7567930  45.3308058  82.1238995  46.1121750  45.8132124  79.9213839
  45.4657698  45.2100658  79.2838240  46.1576271  46.7212057  79.3200684
  47.3626137  44.9657679  79.9191046  48.1576204  45.5311632  80.4053116
  47.1218348  44.0718079  80.4944038  48.0792189  44.5286798  78.3420610
  49.6827221  45.2596188  78.6389971  49.5316839  46.3381481  78.6844444
  50.1996851  44.9159861  79.5349693  50.3601313  45.0870228  77.8026772
  46.0529184  47.4116564  81.9638443  45.5261803  48.4813786  81.5757465
  47.0576811  47.4915981  82.9062176  47.3303747  46.6554785  83.4028530
  47.5933266  48.7606096  83.4063148  47.1165466  49.5514250  82.8271866
  47.2294474  48.9146566  84.8579502  46.1681271  48.8295984  85.0913334
  47.8101778  48.2143068  85.4582500  47.7791071  50.1721954  85.2026653
  47.4030018  50.5359554  86.0075378  49.0402174  48.8595247  83.2070446
  49.7687435  47.8613901  83.4966850  49.5873594  49.9446487  82.6869297
  51.0279274  50.1693916  82.8626728  51.5640736  49.4198942  82.2805119
  51.3066626  50.1398802  83.9160156  51.3376093  51.5815258  82.3231602
  51.7451048  51.4521313  81.3205051  52.0550537  52.1084070  82.9522610
  50.0051212  52.2764587  82.3515415  49.9850464  52.9974365  81.5342903
  49.9566412  52.7762413  83.3189964  49.0148020  51.1528587  82.1158791
  48.0155706  51.3745117  82.4907207  48.8091040  50.9607267  80.6268024
  49.5107460  50.2327776  79.9684143  47.7700281  51.6691208  80.1507568
  47.1472979  52.2423983  80.7018089  47.2166729  51.6133404  78.7859869
  47.1288586  50.5531836  78.5483789  45.8187485  52.1111536  78.6169052
  45.6971073  53.1309271  78.9821005  45.6517410  52.1647787  77.5411081
  44.6632242  51.3589191  79.1356945  44.7190714  51.0967588  80.1922226
  43.7459517  51.9406414  79.0444851  44.4286585  50.0768042  78.3529043
  44.2244959  50.0300932  77.1285915  44.4729376  48.9414406  79.0476322
  44.3682861  48.0707932  78.5465145  44.7246981  48.8906574  80.0244331
  48.1787109  52.2952175  77.7553415  48.0524874  52.0312214  76.5754747
  49.1113901  53.1608534  78.2464027  49.1682100  53.2238054  79.2528343
  50.0044489  53.9553881  77.4085188  50.1777315  53.4393501  76.4641809
  49.2823553  55.2335262  76.9314384  49.9150896  55.6536913  76.1496401
  48.3491230  55.0289011  76.4067316  49.0271902  56.3087940  78.0611515
  48.1768370  56.8225002  77.6127052  48.6895323  55.9455204  79.0317822
  50.1065874  57.3263216  78.3342028  50.9695721  56.9471693  78.8815641
  50.4889584  57.8676844  77.4688625  49.6333694  58.3689213  79.3812370
  48.8733912  57.9056215  80.0104332  50.4037571  58.7581682  80.0468922
  49.0647125  59.4884157  78.6424923  48.7803602  60.2346802  79.2608261
  49.7730875  59.9062109  78.0561876  48.3637381  59.2216063  77.9660702
  51.3737440  54.2090368  78.0728960  51.3496876  54.2844677  79.3015003
  52.4111223  54.3612242  77.2871161  52.1755457  54.1359329  76.3311625
  53.8123131  54.8634768  77.6253271  53.5916519  55.8312416  78.0757189
  54.5280313  53.9840841  78.6869812  55.4161119  54.5687723  78.9268780
  53.8968992  53.7957859  79.5554924  55.0749969  52.6609087  78.1181526
  54.3319750  51.4561749  78.1507397  53.3049345  51.5311956  78.4762478
  54.8441601  50.2058077  77.7369642  54.1391277  49.3983555  77.8686953
  56.1835575  50.1966238  77.2136927  56.6883516  49.2716551  76.9770145
  56.8694115  51.4082098  77.1332026  57.8953266  51.2833405  76.8196440
  56.3929701  52.6363897  77.6377201  57.0688820  53.4786844  77.6289845
  54.6085978  55.1855803  76.3206434  54.1156578  55.0190735  75.2586508
  55.8158255  55.6450701  76.4912701  56.1394978  55.8141947  77.4329329
  56.6957569  55.8914042  75.3516054  56.3151741  55.4457951  74.4325352
  56.6805077  57.4167395  75.0463247  57.2360039  57.8742552  75.8649874
  57.3149395  57.6545858  74.1924953  55.3471804  58.1616211  74.8925304
  54.4596100  58.4265661  75.8578777  54.4601440  58.1592464  76.9042730
  53.4644938  59.2335796  75.3878927  52.6509476  59.4913578  75.9280825
  53.6101627  59.5020437  74.0182209  52.8970957  60.3040504  73.1080008
  51.9160795  60.6870365  73.3474255  53.3153486  60.3920650  71.7707920
  52.6612854  60.9167004  71.0900784  54.4597149  59.6775913  71.3628197
  54.7736025  59.7235727  70.3304577  55.2442837  58.9990187  72.3407316
  56.2056017  58.5645485  72.1094322  54.8221827  58.8149452  73.6595678
  58.1314468  55.4566288  75.5159283  58.6654091  55.7101727  76.6296053
  58.7646961  54.8356295  74.5449448  58.1960058  54.7925472  73.7113762
  60.2059650  54.6616697  74.3394327  60.5665493  54.7648764  75.3628731
  60.4785156  53.6864185  73.9360714  60.8782196  55.6418276  73.3849096
  60.7284021  55.4574203  72.1809769  61.6530418  56.5587664  73.9930296
  61.7062473  56.4169502  74.9916077  62.3209047  57.5680399  73.2171679
  61.8032265  57.7912760  72.2842789  62.2987509  58.9001417  73.9758682
  62.9539299  58.8268375  74.8438978  62.7767515  59.6092939  73.3000612
  60.9143782  59.3744993  74.4410896  60.6445885  58.7674284  75.3052521
  60.9964848  60.8446169  74.9416113  61.4974642  60.8457327  75.9096622
  61.5884638  61.4787912  74.2816925  59.9820614  61.2099552  75.1015425
  59.7155237  59.1493940  73.4418154  58.8449240  59.5149708  73.9863348
  59.7752905  59.7650671  72.5443316  59.6313047  58.0863094  73.2163048
  63.7891769  57.1112108  73.0655050  64.4371510  56.7699671  74.0757608
  64.3839073  57.0293856  71.8589687  63.8387728  57.4194670  71.1034822
  65.7788658  56.6810989  71.6546917  65.9647036  55.8659840  72.3540878
  66.0329771  55.9778214  70.2807713  65.4950047  55.0298643  70.2886295
  65.5878592  56.8330717  69.0399933  64.6304989  57.3434639  69.1452169
  66.3385201  57.5844193  68.7948608  65.5481577  56.2380409  68.1276035
  67.3445606  55.6900740  70.1228428  67.5288200  55.2765989  69.2762709
  66.6991138  57.8230953  71.9270611  66.6314554  58.9765215  71.4085722
  67.6999235  57.5573397  72.7788877  67.7990150  56.6432285  73.1968307
  68.6004877  58.6070824  73.4134722  67.9728270  59.3470097  73.9101171
  69.7328663  57.9260635  74.2711687  69.2242098  57.2658157  74.9736261
  70.3314543  57.3291969  73.5830259  70.6052446  59.0496111  74.9137878
  71.3084316  59.4737005  74.1970015  69.9960470  59.8520613  75.3297806
  71.4961672  58.4792280  76.0169840  71.8857527  59.2966270  76.6237593
  70.8124113  57.9873276  76.7088032  72.6042747  57.6434422  75.5673170
  72.5404024  56.6416264  75.6786251  73.5903215  58.0377913  74.8462200
  73.9433336  59.2399311  74.5328712  73.7123108  60.1014614  75.0066710
  74.6630287  59.1815233  73.8266611  74.2758751  57.0505285  74.4066906
  73.9779234  56.1076307  74.6122885  74.9942493  57.3142862  73.7475443
  69.3557072  59.3963909  72.3062611  69.6290684  60.5390882  72.4307537
  69.6463966  58.8003731  71.1395693  69.5165014  57.8083372  71.0013819
  70.3426361  59.4941235  70.0661087  71.2600517  59.9553776  70.4317522
  70.7186460  58.4177017  68.9667892  69.8032808  57.8956079  68.6881685
  71.1095524  59.0063763  68.1368780  71.5964413  57.5164652  69.5776224
  72.3234081  57.4343729  68.9560270  69.4807816  60.5365276  69.3420458
  70.0462723  61.3300133  68.5601473  68.1510115  60.5954790  69.6081305
  67.7971029  59.8117304  70.1378441  67.2522688  61.5458536  68.9741516
  67.5987053  61.9032860  68.0044460  66.0413980  60.7519150  68.6194801
  65.4728794  61.3006878  67.8686571  66.2007713  59.7963715  68.1198502
  65.4334927  60.5574703  69.5030832  67.0674944  62.7411032  69.9374390
  66.5249491  63.7532997  69.5785141  67.5551081  62.6399708  71.2074661
  67.9321098  61.7394114  71.4662695  67.3536301  63.6837816  72.2563839
  66.6344738  64.4315290  71.9220304  66.8513727  63.0494213  73.5713434
  67.6547432  62.3589993  73.8282824  66.6459513  63.7711668  74.3619108
  65.6836700  62.0879030  73.3964491  65.8826876  61.5072298  72.4957180
  65.2906561  61.3439560  74.6280527  65.1734972  61.9948053  75.4945230
  64.3152428  60.8878231  74.4589043  66.0362816  60.6024742  74.9150181
  64.3307590  62.7633190  72.9548264  63.5887480  61.9756842  72.8238106
  63.9490271  63.3219099  73.8094378  64.4283009  63.3241987  72.0253086
  68.5815239  64.4670486  72.5750875  69.7284365  64.0159035  72.7171898
  68.2883978  65.7732677  72.8445482  67.3273516  66.0765886  72.7775812
  69.1263819  66.6488838  73.5658503  70.0213861  66.0951757  73.8495255
  69.7172546  67.7830362  72.7232981  68.9795732  68.1916761  72.0326900
  70.1717710  69.0155840  73.4640598  70.6605387  69.6494436  72.7241755
  69.3356609  69.5279646  73.9399719  70.8736897  68.7644053  74.2592430
  70.7710743  67.2420645  71.7361259  70.4987669  66.2361765  71.4165306
  70.7460833  67.8596020  70.8382797  72.1789694  67.2598314  72.2330332
  72.5217104  68.2752037  72.4321318  72.1117449  66.7732000  73.2060575
  72.7787638  66.6766596  71.5342712  68.4466934  67.2094488  74.8402309
  67.3728466  67.8449869  74.7368479  69.0238905  67.0943117  76.0363483
  70.1098537  66.1670399  76.4558172  71.0558558  66.6976738  76.3480330
  70.1109695  65.3008509  75.7941437  69.8275995  65.9289408  77.9067421
  70.7071209  65.6894016  78.5043812  68.9744854  65.2536869  77.9725122
  69.3142891  67.2780132  78.4033108  70.2259064  67.8343678  78.6213064
  68.6600542  67.1631861  79.2675400  68.4970474  67.7698088  77.2248125
  67.4465370  67.5077915  77.3507977  68.6334467  69.2510748  76.9926167
  69.6337986  69.7210312  76.4751577  67.6566076  70.0401974  77.3633862
  66.9487238  69.5851851  77.9219198  67.6366472  71.5504694  77.1567678
  67.9387856  71.7170238  76.1228037  66.2489653  72.1874809  77.3609734
  66.4310884  73.2548523  77.2358465  65.1623774  71.7428732  76.4484787
  64.2026997  72.1320486  76.7885780  65.3881121  72.0456314  75.4259920
  65.0584030  70.6787825  76.6606236  65.7113314  72.0581770  78.7047386
  66.4235783  72.2908497  79.3048763  68.6884022  72.1885252  78.0871058
  69.6500158  72.8176785  77.6399088  68.5380554  71.8940258  79.2904520
  63.4166861  68.1678820  65.3760624  65.0543594  46.0139322  46.8688250
  64.0664434  46.2165356  46.9243097  65.2072668  45.3211451  47.5876856
  65.2083874  45.7001209  45.9212494  65.8263922  47.2908640  46.9551802
  66.8708038  47.1300077  46.6879177  65.1432276  48.4193563  46.0729027
  64.1314030  48.4255171  46.4782047  65.6193972  49.3860626  46.2367439
  65.0644684  48.2477856  44.5732355  66.2928438  48.1152773  43.9106083
  67.2080088  48.1382608  44.4836283  66.2400103  47.8683376  42.5212574
  67.1640205  47.7040482  41.9868326  65.0516653  47.8230047  41.8321228
  64.9579525  47.5687504  40.7866621  63.8875103  48.0479622  42.4849081
  62.9768324  47.9150200  41.9197559  63.8495874  48.3189344  43.8643932
  62.9163170  48.3400011  44.4074965  65.7567501  47.7289343  48.4343147
  64.7269535  47.8519249  49.0417528  66.9186974  48.2523012  48.8747644
  67.6672792  48.3011961  48.1984949  67.0193195  48.9889860  50.1720953
  66.0085917  49.1298866  50.5550861  67.7049446  48.2069349  51.2551689
  68.6430311  47.8884029  50.8006001  67.9281139  49.1916466  52.5007534
  68.1727839  48.7127209  53.4488392  68.7323618  49.9033976  52.3144960
  66.9849443  49.7092676  52.6757050  66.8483925  46.9635248  51.6947794
  65.7930803  47.1893644  51.8477631  66.8579626  46.2818050  50.8443213
  67.3849773  46.1714745  52.8740788  66.8608332  45.2248240  53.0053282
  68.4400368  45.9081984  52.7989912  67.0910120  46.7577648  53.7446833
  67.5153065  50.3900242  49.8563957  68.7160921  50.6513119  49.7501230
  66.6204548  51.3603926  49.6144962  65.6544590  51.1585522  49.8294783
  66.9858980  52.6792574  49.1448402  67.4917603  52.6241922  48.1808996
  65.6905222  53.4496403  48.8359642  64.9313641  53.3478260  49.6114731
  66.0253143  54.9691820  48.5781431  66.6714621  55.0441456  47.7035093
  65.1837301  55.6316710  48.3758020  66.4742947  55.4116869  49.4673586
  65.2444410  52.7805758  47.5252533  64.3062687  53.1430149  47.1050501
  66.0415554  52.9028702  46.7919397  65.0819397  51.7084742  47.6361513
  67.9500580  53.4335184  50.0955582  67.6288176  53.6667013  51.2761450
  69.1091919  53.8463640  49.5838022  69.3363905  53.6860847  48.6128235
  70.0892925  54.6142769  50.3367949  70.9570360  54.9964762  49.7991705
  69.6121597  55.5699778  50.5537891  70.6074095  53.9150190  51.5836096
  71.0902596  54.5642281  52.5286198  70.5570793  52.5499249  51.6184616
  70.0687408  52.1395731  50.8353662  70.8006620  51.7329836  52.7527571
  70.7364368  50.6965113  52.4215460  71.8421841  51.8983221  53.0284357
  69.9289703  51.8944359  53.9949989  70.2069187  51.3905144  55.0791311
  68.7422562  52.5480938  53.8098717  68.5296488  52.7429724  52.8419256
  67.7916431  52.9165602  54.8786211  68.2122755  52.6143932  55.8377171
  67.5934267  54.4077253  54.7715950  67.4590731  54.6583700  53.7193489
  66.6599083  54.7007418  55.2519989  68.7372589  55.1841497  55.3825092
  68.5030794  55.1684999  56.4469433  69.7029352  54.7063971  55.2172518
  68.6966848  56.6083956  54.8745871  68.9833117  56.6433668  53.8235283
  67.6358986  56.8260288  54.9989605  69.6224356  57.6171494  55.6044292
  69.2216444  58.6030960  55.3690958  69.6583557  57.5855637  56.6933775
  71.0026169  57.3960590  55.1091290  71.2950945  56.4665461  55.3747606
  71.1420107  57.4310112  54.1094017  71.6551542  58.0385780  55.5351162
  66.4885044  52.1431398  54.7467136  65.9558105  51.5590334  55.6976318
  65.7893229  52.3411655  53.6186934  66.1560249  52.9795265  52.9272318
  64.3051672  52.1551991  53.3557129  63.8044357  51.8605709  54.2779732
  63.5605431  53.3824158  52.7725935  63.8454819  53.3482838  51.7210484
  62.4797487  53.2417250  52.7860165  64.0489292  54.7316456  53.3712101
  63.4853315  55.1661110  54.6381474  62.7347803  54.5717287  55.1379347
  63.9228249  56.3692093  55.2365446  63.5376930  56.8068171  56.1457062
  64.8938990  57.0747137  54.5928240  65.2664614  58.1924534  55.1902390
  64.9757719  58.1446743  56.1039209  65.4694843  56.6850519  53.3213425
  66.2520933  57.2560835  52.8440094  64.9913549  55.4889250  52.7243853
  65.4902124  55.1784563  51.8182135  64.1176891  50.9462833  52.4829531
  64.4679976  50.9576893  51.3086653  63.4764004  49.9072361  52.9669142
  63.0937386  49.9584246  53.9002180  63.1969357  48.6989021  52.2432613
  63.9654922  48.4907866  51.4988756  63.3844805  47.5660276  53.3337450
  64.4118118  47.6341248  53.6915970  62.6758003  47.8472519  54.1127157
  63.1608915  46.2209845  52.6431751  62.1000767  46.0712671  52.4422979
  63.7915421  46.1599588  51.7562342  63.5581875  45.1589108  53.6816502
  64.5646048  45.2985907  54.0762615  62.8597593  45.2375507  54.5147848
  63.3949900  43.7612009  53.0120945  62.3675966  43.7738323  52.6482248
  64.0776730  43.5897160  52.1798468  63.4959650  42.6602316  53.9546633
  63.1533003  41.7859077  53.5828590  64.4456530  42.6065350  54.2942381
  62.9416609  42.8376770  54.7801065  61.7682409  48.7474298  51.6506767
  60.8315420  48.9201403  52.4431038  61.6156816  48.8065720  50.3088045
  62.4015093  48.3941984  49.8266029  60.3803301  48.9072180  49.5129824
  59.8541164  49.7981501  49.8556852  60.5968618  49.0952873  47.9811287
  61.4323425  48.4845734  47.6389408  59.6681166  48.7406158  47.5341988
  60.7806015  50.5473804  47.5856352  60.0744295  51.1821175  48.1209230
  62.2415829  51.0350657  47.9308414  63.0202293  50.4331446  47.4623156
  62.3064661  52.0473671  47.5319290  62.4334860  51.1006069  49.0018129
  60.6287432  50.5935526  46.0739470  59.6085930  50.3734255  45.7593870
  60.8804655  51.5704250  45.6610918  61.3001060  49.8764849  45.6015253
  59.4933367  47.7586889  49.8692226  59.9585485  46.7105436  50.3447294
  58.1657600  47.9698801  49.7186041  57.8057289  48.8608360  49.4076729
  57.0779514  46.9877434  49.9523497  57.5433254  46.0113049  50.0868797
  56.4434052  47.2428370  51.3177252  56.0763073  48.2588959  51.1729097
  55.2925301  46.3397264  51.7525768  55.6672096  45.3208923  51.6541052
  54.9501324  46.6760492  52.7312279  54.5071697  46.3844728  50.9980488
  57.4506903  47.3646116  52.5114346  58.0376005  48.2645130  52.3275042
  56.9143677  47.5796795  53.4356689  58.0285311  46.4406443  52.5335121
  56.0835266  46.8942928  48.7659597  56.0366821  45.8125544  48.1179237
  55.3459406  47.9905510  48.3760023  55.4339504  48.8587332  48.8845444
  54.2308903  47.9513359  47.4241781  54.4431448  47.2164631  46.6476393
  52.9886484  47.3345947  48.1956100  52.1611404  47.1137428  47.5214052
  53.2690907  46.3540888  48.5804033  52.5815296  48.1210756  49.4395781
  53.4184933  48.0884695  50.1370955  52.1629810  49.0992737  49.2028284
  51.4113474  47.2612429  50.0266933  50.5379248  47.4640799  49.4069433
  51.6011190  46.1924171  49.9282169  51.0846043  47.5420380  51.4605188
  51.5040255  46.9819546  52.1888685  50.2795601  48.4816599  51.9073057
  49.7739744  49.3219185  51.0260868  49.8528624  49.1831779  50.0287771
  49.2289495  50.1411295  51.2539864  49.8703861  48.5696936  53.1452417
  50.0766993  47.9021692  53.8745880  49.1058636  49.1872120  53.3782196
  53.8573313  49.3140316  46.9062471  54.1577959  50.3218079  47.5017214
  53.2466316  49.3738222  45.7028341  52.9905224  48.5198641  45.2282143
  52.9201031  50.6182766  45.0533438  53.7179041  51.3318205  45.2594328
  52.6755238  50.3472853  43.5494709  53.4978485  49.6638966  43.3376646
  51.7199659  49.8277235  43.6206484  52.6566696  51.6810513  42.8366280
  51.9999123  52.3448753  43.3988619  53.6951303  51.9779682  42.9833794
  52.2663498  51.5789127  41.3832664  51.2766314  51.1222553  41.3884211
  52.3182058  52.5446177  40.8804560  53.1804562  50.6205130  40.5738974
  54.1650248  50.9257317  40.9282541  53.0228758  49.5873499  40.8834934
  53.0981016  50.8726549  39.0868950  52.1925974  50.6601143  38.6932206
  53.3716345  51.8233585  38.8833189  53.7707615  50.3141928  38.5811830
  51.6903973  51.2451363  45.7252073  50.7022762  50.5640364  45.8599997
  51.7952156  52.5201797  46.0129642  52.7091074  52.8197718  45.7044888
  50.8084869  53.4216690  46.6365147  49.8863602  52.8919077  46.8755341
  51.1960936  53.7815189  48.1039810  50.4553556  54.3569422  48.6592293
  51.3700867  52.5093508  49.0769720  50.3750944  52.0790863  49.1908503
  52.0846081  51.7689848  48.7172222  51.5130806  52.9229069  50.0752783
  52.5237703  54.6824026  48.0418205  53.4501886  54.1265631  47.8972816
  52.3800850  55.4940987  47.3286581  52.8067160  55.3464174  49.3886089
  53.0629921  54.5932484  50.1336956  53.6792517  55.9936523  49.2999029
  52.0288134  55.9972858  49.7877789  50.4428244  54.6516562  45.8690357
  49.5676279  55.3023481  46.3256264  50.9727097  54.8292780  44.6809673
  51.6331100  54.1252613  44.3837595  50.6570625  55.9186029  43.7976646
  49.5709658  56.0047626  43.7649679  51.0236406  56.8029404  44.3188810
  51.1954689  55.7155704  42.3623562  52.1848774  55.0218630  42.1425390
  50.6040382  56.2957382  41.3147020  49.8341417  56.9108677  41.5360212
  51.0800409  56.1370945  39.9595809  52.1644688  56.1373425  39.8494744
  50.4677629  54.8687649  39.3970227  50.7369900  54.0194654  40.0249624
  49.3910313  54.9741411  39.2641830  51.2047672  54.5467424  38.2340407
  52.0832348  54.2390442  38.4690332  50.6264591  57.2747898  39.0072823
  49.5660162  57.9193115  39.2062736  51.3844967  57.5264359  38.0002666
  52.2663736  57.0341539  38.0082488  51.1273289  58.4329033  36.8520188
  50.2428150  58.0460119  36.3460040  51.0613394  59.4212484  37.3068976
  52.3117542  58.4257889  35.8129621  53.1039190  57.4819279  35.7608128
  52.2801828  59.4748116  34.9704409  51.5791607  60.1979446  35.0462484
  53.1270695  59.5165682  33.8309741  53.2930040  58.5001993  33.4738088
  52.5322104  60.3349066  32.7315426  53.1938314  60.1700115  31.8811512
  51.4745045  60.1305103  32.5654888  52.6619434  61.6782522  33.0238748
  52.8053093  62.1123219  32.1796966  54.5354986  59.9988890  34.1907454
  55.5072927  59.6565533  33.5528564  54.6701002  60.7642508  35.2816486
  53.8017368  61.1328363  35.6424785  55.9268236  60.9138823  36.1262298
  56.7298889  61.4710283  35.6437635  55.7166290  61.6899729  37.4018431
  56.6989422  62.0147514  37.7448916  55.0534439  62.5247335  37.1749949
  55.1127720  60.8565664  38.5388732  55.9358406  60.3146935  39.5074105
  56.9898367  60.5471516  39.4692016  55.3960466  59.5215178  40.5974483
  56.0708427  58.9914799  41.2532806  54.0214062  59.3462038  40.6529045
  53.5502863  58.8341904  41.4789152  53.1616831  60.0158310  39.7135520
  52.1026182  59.8161983  39.7837973  53.7198496  60.7017708  38.5798717
  53.0743837  61.1206961  37.8220630  56.6143465  59.5666933  36.3462973
  57.8409004  59.3964720  36.1712170  55.8259916  58.5826159  36.6841960
  54.8309612  58.7220192  36.5813231  56.2643337  57.2707272  37.2248244
  56.1999798  56.4439821  36.5173960  57.3329782  57.3208380  37.4336076
  55.3958321  56.8295431  38.3858061  54.2064190  56.8266821  38.3322716
  56.0270548  56.4571619  39.5044041  57.0237112  56.6174364  39.5373797
  55.2857113  55.6454659  40.5757427  54.2332649  55.9289217  40.5652714
  55.4462767  54.1388559  40.3569365  56.4947081  53.8981438  40.1810312
  55.0523949  53.5722589  41.2006950  54.7743511  53.5763788  39.0969658
  53.6606836  54.0534115  38.6930585  55.3354311  52.5841904  38.5371017
  55.7331038  55.8567762  42.0328379  56.7600965  56.4955282  42.2393751
  54.9284506  55.4468298  43.0354261  54.1750336  54.8046589  42.8352308
  55.1686764  55.7013178  44.4237566  56.1409569  56.1846733  44.5193291
  54.2032051  56.8612576  45.1307154  53.3470154  56.2832308  45.4784489
  54.8674059  57.5215816  46.3225698  55.5902958  58.3131075  46.1250401
  54.0541172  57.8426743  46.9733858  55.3496885  56.7435122  46.9142723
  53.7366629  57.9218102  44.1288233  54.6316528  58.2951307  43.6311007
  53.0717087  57.4326944  43.4169960  53.0539846  59.1085148  44.7133875
  52.1419334  58.8521814  45.2524090  53.7588835  59.6469879  45.3468466
  52.7120924  59.7074842  43.8693285  55.0503588  54.4570351  45.2709818
  54.0343857  53.7970352  45.1331902  56.0712051  54.0732002  46.0638285
  56.8978453  54.6440649  45.9595013  56.1547852  52.8220081  46.8141270
  55.2415514  52.3012733  46.5261269  57.4184132  52.1426821  46.3147926
  58.1126022  52.9476833  46.0735941  57.9033136  51.5255213  47.0711565
  57.2774696  51.2523127  45.0882483  57.4028349  51.8191338  43.7796021
  57.6793194  52.8566933  43.6636877  57.0922184  50.9935904  42.6688385
  57.1641159  51.3460875  41.6505194  56.6425228  49.6973372  42.8040123
  56.0220718  49.1296482  41.7040920  56.5054083  49.4370890  40.9337282
  56.6143990  49.1667604  44.1262197  56.1141872  48.2245111  44.2946100
  56.8854713  49.9366188  45.2508163  56.7698145  49.4857740  46.2253761
  56.1533308  53.1354475  48.3283758  56.7028713  54.1564083  48.7659121
  55.3750420  52.3361397  49.0893507  55.0708532  51.4648962  48.6788607
  55.5815792  52.2499084  50.5273771  55.5649519  53.2606077  50.9351873
  54.4389915  51.3695049  51.1437082  53.4523535  51.7717314  50.9138060
  54.3872356  50.4617167  50.5425835  54.7226620  50.9166336  52.5916338
  55.6933069  50.4243755  52.6518774  54.7269535  52.1478891  53.4231663
  54.9442101  51.7271662  54.4049501  55.5025387  52.8341436  53.0831385
  53.8211584  52.7542210  53.4231663  53.5238218  49.9938536  52.9743004
  53.7026215  49.0802622  52.4073076  53.5572910  49.8582315  54.0553141
  52.5715733  50.4745770  52.7501965  56.9675541  51.6760254  50.7343102
  57.4481535  50.7776022  49.9958372  57.5210953  51.9888115  51.9360971
  57.2156715  52.8008699  52.4531841  58.7982750  51.4216328  52.4263811
  58.7570047  50.3499699  52.2316265  59.9829006  52.0320272  51.7723131
  59.8939085  53.1173182  51.8204880  60.8740950  51.6866732  52.2963381
  60.0542545  51.6622210  50.7494497  58.7757540  51.6031551  53.9269972
  58.1549644  52.4286318  54.4704962  59.6210384  50.8516121  54.6275377
  60.1569033  50.2008867  54.0711975  59.9232435  50.8108950  56.1260176
  59.2203331  51.5336657  56.5402842  59.5512819  49.4148779  56.5928411
  60.3513288  48.7426519  56.2827873  59.6535683  49.4561434  58.1476927
  59.0372467  50.2484035  58.5726500  59.3541527  48.5176754  58.6143017
  60.6500912  49.7068071  58.5112953  58.1547928  48.8596249  56.0879183
  58.1837845  48.6854553  55.0123167  58.0940914  47.8614569  56.5215969
  56.8942785  49.6842146  56.4248419  56.8293238  49.9529362  57.4791956
  56.7669392  50.5586481  55.7866812  55.9914780  49.0864563  56.2994003
  61.4527225  51.1362267  56.2303591  62.3165417  50.4587317  55.6596470
  61.7488623  52.2277069  56.9653559  60.9935427  52.6901150  57.4509287
  63.1568909  52.4456835  57.3597002  63.8902855  52.4241924  56.5536165
  63.3039761  53.7505007  58.1688976  62.9908800  54.5858145  57.5425434
  62.6893997  53.6763716  59.0660667  64.7069168  53.9856148  58.6995602
  65.7160044  53.4491587  58.2624245  64.7949409  54.7021866  59.7892714
  65.7089710  54.9279737  60.1548815  63.9185905  55.0498486  60.1515245
  63.4956503  51.3535595  58.4206486  62.8597069  51.2022066  59.4680548
  64.5277882  50.5516863  58.0998802  65.0691080  50.8077717  57.2865534
  65.0072479  49.4180632  58.9998102  64.1705418  48.7367058  59.1540337
  66.0546064  48.6401176  58.1783724  66.2606812  47.7202702  58.7256622
  65.4507256  48.0642176  56.8565607  66.1256647  47.2832251  56.5064096
  64.4691324  47.6342154  57.0557451  65.4303312  48.8930225  56.1489105
  67.3771715  49.4418478  57.9626417  67.0594597  50.4798031  57.8635931
  67.9349756  49.3727446  58.8965464  68.3855391  48.9797926  56.8509054
  68.4825230  47.8943253  56.8296051  67.9374790  49.3354511  55.9230852
  69.3873644  49.3457413  57.0757008  65.6709337  49.8088264  60.3363037
  65.8379221  48.9915276  61.2040758  66.1137486  51.0511398  60.5452156
  65.9564257  51.7544174  59.8375797  66.7530203  51.5283680  61.7745495
  67.1509171  50.6710243  62.3174477  67.8846073  52.5927019  61.5259457
  68.2505465  52.6659155  62.5500727  68.9889622  52.1162462  60.6036997
  69.2655039  51.0652637  60.6876993  68.5908651  52.0757198  59.5898056
  69.8873615  52.7303171  60.6661606  67.4425364  53.8834000  61.1593151
  68.1823158  54.4837093  61.2774467  65.7699633  52.0996761  62.7630758
  66.1328840  51.9811344  63.9170837  64.5167255  52.4254465  62.4431276
  64.3047190  52.6073217  61.4725208  63.5215330  52.7790451  63.5218096
  63.6725473  52.1481800  64.3977642  63.6843634  53.7982941  63.8721180
  62.0365572  52.5680876  63.2107019  61.2986326  52.8619528  64.1661549
  61.5797281  52.1045208  62.0178890  62.2839832  52.0953035  61.2939835
  60.3085709  51.4376879  61.6330910  60.5127239  50.6930637  60.8637047
  59.9171400  50.9972382  62.5500870  59.4081354  52.5136423  60.9773254
  58.2703447  52.1344566  60.7466078  59.7542238  53.8001823  60.8786869
  60.7285500  53.9657211  61.0869980  58.9270210  54.7880983  60.1871967
  57.9403210  54.7942019  60.6503153  59.6361494  56.1515570  60.2188826
  58.9567566  56.9635868  59.9597836  59.9205923  56.3356113  61.2548923
  60.8738184  56.3393450  59.2320728  61.6273355  55.6794977  59.6620941
  60.6439495  55.9150505  58.2547092  61.3737869  57.8313732  59.1488791
  60.5748034  58.7045622  58.7830305  62.5747061  58.0526018  59.3551397
  58.5633135  54.3373203  58.7240839  59.4543600  53.7272549  58.1013536
  57.3059654  54.5909739  58.3251333  56.7625713  55.2725840  58.8352585
  56.6627359  54.2588997  56.9842672  57.2635651  53.4331131  56.6032457
  55.2034044  53.7265348  57.1422768  54.3959618  54.4170427  57.3858738
  54.8960543  53.3016777  56.1866999  55.1397181  52.6211596  58.2143593
  56.0837221  52.0766735  58.1922007  55.0886488  53.1157827  59.1843319
  53.9526320  51.6801929  58.1953239  52.8773785  52.2209454  57.7711916
  54.0581036  50.4597378  58.4964705  56.7278099  55.4014587  56.0117722
  56.3460445  56.5415430  56.3948393  57.1946955  55.0663710  54.7454739
  57.2424459  54.1071463  54.4328833  57.6153803  56.1590052  53.9039803
  57.1413708  57.0992136  54.1857958  59.0969038  56.5136433  54.0325212
  59.2680883  57.4155521  53.4448433  59.5352793  56.9405174  55.4461956
  59.2974615  56.0883999  56.0829306  60.5592346  57.2990465  55.3410053
  58.8994503  57.7752829  55.7411385  60.0422049  55.4812384  53.4530878
  61.0639811  55.8583927  53.4102774  59.9775505  54.6448374  54.1490459
  59.7497416  55.1542330  52.4552727  57.2240543  55.9907103  52.4002361
  57.0064640  54.8682022  51.9843960  57.0639992  57.1549654  51.7398262
  57.1403837  58.0442095  52.2125912  56.6909456  57.2801971  50.3103876
  56.1360455  56.3853312  50.0286007  55.6291628  58.3617353  50.1286411
  56.0264969  59.2328262  50.6496286  55.4437828  58.6440468  49.0922832
  54.6425438  58.1523275  50.5419636  57.9421043  57.3848534  49.3476248
  58.3857203  58.5312605  49.0962744  58.4771538  56.2626171  48.8497925
  58.0020189  55.4004574  49.0757036  59.5105410  56.3068247  47.8173208
  60.1530790  57.1268559  48.1379414  60.4434586  55.0124264  47.7914333
  59.9833775  54.2437553  47.1704865  61.7340803  55.2360010  47.0323753
  61.5018082  55.5781889  46.0238838  62.2476006  56.0100222  47.6027203
  62.3492527  54.3530607  46.8589497  60.8240128  54.4060373  49.1155624
  61.3533115  55.1508713  49.7098446  59.8293018  54.1040182  49.4433355
  61.4958954  53.5487747  49.0733385  58.8445711  56.5768528  46.4488792
  58.2542562  55.7410860  45.8162022  59.0768480  57.7868414  45.9598780
  59.7589445  58.3400154  46.4587164  58.6031389  58.2337999  44.6668863
  57.7753544  57.5769901  44.3995333  58.1248140  59.6899748  44.7526169
  57.5412130  59.8542452  45.6584454  59.0400076  60.2567005  44.9239063
  57.3094893  60.3287554  43.6034012  57.7963972  60.1007080  42.6552343
  56.3326597  59.8456907  43.6268425  57.1683455  61.8210173  43.8104725
  56.9801855  62.0440578  44.8606873  57.9152775  62.4582434  43.3370447
  55.9302425  62.1030331  42.9550505  56.0674429  61.8941355  41.8940926
  55.2001476  61.3811588  43.3210611  55.4082870  63.4440136  43.0236483
  56.0464764  64.1980028  42.8131485  54.6847677  63.4254074  42.3191833
  54.9567032  63.5880661  43.9155149  59.6848631  58.0464983  43.6101103
  60.8109045  58.5094166  43.8891697  59.4491196  57.1837139  42.5878191
  58.5257673  56.7892981  42.4784803  60.3274441  56.8028975  41.4524412
  61.3403940  56.9916821  41.8079662  60.1592731  55.3426170  41.0925388
  59.1888332  55.2136278  40.6132603  60.9476423  55.2477455  40.3458214
  60.3201962  54.3383455  42.2386456  59.4481945  54.2938375  42.8911257
  60.3574800  52.9488039  41.4603710  61.2010288  52.8587532  40.7759619
  60.5807495  52.2558784  42.2716141  59.4537163  52.5934505  40.9653711
  61.6464996  54.4532728  42.9747963  62.3791981  54.5036221  42.1693659
  61.7219496  55.3496552  43.5903502  61.7396021  53.6106730  43.6599684
  60.0332022  57.4996233  40.0986052  58.9205074  57.3233318  39.5728159
  60.9807539  58.1824064  39.4662476  61.8806505  58.2404661  39.9211240
  60.9199572  58.4461927  38.0112076  59.9328232  58.2081366  37.6149774
  60.9744167  59.9636412  38.0061865  60.3348875  60.4122353  38.7663603
  61.8920374  60.2336168  38.5288572  60.8645439  60.6822491  36.6822100
  61.1054564  59.9410057  35.9202266  59.8436403  61.0565090  36.6061115
  61.8806458  61.8252134  36.6330743  61.5223265  62.9976130  37.0098424
  63.0777788  61.5721560  36.3528442  61.9288349  57.6781940  37.1961808
  63.1302929  57.8314590  37.3607612  61.5365076  56.9171381  36.1518288
  60.5472898  56.7784786  36.0024142  62.4425316  56.2321711  35.3163815
  63.1231308  55.5991173  35.8856988  61.7812300  55.2909517  34.2745805
  61.1184645  54.6381044  34.8425889  61.1856461  55.8257103  33.5347056
  62.6575089  54.4514513  33.5868430  62.8229761  53.6857367  34.1417313
  63.3642578  57.1687555  34.6216488  62.9546022  58.1915283  34.0517664
  64.6846581  56.9107342  34.5859456  64.9409389  56.0522270  35.0521946
  65.5870628  57.5104284  33.5829687  65.6331539  58.5749912  33.8125134
  66.9727325  56.8737745  33.6739564  66.8259430  55.8013105  33.5460091
  67.5797606  57.1568203  32.8140140  67.5358105  57.2844553  35.0752139
  67.8668594  58.3228159  35.0932622  66.8623066  57.1723461  35.9248734
  68.8042259  56.5731859  35.4427147  69.6359062  56.0371590  34.7106838
  69.1843414  56.5356350  36.7062140  70.0341272  56.0107470  36.8560743
  68.8376188  57.0462513  37.5056863  65.0195456  57.3843288  32.1274829
  64.6526909  56.2920761  31.7375374  64.8612976  58.5096693  31.3876486
  65.1675844  59.3658972  31.8271422  64.1488886  58.6912727  30.1030636
  64.3350458  59.6954489  29.7221828  64.6492672  57.7222061  28.9723563
  64.5030928  56.7026806  29.3291426  64.1178274  57.8902435  28.0356383
  66.1510372  58.0194330  28.6903930  66.4535189  57.7674198  27.6739788
  66.2516499  59.1017818  28.6097932  67.1930408  57.2969055  29.6117210
  68.1772327  57.6779652  29.3392086  67.1591234  57.5662613  30.6673717
  67.1526098  55.8327723  29.2392635  66.2360811  55.3918362  29.6312547
  67.1094322  55.7351637  28.1545019  68.2863474  55.0482702  29.7843719
  68.0468416  54.0713501  29.6929455  69.1308546  55.2965403  29.2891216
  68.3851624  55.1692200  30.7822227  62.5920105  58.7006569  30.2242517
  61.9433594  58.3933973  29.1819644  62.0195246  58.9962864  31.3795114
  62.5699186  59.3507099  32.1486330  60.5412149  59.2292929  31.5082312
  60.0584221  58.2844067  31.2588120  60.2225113  59.4821072  33.0705285
  59.3232250  60.0934696  33.1455398  60.1286364  58.5123634  33.5592961
  61.0567236  60.0566435  33.4731364  59.9143076  60.3114319  30.5367041
  60.5379105  61.2823486  30.1149821  58.6555290  60.0199747  30.2117181
  58.2286549  59.1457844  30.4831433  57.8630733  60.8613205  29.2558050
  58.3715391  61.2615347  28.3786559  56.6752195  60.0069618  28.8286066
  57.1002436  59.0336180  28.5835528  56.0831213  59.8712492  29.7336555
  55.8088923  60.5038071  27.6530457  55.2620125  59.6475410  27.2582865
  55.0450468  61.1768961  28.0423856  56.6184759  61.1934662  26.5674281
  55.9489584  61.5505171  25.7848883  57.1220398  62.0707178  26.9735742
  57.6781988  60.3529692  25.9210324  58.6407042  60.4604578  26.2076020
  57.4796200  59.3863869  25.0361800  56.3392448  59.0960789  24.5496130
  55.5366850  59.6446323  24.8236465  56.2469101  58.3921051  23.8312864
  58.5114241  58.6958075  24.7339487  59.3438625  58.9351797  25.2534175
  58.4983492  57.9614210  24.0406895  57.3266840  62.1316147  29.9548459
  57.1477509  63.0992937  29.2608595  57.1744633  62.1713543  31.3008571
  57.1822596  61.2636757  31.7437577  56.8354511  63.3682728  32.0591426
  56.9313097  64.1454458  31.3009143  55.2901936  63.4173918  32.4068856
  54.7177124  63.1227684  31.5273619  55.0931406  62.7713537  33.2623982
  54.8101759  64.8083401  32.8311682  54.5050669  65.8721161  32.0035815
  54.1667795  66.8749237  32.7758241  53.8897657  67.8827286  32.5038099
  54.2294645  66.5328312  34.0675497  53.9978695  67.2092009  34.7809815
  54.7410822  65.2652025  34.0850639  55.0598288  64.7735214  34.9922872
  57.7670813  63.5973167  33.2244682  57.3180914  63.5950804  34.3887305
  59.0834904  63.9481068  33.0346203  59.7015572  64.1649389  31.7741227
  59.3000650  65.0891495  31.3585019  59.4930840  63.4177732  31.0083580
  61.2299156  64.2372370  32.1007538  61.7630911  65.0468397  31.6023874
  61.7041540  63.2765293  31.9001698  61.4322948  64.5238161  33.5920525
  61.8435955  65.5227518  33.7372088  62.0543528  63.7754107  34.0830040
  59.9902153  64.2665911  34.1840053  60.0242329  63.3888292  34.8293567
  59.5557690  65.4660130  34.9925399  59.0806341  66.4671516  34.4199967
  59.7695160  65.2870655  36.2813759  60.2490807  64.4587898  36.6040015
  59.4639111  66.3620806  37.3123503  59.8134184  67.3109436  36.9054079
  57.9069519  66.4394188  37.4160838  57.7471590  67.3769426  37.9486489
  57.4681854  66.6617012  36.4433670  57.0668173  65.3226566  38.1382465
  57.1150494  64.4087458  37.5461793  57.5695276  65.1124239  39.0822744
  55.6680441  65.7665110  38.3648801  54.9684525  66.1944866  37.4806023
  55.0966406  65.5216122  39.5499730  54.1740608  65.8421612  39.8072577
  55.7220411  65.3420877  40.3224611  60.0817299  66.2196922  38.7120461
  60.1211071  67.2261715  39.4175816  60.5136299  64.9997520  39.0639210
  60.5340099  64.2545271  38.3825088  60.8711624  64.6588039  40.4506111
  60.0585699  64.8208141  41.1588144  61.2539625  63.1653214  40.4232502
  60.4335880  62.6850176  39.8899722  62.1447325  62.9754114  39.8244452
  61.4276075  62.5247574  41.8089581  61.2108707  63.3020687  42.5417042
  60.5721807  61.2689543  41.9406223  60.7054424  60.7562160  42.8932190
  59.4983625  61.4555883  41.9543171  60.8307219  60.5837488  41.1333132
  62.8852606  62.0418787  42.0162964  63.2565069  61.5193415  41.1346912
  63.5112000  62.9294872  42.1082211  62.8263521  61.3807487  42.8809023
  62.0306444  65.5435610  40.9079552  61.9378376  65.9183216  42.0410967
  63.0173397  65.8493328  40.0356102  63.0464506  65.2903032  39.1949320
  64.0539169  66.8240070  40.3079510  64.6377897  66.3975811  41.1236429
  64.8939943  67.0748997  39.0193319  64.9264336  66.1313868  38.4745073
  64.4076777  67.8280354  38.3993435  66.3967705  67.5997114  39.2332435
  66.7219305  67.2725868  40.2208471  67.4678469  67.1265602  38.2200074
  67.1203184  67.1120501  37.1869969  68.3431578  67.7732325  38.2812214
  67.7839279  66.1566019  38.6039066  66.6403723  69.1239166  39.3554783
  67.6544476  69.2504025  39.7346258  66.6617155  69.5944977  38.3725238
  65.8881235  69.6059942  39.9798369  63.4411716  68.1633043  40.9059286
  63.7598562  68.5838699  42.0425034  62.5261211  68.7269211  40.1073456
  62.2697306  68.1765366  39.3002248  62.0331717  70.1147795  40.2986097
  62.9322624  70.7292652  40.2522755  61.1510086  70.4532194  39.0591979
  61.7558670  70.3114176  38.1635737  60.2624178  69.8304892  38.9556789
  60.5860043  71.8900251  39.1358805  61.3008118  72.9985952  38.6338854
  62.2583914  72.8605032  38.1539106  60.7439518  74.3167162  38.7347817
  61.3925409  75.1683569  38.5917854  59.4897938  74.5320988  39.3681407
  58.9451551  75.7911062  39.3867493  57.9960394  75.8775949  39.2714477
  58.7973595  73.4295845  39.8181319  57.8604555  73.6370373  40.3136969
  59.3475056  72.1416569  39.8391342  58.8608074  71.3552094  40.3968287
  61.2340403  70.1525545  41.6142035  61.3890886  70.9688139  42.5166512
  60.3780603  69.0995979  41.6731644  60.3856134  68.4192562  40.9267187
  59.3298292  69.0008640  42.6363516  58.6026573  69.8122931  42.6062489
  58.4327173  67.9368877  42.2099781  58.2674408  67.9276896  41.1326170
  59.0708351  67.0656729  42.3579407  57.1398354  67.8142691  43.0073547
  57.3201847  67.9074430  44.0782833  56.4428091  68.5803318  42.6676512
  56.3472223  66.5270185  42.8155804  56.6938877  65.7862186  41.8938971
  55.5161953  66.1748648  43.6142063  59.7786856  68.8915968  44.0465021
  59.0695238  69.3933010  44.9181461  60.9845638  68.3539772  44.1967916
  61.5268612  68.1334496  43.3737612  61.5938139  68.1557703  45.5645943
  60.8515787  67.6794338  46.2051439  62.8709602  67.3001146  45.4472637
  63.1017637  66.7985058  46.3870668  62.8217983  66.4668560  44.7462893
  63.9007568  68.0814981  45.0626802  63.8260221  68.2312536  44.1173840
  61.9228554  69.5032692  46.2013674  61.7511415  69.6889210  47.4210882
  62.2228861  70.5214119  45.4351902  62.2202587  70.5123472  44.4252348
  62.4303627  71.8750143  45.9378481  63.1551838  71.8225527  46.7502451
  63.1078815  72.8002310  44.9393988  63.9561653  72.2190285  44.5778465
  62.4221802  72.8953600  44.0974617  63.5860157  74.2068720  45.5633497
  62.7266264  74.6225166  46.0894680  64.2825174  73.9853525  46.3719988
  64.2347860  75.0634241  44.5326233  64.9204588  74.4234133  43.9773321
  63.4499216  75.3299046  43.8247585  64.8233271  76.3093758  45.1075602
  64.0006924  76.9124365  45.4918623  65.4789782  75.9856653  45.9159136
  65.5471849  77.0797825  44.1175938  66.3199663  76.5149641  43.7952805
  65.0254488  77.3144293  43.2852268  65.9017134  77.9428816  44.5042086
  61.1930275  72.4982262  46.5969658  61.2394238  73.1764221  47.6145315
  59.9692249  72.3738670  45.9999990  59.8956919  71.6981506  45.2529335
  58.7332582  72.9216814  46.5822840  58.9459419  73.9734268  46.7738676
  57.5930452  72.8621721  45.5727434  57.5281382  71.8422985  45.1936150
  56.6534376  73.1226873  46.0599518  57.5590229  73.7460613  44.3317699
  56.7820406  73.3486938  43.6786938  57.2750807  75.2509212  44.6908045
  56.4148569  75.3131914  45.3573179  58.1441355  75.6841421  45.1859379
  56.9812679  75.8452272  43.8256073  58.7653589  73.6329794  43.4352446
  58.5035324  74.0345383  42.4563169  59.5919037  74.2014027  43.8616419
  59.0115261  72.5726700  43.4922409  58.4003544  72.3834562  48.0190277
  58.3361244  73.2072115  48.9409590  58.4209394  71.0520697  48.2321453
  58.4870720  70.4327726  47.4370337  58.5435629  70.4388428  49.5583963
  57.5949383  70.6817722  50.0371408  58.6919069  68.9092636  49.4505596
  59.6910810  68.6052561  49.1385841  58.6398792  68.4790421  50.4507160
  57.6368141  68.2527685  48.7145615  56.3765001  68.0438375  49.2320871
  56.0959291  68.3824539  50.2185059  55.3870583  67.6000166  48.3830357
  54.3520641  67.7063370  48.6726618  55.6338406  67.1515989  47.0651150
  54.7261858  66.7554569  46.1659956  55.0544882  66.5478420  45.2880859
  56.9658852  67.1447420  46.6531944  57.2213840  66.7521763  45.6800461
  57.9381847  67.7868986  47.4576330  58.8975096  67.8900003  46.9723845
  59.6435499  71.0314751  50.4344320  59.3840694  71.4741659  51.5529966
  60.8662462  71.1005878  49.8694134  61.0710239  70.6290436  49.0000391
  62.0793915  71.5493536  50.6221628  62.1397400  70.9081650  51.5015602
  63.3740807  71.3707876  49.7809172  63.2465219  70.5533552  49.0712500
  63.4368896  72.2500658  49.1398048  64.7196436  71.2969303  50.6976318
  65.5491066  71.3658524  49.9938297  64.7518110  72.1718788  51.3468933
  64.9648714  69.9659634  51.4322376  64.0906477  69.6976757  52.0254087
  65.1325512  69.2054415  50.6696177  66.1952305  70.1909208  52.3388243
  67.0156145  70.4668903  51.6763210  65.9745789  70.9587526  53.0803394
  66.6822290  68.9444113  52.9358435  66.8853760  68.2725286  52.2096109
  67.4638891  69.0952873  53.5574102  65.9976768  68.5009098  53.5314894
  61.9650650  72.9677248  51.1748219  62.2735357  73.1932306  52.3023653
  61.2389755  73.8109827  50.4105663  61.0796309  73.5297537  49.4536829
  60.9231567  75.2027035  50.8085442  61.8769598  75.5856276  51.1714840
  60.4896879  75.9420252  49.5332909  59.9179983  75.2588224  48.9051914
  59.6408081  77.1650505  49.8846245  58.6741257  76.8060350  50.2377987
  60.1653337  77.8843594  50.5135679  59.3971968  77.5276136  48.8859701
  61.6882610  76.3827801  48.7225914  62.0652246  77.2866106  49.2012310
  62.4898291  75.6444979  48.6996841  61.3171530  76.8386889  47.2995520
  62.2767878  76.8603420  46.7830849  60.4960203  76.3048315  46.8211842
  61.0125828  77.8850079  47.3230457  59.8931408  75.2338219  51.9497252
  59.7929430  76.0546303  52.8544855  58.8297462  74.4340515  51.8349695
  58.8049650  73.8848400  50.9877110  57.5421953  74.4416189  52.6185846
  57.4987602  75.4254007  53.0858994  56.4000511  74.1595078  51.5826368
  56.4382029  73.1682873  51.1308289  55.4622507  74.1729021  52.1380186
  56.1681509  75.1475430  50.4203606  57.0840502  75.2876377  49.8462391
  55.1849174  74.6735477  49.3479824  55.1857948  75.3645325  48.5049868
  55.6185579  73.7694883  48.9204979  54.1961050  74.3538904  49.6768856
  55.7720661  76.5574455  50.8176804  55.7606602  77.1565914  49.9071884
  54.8528528  76.5028143  51.4009190  56.5024805  76.9721317  51.5123987
  57.3854017  73.5182238  53.8025188  56.4866495  73.7857723  54.6135855
  58.1611109  72.4970007  54.0008450  58.7590265  72.3224926  53.2057714
  58.1112003  71.4681339  55.1024389  57.0838976  71.1040354  55.0888062
  59.1051960  70.3543663  54.7265244  59.0290785  69.5359945  55.4424620
  58.8306713  69.9947500  53.7348509  60.5703306  70.8380651  54.6778440
  60.6575918  71.6578007  53.9647436  60.8473682  71.3255978  55.6125450
  61.4906979  69.6197939  54.3339348  61.1221838  68.4497166  54.0815878
  62.7446890  69.7796774  54.3888378  63.3153725  68.9561844  54.2612553
  63.1623459  70.6840944  54.5552588  58.2902765  71.9885683  56.5021276
  58.7325859  73.1086445  56.7370605  57.9488182  71.1815071  57.4768734
  57.5001955  70.2953100  57.2938538  57.8961658  71.6332388  58.8534498
  58.0028200  70.6801319  59.3714333  58.7397623  72.2852612  59.0800047
  56.6058636  72.3749208  59.1726446  56.3934278  72.5741863  60.3690434
  55.8403111  73.0137062  58.2653761  56.1394596  73.0171347  57.3007011
  54.4669342  73.5028505  58.5048485  54.2616224  73.8333225  59.5230484
  54.3077469  74.3902779  57.8922844  53.3937979  72.4178410  58.3564949
  53.6699963  71.2264681  58.1511068  52.1470070  72.8101540  58.4761143
  52.0277357  73.7641907  58.7854528  50.9522200  71.9736290  58.2472754
  51.0158825  71.1174250  58.9188099  49.7383928  72.7865648  58.7421894
  49.9043989  73.7710953  58.3048820  48.3138895  72.4380970  58.2882166
  48.0433178  71.4241266  58.5827494  47.7005720  73.1504726  58.8400030
  48.2457972  72.5007296  57.2021484  49.8778391  72.8852510  60.2799034
  49.5631695  71.9119692  60.6564665  50.8731318  73.0856133  60.6765795
  49.1418266  73.5991812  60.6496191  50.8332539  71.4918852  56.8378925
  50.9808874  72.2294807  55.8731985  50.4149485  70.2359915  56.7455769
  50.2226591  69.7826052  57.6273727  49.6553230  69.7733164  55.5711699
  49.1962576  68.8009644  55.7497454  48.8983536  70.5178356  55.3246212
  50.5776167  69.6422768  54.2532969  50.0355482  69.7830629  53.1381321
  51.8678284  69.2989063  54.3792105  52.2039413  69.1508341  55.3200626
  52.8145552  69.0771866  53.3220625  52.3174238  68.6845922  52.4350309
  53.4437466  70.4809237  53.1036329  53.6772442  70.9031725  54.0810156
  54.8116732  70.2741098  52.3880577  54.7326136  69.6964169  51.4671183
  55.2729988  71.2395811  52.1803379  55.5187225  69.8546314  53.1037474
  52.6219749  71.5403175  52.3431921  51.7477560  71.7259741  52.9671907
  53.1519985  72.4837875  52.2126532  52.0179510  71.1474466  50.9770536
  51.3027573  71.8890524  50.6212282  52.6941442  70.9933519  50.1361465
  51.3782835  70.2711058  51.0817194  53.8651419  68.0492592  53.8963985
  54.3506145  68.1302357  55.0734520  54.1257429  66.9858074  53.1004620
  53.5517168  66.7225409  51.8020105  53.7606144  67.5757265  51.1566210
  52.4720287  66.5786505  51.8429136  54.2407513  65.4817390  51.1767721
  55.0318623  65.8278036  50.5115795  53.5530663  64.8518038  50.6125355
  54.8056936  64.7788620  52.3930120  55.7228136  64.2180300  52.2128582
  53.9923954  64.1693926  52.7869606  55.0114298  65.8771944  53.4132481
  54.7563887  65.4104090  54.3646479  56.4666700  66.3957071  53.4474421
  56.7853022  67.2355938  52.5964451  57.2942638  65.9219265  54.3851805
  56.9099665  65.4213190  55.1737261  58.6787319  66.2827539  54.6402168
  58.8906860  67.3089695  54.3401146  58.9316750  66.1478710  56.1917782
  58.2935715  66.8345356  56.7480278  58.6373949  65.1273966  56.4369869
  60.3125143  66.1828136  56.6273355  61.3394785  65.1737928  56.4998960
  62.4950027  65.6701565  56.8576527  63.4321356  65.1342440  56.8889427
  62.2546577  66.9296312  57.3446465  62.9100847  67.6093769  57.7030659
  60.9481430  67.2168493  57.2198486  60.5052423  68.1898451  57.3732519
  59.6979952  65.3234959  53.8830137  59.5004034  64.0949440  53.9291668
  60.8366013  65.7906103  53.3607578  60.9738111  66.7872620  53.4499931
  61.7861748  65.0189495  52.5403214  61.2000990  64.2193556  52.0872498
  62.5110769  65.8646107  51.4502239  63.1187534  66.6461849  51.9062614
  63.4978533  64.9379492  50.6919575  63.9960861  65.5633736  49.9512053
  64.2430735  64.4127464  51.2893724  62.9014349  64.1640615  50.2087545
  61.4774752  66.4201832  50.4026747  61.2152624  67.4161100  50.7597113
  61.9741297  66.5733814  49.4445705  60.1266670  65.7328129  50.0624418
  59.6252298  66.2567902  49.2487431  60.4147196  64.7476959  49.6954536
  59.4931078  65.5448961  50.9292698  62.7616978  64.3716335  53.4970379
  63.5786772  65.0325298  54.1118908  62.7925491  63.0435514  53.4558392
  62.1967173  62.6221848  52.7575970  63.9218187  62.2563601  54.0596819
  64.1574764  62.8299856  54.9560738  63.5274363  60.9019423  54.5310211
  63.3388424  60.3861284  53.5894966  64.3562222  60.4999113  55.1137590
  62.2424173  60.8270693  55.3889322  61.3878059  61.1992311  54.8239279
  62.1003437  59.7696304  55.6119537  62.4509621  61.5317011  56.7368031
  63.3880568  61.0232735  56.9636536  62.5725937  62.6134682  56.6812849
  61.3275242  61.1264801  57.5740385  61.3135958  60.2748728  58.1168795
  60.1439476  61.6478968  57.4725437  59.8347378  62.8151083  56.9877005
  60.6252193  63.3868027  56.7261505  58.8990116  63.1632328  57.1404457
  59.1895771  60.9342957  57.8000069  59.2472124  60.0927067  58.3554363
  58.3214617  61.3950157  57.5671625  65.2447748  62.0785856  53.2586050
  66.3138962  62.2751474  53.8216352  65.1900148  61.7865181  51.9864988
  64.2904568  61.6713905  51.5419245  66.3141727  61.3723803  51.1427498
  67.1793747  61.9799042  51.4081621  66.6150808  59.8459339  51.4481497
  66.6881752  59.6958685  52.5252962  65.8039284  59.2665243  51.0072184
  67.9144096  59.3151236  50.9377766  69.0457916  59.1986847  51.6931677
  69.0654850  59.4440317  52.7447462  70.0086546  58.6900139  50.8887196
  70.8891392  58.3964825  51.2870741  69.5527840  58.3349943  49.5727348
  70.1067400  57.7166271  48.4618378  71.1417389  57.4094105  48.4336185
  69.3245840  57.5142860  47.2752714  69.7245598  56.8328524  46.5390205
  67.9370213  57.9161835  47.3057556  67.2945690  57.5213671  46.5325928
  67.3714066  58.4999990  48.4730768  66.3349152  58.7770844  48.5967970
  68.1811953  58.7410116  49.6076202  65.9480190  61.4693165  49.6470118
  64.7873974  61.5066099  49.2633152  67.0114851  61.6165590  48.7766600
  67.9413509  61.6388035  49.1702938  66.9454956  61.9152689  47.3364401
  66.1080742  61.3533592  46.9228220  66.6098547  63.4893894  47.2382784
  65.5592489  63.6401081  47.4865007  67.1817255  63.9467335  48.0456781
  66.7372990  64.0911102  45.8258677  65.6071329  64.0831995  45.0260878
  64.6700382  63.7357903  45.4354286  65.6815100  64.5618057  43.6807728
  64.8243332  64.5587301  43.0237770  66.8776321  65.0777769  43.1875277
  66.9804573  65.5498743  41.9196367  66.4550495  65.0057888  41.3284302
  68.0514145  64.9624825  43.9421558  68.9348221  65.3357792  43.4455252
  68.0048466  64.5645571  45.2960205  68.8704681  64.6753311  45.9322882
  68.2858038  61.5220785  46.6652584  69.3503237  61.4543104  47.2757435
  68.1069994  61.0040808  45.4461479  67.1451139  61.0014725  45.1381350
  69.1660166  60.3298092  44.6999264  69.9586010  60.9485006  44.2790508
  69.7088337  59.7095871  45.4132080  68.5419941  59.4654512  43.6136436
  67.5540113  59.7680616  43.0149555  69.0104914  58.2760096  43.4970903
  69.8109961  58.0267954  44.0602827  68.6161232  57.3114491  42.4764919
  67.5925970  57.4222183  42.1184063  69.6477270  57.4293137  41.3479853
  70.6377745  57.4404478  41.8038177  69.5753908  56.6159534  40.6259680
  69.6246099  58.7072945  40.5900335  68.6108446  59.0180779  40.3374481
  70.0915575  59.5325327  41.1276531  70.4661369  58.4999371  39.3257904
  71.4720774  57.8113651  39.2086506  70.0473833  59.0887690  38.2395363
  70.5685520  58.9191914  37.3911667  69.2230034  59.6632051  38.3420897
  68.7068892  55.8653927  42.9476833  69.3296766  55.5780315  44.0036535
  68.1351614  54.9638271  42.1390104  67.7179480  55.3323174  41.2962532
  68.1091976  53.4968281  42.3776770  69.0562344  53.1948423  42.8249168
  67.0533943  53.0695009  43.4076691  67.0077133  53.7393713  44.2663240
  66.0729313  53.0869579  42.9317665  67.2282171  51.6099119  43.9215279
  66.4812756  51.4492798  44.6989489  67.1654367  50.9813070  43.0332613
  68.6106062  51.2732315  44.4644308  69.4466782  50.6653357  43.7469959
  68.9145708  51.7461586  45.5741596  67.9115915  52.7192736  41.0852051
  66.9362068  52.9399729  40.3977823  68.9614773  51.9266081  40.7525826
  69.6877861  51.8352985  41.4484501  68.9071941  50.9381866  39.6118975
  69.8500919  50.3934574  39.5637059  67.7501011  49.9704170  39.9300957
  67.8481913  49.5837831  40.9444857  66.8003654  50.5041218  39.8945880
  67.7145290  48.7287760  38.9599681  66.8852568  48.0704260  39.2187834
  67.5843191  49.1550684  37.9652715  69.0481901  47.9390240  38.8584614
  69.5320559  48.2842684  37.9447937  69.6542120  48.2082510  39.7235370
  68.6491823  46.4924049  38.7777472  68.3021641  46.1264610  39.7440624
  67.8974247  46.3316917  38.0050015  69.8649693  45.7080412  38.4670377
  69.6276140  44.7281504  38.5268545  70.2386713  45.8070087  37.5339508
  70.5998802  45.8272409  39.1495347  68.7154675  51.5688419  38.2250714
  69.6883011  51.6079855  37.5252509  67.5853634  52.1698523  37.9178858
  66.8644571  52.1284580  38.6240602  67.2600317  52.6941395  36.6037798
  68.1538820  53.1252289  36.1528969  66.8642998  51.5661287  35.7291126
  67.6782370  50.8632517  35.5514002  65.9519577  51.0950327  36.0948944
  66.5600824  51.9231558  34.2703772  67.2335386  52.8150463  33.6634707
  65.6001282  51.2818146  33.8242149  66.2102127  53.7809515  36.7134428
  65.2429056  54.0103722  35.9188771  66.1421919  54.3918896  37.8808355
  66.9608259  54.2768908  38.4611058  65.2163029  55.3776312  38.3506131
  64.5138836  55.7668114  37.6135612  64.2881727  54.7865057  39.4715357
  64.8269749  54.5715332  40.3943491  63.6100817  55.5711889  39.8070502
  63.4653902  53.5013914  39.0724397  62.3409319  53.6308098  38.2456684
  62.1701717  54.6185160  37.8435802  61.5244436  52.4448919  37.9222155
  60.7065201  52.4808598  37.2178626  61.8504572  51.2169790  38.4839344
  61.0054779  50.1980591  38.1870341  60.2032900  50.7030630  38.0351710
  62.9094982  51.0744143  39.3287539  63.0930948  50.1346159  39.8282337
  63.6147356  52.2399807  39.7225499  64.4222546  52.1481752  40.4338121
  65.9223938  56.5083027  39.1046929  66.9964170  56.2755013  39.6914887
  65.3130531  57.7125740  39.0374565  64.3771553  57.7576876  38.6604047
  65.5683851  58.8525343  39.8750710  66.5768194  58.8526821  40.2887774
  65.3427076  60.1105022  38.9677429  64.3119097  60.0538778  38.6179495
  65.5627489  60.9947252  39.5659351  66.2841511  60.1129723  37.7790332
  67.5065088  60.1086235  37.9461098  65.6497478  60.2572680  36.6343856
  66.2376404  60.2418852  35.8132601  64.6651745  60.4818344  36.6511822
  64.5853519  58.7464714  41.1052227  63.4407139  58.3567190  40.9033823
  64.9821901  58.9734650  42.3362303  65.9427977  59.2444944  42.4907541
  64.2722416  58.6246586  43.6044550  63.2744360  58.3043098  43.3046865
  64.9530220  57.3469877  44.2970562  66.0067272  57.5140429  44.5204353
  64.2094421  56.8472624  45.5733347  63.2009268  56.7918539  45.1635504
  64.6961975  55.9712934  46.0021257  64.2446518  57.7208376  46.2242746
  64.9015903  56.1432171  43.3688164  63.8569546  55.8335781  43.3378983
  65.2536726  56.2985659  42.3490047  65.3259325  55.2587318  43.8439178
  64.1231489  59.7037315  44.6943521  65.1711941  60.1367569  45.1778984
  62.8861427  60.0415993  45.1127529  62.1606493  59.5383167  44.6223736
  62.5376987  61.0636282  46.1695433  63.3900928  61.5861750  46.6036749
  61.6211033  62.2014761  45.5634403  62.2083139  62.7663040  44.8393822
  60.7295179  61.7473459  45.1310730  61.1819220  63.1766510  46.6335678
  60.6877565  62.7190495  47.4906063  62.3427343  64.0457821  47.0961189
  62.9966784  63.2986832  47.5458956  62.8065300  64.5553398  46.2515163
  62.0114422  64.7134638  47.8914499  60.1092863  64.0492487  46.0519791
  59.6646595  64.7246504  46.7828989  60.4690886  64.7413158  45.2906084
  59.3533945  63.3754587  45.6485796  61.7455530  60.3780842  47.3125982
  60.5974436  59.9836969  47.0948553  62.3033619  60.3207397  48.5284328
  63.2497549  60.6648016  48.6062956  61.7224455  59.7095585  49.7501612
  60.8323622  59.1433907  49.4757032  62.8196526  58.8870001  50.4916954
  63.6869526  59.5173931  50.6878805  62.1061182  58.1488800  51.6769886
  61.1642075  57.6986742  51.3635778  62.6873779  57.4145842  52.2347069
  61.7361403  58.7957907  52.4724293  63.4537363  57.7572489  49.7081232
  62.6852369  57.0044231  49.5327520  63.7694120  58.0825758  48.7168550
  64.2775345  57.2480059  50.2082443  61.1941957  60.8288145  50.6701517
  61.9697094  61.6447830  51.0810280  59.8649216  60.8201647  50.9434938
  59.3020678  60.0848961  50.5401564  59.1723871  61.6824961  51.9376564
  59.9340582  62.1112204  52.5889254  58.4400082  62.7969265  51.1470985
  57.9806089  63.3928299  51.9357347  59.2054367  63.3728981  50.6270266
  57.5100327  62.1144152  50.1424074  58.0320168  61.7595768  49.2537451
  57.1181774  61.2486649  50.6762981  56.0853291  63.0937386  49.6042252
  57.1049833  64.5460510  49.0464401  56.4433432  65.2566671  48.5511017
  57.3518085  64.9310923  50.0358438  57.9791260  64.2830849  48.4507656
  58.2559967  60.9063101  52.8609180  58.1120586  59.6736574  52.6724243
  57.7510929  61.5897846  53.8801241  58.1908894  62.4808884  54.0607071
  56.5187454  61.1660480  54.6452379  56.9091749  60.6953335  55.5475140
  55.7355642  62.3638725  55.1688957  55.5500078  62.9607439  54.2759180
  54.7524500  62.0361614  55.5068207  56.2977457  63.2279396  56.2834311
  56.0730028  64.4275379  56.4369869  57.1654320  62.6510668  57.0232439
  55.5554771  60.2538967  53.8125706  55.0578690  60.6033611  52.7486992
  55.1425934  59.0724754  54.3503189  55.4389429  58.7377214  55.2559757
  53.9257526  58.3972549  53.8825226  53.9713144  58.0831623  52.8397512
  53.5818624  57.0739031  54.6856642  54.4938517  56.5220261  54.4580603
  53.6484957  57.3191166  55.7456350  52.3725986  56.2388182  54.3648577
  51.4623308  56.8286896  54.4724417  52.3731279  55.8103418  52.9425859
  53.3107471  55.2992964  52.7239370  51.5750408  55.1054287  52.7096510
  52.1608257  56.6363096  52.2637606  52.2338676  55.0159454  55.2467585
  51.6338587  54.2469311  54.7602320  53.2457542  54.6167803  55.3164291
  51.8914175  55.3601599  56.2226391  52.6798964  59.3943644  54.1364717
  52.5873661  59.9057102  55.2406025  51.7577076  59.4183159  53.1425238
  51.9586372  58.9192295  52.2877502  50.3835869  59.9823189  53.2459545
  50.1098537  60.1371717  54.2895985  50.2837324  61.3044024  52.4712086
  50.6725264  61.0936308  51.4749575  49.2223883  61.4879942  52.3040533
  50.9082699  62.5494099  52.9882574  51.9390106  62.2192717  53.1174088
  51.0041761  63.7948322  51.9512939  51.4627981  63.4190273  51.0366678
  50.0111723  64.1674471  51.6998768  51.6267920  64.5747042  52.3897600
  50.2443600  63.0059147  54.2727375  50.3243446  62.2137737  55.0171947
  50.8085489  63.8749790  54.6111488  49.2060375  63.2263899  54.0250015
  49.2815971  59.0248871  52.8153038  49.5285082  57.9591608  52.2771215
  48.0277061  59.3705559  53.1630754  47.9274368  60.1876640  53.7482071
  46.8512440  58.5726690  52.7994394  47.1257973  57.5196791  52.8621674
  45.9744263  58.8488960  53.3850908  46.4434481  58.6930370  51.2986422
  47.2480106  59.2564344  50.4871225  45.3738117  58.0623388  50.8193398
  44.6014881  57.1145058  51.6667891  44.4191217  57.5419617  52.6527548
  45.1131630  56.1520720  51.6702795  43.3094883  56.9696522  50.8682871
  42.7240562  57.8599739  51.0978651  42.8928995  55.9828377  51.0701513
  43.6423349  57.1238613  49.4441414  42.7426386  57.4309254  48.9108896
  44.0449190  56.1900282  49.0517378  44.7516298  58.1672525  49.5117569
  45.4601526  57.7748156  48.7823153  44.2124796  59.5725632  49.2100573
  43.8702869  60.3075504  50.0821304  44.2351151  59.8796654  47.9009628
  44.4164133  59.1306400  47.2481251  43.6879444  61.1053705  47.2840977
  44.2367983  61.9397879  47.7206898  44.2260027  61.0110760  45.8269691
  43.8200903  61.8315506  45.2352285  45.2894592  61.1753941  45.6533194
  43.8534307  59.8562956  45.1248693  44.3441105  59.7753572  44.3037224
  42.1705389  61.2004185  47.4132824  41.5323639  60.1559401  47.5169277
  41.6545820  62.3954916  47.1326113  42.2753048  63.1891394  47.2027445
  40.2651072  62.7113724  46.8626404  39.6897125  62.2842836  47.6839924
  39.8841429  64.1906404  46.9226074  40.4338360  64.7746754  46.1844778
  38.8066888  64.3250322  46.8270445  40.2121305  64.9009466  48.2307625
  41.2879276  65.0300026  48.3495378  39.6779108  66.3165236  48.2777834
  38.6046314  66.3281822  48.0879545  39.8842120  66.6618776  49.2908382
  40.2837086  66.7823601  47.5005436  39.6204710  64.2030001  49.4877291
  40.0618029  63.2079601  49.5444679  39.8726368  64.8212719  50.3492785
  38.5364652  64.1026258  49.4333601  39.8545456  61.9903278  45.6132460
  38.6792111  61.6126490  45.4446793  40.6874180  61.7762661  44.6760368
  41.5975428  62.2089386  44.7436237  40.3661442  61.0602808  43.4583092
  39.4415879  61.4736128  43.0552483  41.5304470  61.1159801  42.4163008
  41.4867878  62.1279526  42.0136786  42.5482273  60.9614468  42.7745485
  41.2503338  60.1563740  41.2187099  41.9367409  60.5254555  40.4566622
  41.6229820  59.1584778  41.4498949  39.8554397  60.1147318  40.6165695
  39.2311096  61.1578321  40.5218220  39.4979477  59.0144825  40.0725079
  40.0854445  59.5477724  43.8056564  39.1214824  58.9382839  43.2661629
  40.9039068  58.9725161  44.6915340  41.6297388  59.4837713  45.1730776
  40.7233524  57.5561142  45.0351906  40.4978848  57.0795774  44.0811586
  41.9788980  56.9696903  45.6422329  42.2637749  57.4541664  46.5761614
  41.7764997  55.9629345  46.0077190  43.0871296  56.7903852  44.6159744
  44.1912460  56.7269707  45.0953865  42.8757048  56.7691183  43.3965492
  39.5484567  57.2561264  45.9876251  38.9554143  56.1612368  45.8605099
  39.2337751  58.1743288  46.9142437  39.8343587  58.9848232  46.9641590
  38.1311631  58.0779171  47.7819300  38.0312061  57.0611143  48.1616974
  38.4007573  59.1011286  48.8991785  38.5724473  60.0879574  48.4693003
  37.5323510  59.2113018  49.5486641  39.6011353  58.7599802  49.8719549
  40.4537582  58.4805870  49.2530203  40.1407337  59.8934364  50.7161427
  40.7879782  60.4385376  50.0290966  39.3267703  60.5023956  51.1095095
  40.8634567  59.5791197  51.4691210  39.3729758  57.5200701  50.8280516
  38.4713531  57.7536964  51.3942719  39.2746210  56.5913677  50.2659702
  40.1305962  57.5948381  51.6081285  36.8241858  58.5029888  47.0560217
  35.7706594  58.0110312  47.4220943  36.8764591  59.4275475  46.1027098
  37.7720618  59.8832607  46.0011148  35.7760906  59.6610737  45.1720858
  34.9389958  59.8199129  45.8518982  36.0381508  60.9922409  44.4331455
  36.2441325  61.7457724  45.1933193  36.9076157  60.8734608  43.7865973
  34.8758769  61.4679289  43.5420084  33.7847733  62.0413780  44.1698408
  33.8556790  62.2128153  45.2337837  32.7207136  62.6365566  43.4468651
  32.0110416  63.2310295  44.0030766  32.6743317  62.5514507  42.0567799
  31.8600631  63.0393124  41.5416527  33.7608504  61.8981647  41.3578558
  33.8204432  61.8978310  40.2794981  34.8615479  61.3421488  42.0886707
  35.7921267  61.0242271  41.6421795  35.4035020  58.4724951  44.2875004
  34.2592335  58.0754137  44.2392826  36.3596320  57.7341795  43.6532736
  37.2572875  58.1876373  43.5600376  36.1153817  56.3857841  43.0298376
  35.3656435  56.4960098  42.2463560  37.4121332  55.9594488  42.4107742
  37.7016497  56.7789364  41.7529583  38.2698631  55.8216143  43.0691099
  37.2492075  54.6721745  41.5847874  36.5238619  54.6030521  40.5816364
  37.8745675  53.6138344  42.0066929  37.6502514  52.7390146  41.5545082
  38.1519675  53.5129261  42.9725933  35.5808520  55.3663111  44.0310574
  34.5973945  54.6772718  43.7057304  36.1998558  55.2401161  45.1805210
  37.1547174  55.5403280  45.3154707  35.7043672  54.3859959  46.3341999
  35.6253719  53.3848810  45.9103727  36.6298175  54.4285440  47.5339842
  37.6399493  54.3255854  47.1375799  36.6058993  55.4145145  47.9980850
  36.5372086  53.4625006  48.6035776  35.6370592  53.4277344  49.7073126
  34.9311686  54.2447615  49.7315121  35.8484030  52.5937653  50.8214188
  35.2249956  52.7112961  51.6954613  36.7909765  51.5493488  50.7452059
  36.9245601  50.8681202  51.5725422  37.4836469  51.3919067  49.5465422
  38.1141996  50.5243731  49.4193172  37.4319124  52.3115826  48.4823656
  38.1007934  52.1429920  47.6513529  34.3048406  54.6478415  46.7449951
  33.5388303  53.7727118  47.0073891  33.9419675  55.9533215  46.8322515
  34.5952821  56.7218685  46.8834305  32.5109577  56.3618517  46.9177151
  31.9880605  55.6065416  47.5043964  32.5031018  57.6903725  47.7237654
  32.9578853  58.4703970  47.1131659  31.4670610  57.9151201  47.9771614
  33.4731722  57.4728298  49.2940378  34.6457458  57.7854252  48.7352467
  31.7714524  56.3999987  45.6198215  30.8079147  57.1041584  45.4605818
  32.1717691  55.5441856  44.6768188  32.9972076  54.9885941  44.8502541
  31.4160490  55.2038717  43.4202385  32.0583820  54.4880009  42.9073668
  30.0733542  54.4690800  43.7868452  29.2597508  55.1186371  44.1096878
  29.5849848  54.0995932  42.8851366  30.0948095  53.4311819  44.7322130
  29.8241687  53.8682985  45.5429459  31.1912775  56.4484739  42.4917746
  30.1870728  56.5286636  41.8150663  32.1390843  57.4632978  42.6062012
  32.9539180  57.1830416  43.1330824  32.1072531  58.8147974  41.9498587
  33.0769372  59.2374802  42.2128487  32.1557736  58.5761309  40.4308224
  31.3489747  57.9350615  40.0755692  32.1932220  59.5457506  39.9343038
  33.4139276  57.7979374  39.9031758  34.0981102  57.9450226  40.7388544
  33.1251216  56.7468977  39.9009895  34.0578628  58.3497143  38.6130166
  33.3868361  58.0333757  37.8144217  34.0299249  59.4372272  38.5448813
  35.3581786  57.7344227  38.3587050  35.3831482  57.1080589  37.5667787
  36.5170693  57.9665756  38.9365482  36.6289616  58.6915159  40.0216913
  35.8744264  59.3368816  40.2068520  37.5581098  58.8234234  40.3950310
  37.6077485  57.4239588  38.5145974  37.6415467  56.8730068  37.6687789
  38.3984280  57.7265310  39.0653920  31.0278654  59.7817039  42.3882532
  30.6119323  60.6871986  41.6615486  30.6276035  59.7511339  43.6637926
  31.1595178  59.0780783  44.1968632  29.7201252  60.7040071  44.3395996
  29.7858834  61.6267967  43.7632084  28.3184123  60.2115297  44.3274355
  28.1906676  59.5488691  45.1833916  27.6851416  61.0516882  44.6124125
  27.8899384  59.5495272  43.0495882  28.3016419  60.0677490  42.1835375
  28.3089209  58.5447836  43.1048870  26.3639045  59.5140457  43.1124687
  26.0607171  59.1591263  44.0974569  26.0044074  60.5084419  42.8478193
  25.8104467  58.5384035  42.0510864  25.7239246  58.9022589  41.1128807
  25.6439352  57.2285557  42.2242928  25.8383393  56.5874338  43.3187103
  26.4893484  56.9396496  44.0058994  25.6773067  55.5914974  43.2708693
  25.1244307  56.4604425  41.2925196  24.8617506  56.9061852  40.4251003
  24.8421669  55.5010939  41.4342165  30.1654601  61.0869789  45.7579851
  30.6334996  60.1782990  46.4273596  29.8887801  62.3006439  46.2617540
  29.3297219  62.9233646  45.6962681  30.2913785  62.7988338  47.5357819
  30.4078126  62.0039463  48.2724619  31.5839934  63.6112309  47.3888683
  31.6438437  63.9434004  46.3524485  31.5068793  64.5326233  47.9660988
  32.9272771  62.9264545  47.6692438  33.0083609  61.6267014  48.1820440
  32.1411848  60.9877729  48.2606220  34.2795920  61.0784721  48.5092878
  34.3184257  60.0442171  48.8178539  35.3839135  61.9453287  48.4664726
  36.3678074  61.5328026  48.6343241  35.3256392  63.2801962  47.9900408
  36.2165070  63.8575697  47.7915812  34.1026902  63.7611723  47.5331640
  34.0189314  64.7677803  47.1508932  29.1375113  63.6440897  47.9784155
  28.7916613  64.5881414  47.2428179  28.6141729  63.4723139  49.2287302
  28.9346266  62.6598263  49.7359514  27.6300693  64.3748188  49.8217773
  26.7238498  64.2862558  49.2225838  27.3325253  64.0201139  51.3052368
  26.5949440  64.7447252  51.6502333  26.6610861  62.6454782  51.5512896
  27.4171591  61.8624592  51.6090345  26.0983348  62.7555370  52.4782753
  25.9746814  62.5286770  50.7126522  28.5161996  64.1847467  52.0684481
  29.0600657  63.4493351  51.7769337  28.0038691  65.8362961  49.8101377
  29.2105460  66.1971283  49.9845934  26.9777226  66.6854239  49.7437525
  26.0498047  66.2959290  49.6579075  27.0875859  68.1404209  49.9691916
  27.6982069  68.4998131  49.1408873  25.7223749  68.7695885  49.8342752
  25.3398561  68.6103201  48.8260984  25.0431132  68.2446337  50.5059290
  25.7077527  70.2363539  50.1683903  24.6707368  70.5660057  50.1049280
  25.9345126  70.4464054  51.2136459  26.6664982  71.2818623  49.0257311
  26.1736178  70.9185505  47.2751427  26.1085868  69.8369980  47.1563005
  25.1700258  71.2616825  47.0238113  26.9146109  71.4172792  46.6504049
  27.8358293  68.4884882  51.3001299  28.6191392  69.4137001  51.4402962
  27.6792336  67.7298069  52.3754072  27.1520472  66.8748045  52.2697878
  28.4389997  67.9064226  53.6137867  28.2549477  68.9399719  53.9070368
  27.8834343  66.8712759  54.6642542  26.8244267  67.0769215  54.8201799
  27.9869914  65.8895636  54.2020702  28.5891581  66.9542933  56.0238409
  29.6736550  66.8806362  55.9429836  28.3495116  67.8834486  56.5408945
  28.2551646  65.8202362  56.9881773  27.3066616  66.0511160  57.4730873
  28.1681323  64.8466921  56.5057421  29.2400861  65.7533073  58.1738472
  30.0953674  65.1759577  57.8227520  29.5130324  66.7541838  58.5082912
  28.6473203  65.0766325  59.3541813  27.9393363  65.5999374  59.8491669
  28.2002640  64.1973543  59.1371393  29.2929459  64.8832846  60.1064348
  29.8950887  67.7416372  53.3359528  30.6194234  68.6793375  53.5275030
  30.3193545  66.6495132  52.6447916  29.6089196  65.9852982  52.3723888
  31.6756415  66.3738680  52.2785378  32.2269464  66.3582611  53.2187128
  31.6699433  64.9406624  51.6392279  30.7812905  64.8062277  51.0225248
  32.9166579  64.2840433  50.9375715  32.9212022  64.7914505  49.9728823
  33.8555622  64.5537663  51.4211130  32.7977419  63.2161427  50.7544231
  31.4709377  64.1133881  52.7527523  31.1978626  63.2879353  52.3457479
  32.4395752  67.3624277  51.4638805  33.3873224  67.8790092  51.9817257
  31.9884348  67.6326704  50.2513885  31.1004591  67.1989632  50.0428057
  32.4834967  68.7778664  49.3803549  33.4134102  68.5104942  48.8784838
  31.3798404  68.9770269  48.3474970  30.4092169  68.8516188  48.8273573
  31.2951541  70.3826475  47.6520681  32.2664905  70.7935762  47.3768520
  30.7241249  70.2610254  46.7316151  30.7806540  71.1370230  48.2473087
  31.6969061  67.9407024  47.2264671  31.5778303  66.9240904  47.6011944
  30.9901214  68.0316687  46.4016771  32.6652431  68.2066059  46.8025351
  32.7083588  70.1274490  50.1057577  33.7593341  70.6927347  50.0081921
  31.7423439  70.6119490  50.9284830  30.8897614  70.0931358  51.0835218
  31.9599581  71.8635511  51.7968607  32.4545455  72.5873566  51.1491013
  30.5896759  72.3527908  52.3031425  30.2449179  71.4573240  52.8202391
  30.7829881  73.1916523  52.9717541  29.4022989  72.8189278  51.3415956
  29.0861511  72.0273113  50.6622553  28.0671597  73.0985069  52.1172810
  28.2753253  73.8668013  52.8619242  27.3852444  73.4166241  51.3286781
  27.6879859  72.2221565  52.6429605  29.7995162  73.9966679  50.5400944
  29.1327977  74.1360855  49.6891212  29.7740865  74.9468517  51.0735750
  30.7798028  73.7953234  50.1081228  32.9564071  71.5648603  52.9408503
  33.8130665  72.4253035  53.2736349  32.8307796  70.5174828  53.6755562
  32.0367837  69.9027061  53.5672569  33.6751175  70.1561785  54.8622847
  33.6479783  71.0047436  55.5458832  33.1640053  68.9283752  55.5255318
  32.0851064  69.0170479  55.6528521  33.2978797  68.0180645  54.9411345
  33.8312554  68.6518526  56.9132996  34.8877597  68.4185600  56.7811155
  33.8399220  69.6371746  57.3793030  32.9402661  67.5186396  58.0393219
  32.7685165  66.0700941  57.0188570  31.9736052  65.4368782  57.4128771
  32.5494313  66.4005995  56.0035372  33.6943173  65.4949045  57.0068216
  35.0844169  69.9979401  54.3809605  36.0262966  70.2925205  55.1316309
  35.3328228  69.5509815  53.1180525  34.5223808  69.2816830  52.5788260
  36.5545964  69.6388626  52.3860884  37.3484921  69.3673372  53.0818653
  36.4381838  68.6740446  51.1538267  35.5481863  68.9263868  50.5773449
  37.2299623  68.8983583  50.4390717  36.4928770  67.1665525  51.5172100
  35.8735156  66.8727779  52.3646736  35.9315157  66.2558937  50.3314209
  36.6186929  66.2216711  49.4860077  36.0372615  65.2514935  50.7414341
  34.8929071  66.4381790  50.0554371  37.8816843  66.7190075  51.9470739
  38.1124616  67.3454618  52.8086948  38.0016255  65.6723452  52.2267485
  38.5571504  66.9742966  51.1305714  36.9408965  71.0563374  52.0069885
  38.0553365  71.4492321  52.3053980  36.0983038  71.9014168  51.4155149
  35.1849771  71.5210199  51.2124586  36.4632750  73.2387257  50.9578466
  37.1775508  73.1062317  50.1452255  35.1539302  73.9390373  50.5158377
  35.3626513  74.9617386  50.2018070  34.6505737  73.2701397  49.8177624
  34.5687509  74.0080452  51.4328480  37.2179341  74.1513348  52.0291758
  38.0644560  74.9232769  51.6060495  36.8138337  74.1694450  53.3175755
  35.9850144  73.6326742  53.5298109  37.5276327  75.0042248  54.3189669
  37.5684857  76.0543919  54.0298653  36.8508434  74.8664093  55.6594419
  35.7875371  74.7693872  55.4401875  37.2025824  74.1049194  56.3555145
  36.8916178  76.1374569  56.5212822  36.4827681  77.2607899  56.1562920
  37.4645495  75.9699631  57.5940228  38.9665484  74.6330738  54.3673897
  39.7847986  75.4943228  54.4831324  39.3222857  73.3249807  54.2634058
  38.6415362  72.7045202  53.8490200  40.6445646  72.7136374  54.2044640
  41.2711859  73.2299423  54.9317122  40.6228304  71.2056684  54.4950390
  40.3458595  70.5907917  53.6386967  41.6760254  70.9678316  54.6444464
  39.6767354  70.7770491  55.6876278  39.6588826  71.6010761  56.4009047
  38.7230659  70.5570412  55.2078247  40.2653980  69.6166849  56.4069271
  41.3337374  69.1160870  56.1554909  39.6421361  69.0969324  57.4176598
  40.1631403  68.3821821  57.9053068  38.7638664  69.5173788  57.6859236
  41.2817430  73.0418921  52.8638983  42.3684740  73.5687876  52.8022194
  40.6419277  72.6679754  51.7288589  39.7546673  72.1905231  51.7989540
  41.2349033  72.8301144  50.3600836  42.1585703  72.2748041  50.1970959
  40.2681875  72.4171591  49.2500162  39.3181109  72.9114056  49.4529343
  40.6216669  72.8043795  48.2943964  40.0792646  70.8694649  49.1476154
  41.0900259  70.4663658  49.0846109  39.5854020  70.3988028  49.9977207
  39.1183496  70.4248857  47.6314306  37.4799609  71.0201263  48.0558443
  37.1696424  70.6149912  49.0190029  37.6189661  72.1011543  48.0435514
  36.7589045  70.7229757  47.2943401  41.6816998  74.2406988  50.1372528
  42.8430557  74.5026779  49.7742271  40.8088779  75.2565002  50.4030466
  39.9213886  75.0251579  50.8260727  41.1687374  76.6908360  50.2103710
  41.6520786  76.7602730  49.2358637  39.9577951  77.6279640  50.2091980
  39.3461585  77.5111055  51.1038208  40.3974533  79.0780973  50.1408911
  40.9771681  79.2144012  49.2279577  39.4841099  79.6729994  50.1394033
  40.8512545  79.5338535  51.0209227  39.0466332  77.4186182  48.9966965
  39.4518018  77.8251457  48.0700493  38.9939761  76.3352823  48.8885069
  37.5536942  77.8388500  49.1221905  37.0043612  76.9672775  49.4781351
  37.2785378  78.6394835  49.8087549  37.1551514  78.0462265  48.1290817
  42.2747803  77.1209240  51.2146950  43.1790829  77.8491116  50.8695316
  42.3292637  76.5731096  52.4361038  41.5530396  75.9689903  52.6655054
  43.3965778  76.9146395  53.4154940  43.5506487  77.9918385  53.4788036
  43.0444622  76.4213610  54.8792505  43.0291939  75.3344727  54.9601412
  43.7992477  76.7135382  55.6093359  41.8129683  77.0655727  55.2426815
  41.1637640  76.4358664  54.9208117  44.7566366  76.3497257  52.9036474
  45.7651615  76.9837904  53.1749344  44.6868849  75.2355957  52.1561956
  43.7969589  74.7897339  51.9849157  45.9258032  74.8583651  51.3359165
  46.7418671  75.0012732  52.0442295  45.9682035  73.3666372  50.9048653
  45.2133656  73.2529068  50.1268005  46.9739580  73.1286478  50.5585718
  45.5524969  72.3081017  51.9219303  44.6176100  72.5608397  52.4221420
  45.3794956  71.3545990  51.4229298  46.7081070  72.2249794  52.9593706
  46.6138649  71.2310076  53.3966827  47.6921940  72.4332142  52.5394821
  46.4369202  73.1834745  53.9946461  46.9002867  74.0809107  53.9943075
  45.6089401  73.0474472  54.9873352  44.8735952  71.9650459  55.2265453
  45.0213385  71.2221622  54.5584154  44.4518518  71.8185711  56.1325121
  45.5464935  73.9870977  55.8916092  46.1183691  74.8159313  55.8135653
  44.8708916  73.8341761  56.6266489  46.2039137  75.8842754  50.1496983
  47.3867464  76.1799526  50.0193310  45.1759720  76.3939810  49.4574928
  44.1939402  76.2466812  49.6419287  45.4764986  77.3314047  48.2972479
  46.1352444  76.7238665  47.6767254  44.2706251  77.6193285  47.3576260
  43.5081530  78.1188154  47.9553318  44.7133780  78.5794973  46.1955023
  43.8613749  78.5780573  45.5156517  44.9282408  79.6017742  46.5067625
  45.5161810  78.1226969  45.6167650  43.6193609  76.4292669  46.6501188
  43.0889273  75.8461761  47.4029446  42.9369926  76.8317604  45.9014750
  44.5486498  75.3691673  46.0618973  43.9596653  74.6290064  45.5202675
  45.2590370  75.8532190  45.3917170  45.1294041  74.8363113  46.8148184
  46.1501169  78.5878706  48.8386297  47.2074461  78.9912891  48.3401251
  45.5316639  79.1289854  49.8645592  44.7059584  78.6505604  50.1953459
  46.0642385  80.3200531  50.6333065  46.1255217  81.1646366  49.9469948
  45.0436115  80.6235218  51.7378712  44.0590000  80.8322620  51.3194561
  45.0927925  79.8856068  52.5386000  45.5277061  81.9633961  52.3939466
  46.5077925  81.7124939  52.7996302  45.7368231  82.7331352  51.6510677
  44.5643473  82.4306297  53.4967518  44.6043634  83.6200428  53.6459637
  43.8055706  81.7092609  54.1651964  47.5553942  80.0913334  51.0718727
  48.4093904  80.9385109  50.9181547  47.8647137  78.9761019  51.7172527
  47.1787357  78.2349968  51.7346191  49.2519855  78.5208988  52.1171999
  49.6145344  79.2354965  52.8561258  49.2090750  77.1671438  52.9201126
  48.5230446  77.2498465  53.7630939  48.7679100  76.4415407  52.2367620
  50.5174780  76.6538858  53.4324884  51.0233068  77.3979950  54.5327759
  50.4173803  78.2332754  54.8514652  52.3312950  77.1590519  54.9645138
  52.7766418  77.7884531  55.7207727  53.0766726  76.0502338  54.5004272
  54.3426657  75.8023977  55.0084639  54.6782017  74.9048185  54.9504375
  52.5497627  75.3067923  53.4048748  53.1517029  74.5343351  52.9494905
  51.2487602  75.5735683  52.9364491  50.8360529  74.9688721  52.1424627
  50.2834892  78.6078548  51.0289717  51.4053249  79.1660166  51.1924982
  49.8669291  77.9748774  49.9241495  48.9258528  77.6081753  49.9212360
  50.6785774  77.9266357  48.7166691  51.6614389  77.5528717  49.0036917
  50.2650976  76.8672132  47.7482700  49.2353249  76.9898176  47.4126434
  51.1024332  76.8486500  46.5658760  52.1509266  76.6585827  46.7952871
  50.6704712  76.0547924  45.9565306  51.1440563  77.7376509  45.9365559
  50.3713799  75.4645491  48.4557009  50.0635386  74.6770716  47.7677965
  51.3331461  75.2956724  48.9400530  49.5734119  75.5042458  49.1971636
  50.8631372  79.3333387  48.1206608  51.9822502  79.7391367  47.8117228
  49.7937107  80.1058769  48.1421328  48.9757824  79.7837877  48.6394691
  49.7633934  81.4502335  47.6257277  50.2978182  81.4534283  46.6757393
  48.3177662  81.9912148  47.3584509  47.6819229  81.8273640  48.2284880
  48.3459234  83.0676174  47.1891403  47.6239538  81.3019848  46.2036800
  46.3597393  81.6314220  45.7390738  46.1470318  80.8525276  44.6483183
  45.2510977  80.7775879  44.0499163  47.1821594  79.9779797  44.4811344
  47.3500538  79.2623281  43.7884903  48.1114864  80.2453613  45.4556990
  49.0637732  79.7465324  45.5592632  50.5845451  82.4404049  48.4888744
  51.0660887  83.3952904  47.8763294  50.6815338  82.2413635  49.8090315
  50.0451040  81.6216373  50.2896643  51.3130569  83.2035446  50.7510853
  51.1854792  84.2734909  50.5866861  50.6783152  83.0667400  52.1914625
  51.3306904  83.6617088  52.8306198  49.3026114  83.6782646  52.2438478
  48.8653088  83.2309914  53.1364965  49.3694544  84.7581005  52.3764277
  48.7130976  83.3241844  51.3981533  50.6393957  81.7442036  52.6740932
  49.9026060  81.2961674  52.2521830  52.8161716  82.9852200  50.8098984
  53.5168219  83.9662743  51.0440350  53.2559681  81.7518902  50.5814886
  52.5998735  80.9861183  50.6383657  54.6190023  81.3777065  50.3818274
  55.1822710  82.0289135  51.0502291  54.8410225  79.8662758  50.7545614
  54.2193794  79.2200041  50.1348829  55.8829021  79.6819210  50.4926443
  54.5245695  79.6315861  52.2289705  53.7732315  80.3273773  52.6024246
  54.0839481  78.6577415  52.4424553  55.7792807  79.7383356  52.9851103
  56.5006447  78.9954853  52.6446581  56.3412428  80.6457615  52.7640104
  55.5281162  79.7015572  54.4644928  54.9458361  80.5799675  54.7427654
  54.8869896  78.8324928  54.6121120  56.8001127  79.5895052  55.2165985
  56.7168283  79.6249914  56.2225389  57.2030497  78.6704159  55.1025057
  57.4738550  80.2614307  54.8779345  55.1408529  81.6633511  48.9685488
  56.2945509  81.4255810  48.5872173  54.2959881  82.2463226  48.0898190
  53.4100914  82.5194073  48.4907246  54.4526434  82.8465939  46.7337322
  53.5954523  83.4994125  46.5689564  55.6614828  83.7963295  46.6239882
  56.5557718  83.3164501  47.0215511  55.9165764  84.1821671  45.6369972
  55.4836798  84.9976540  47.5297022  54.6780682  85.1755047  48.3967018
  56.1451435  86.0618687  47.2423458  56.0705185  86.8323898  47.8910542
  56.7640924  86.0714912  46.4442825  54.4247103  81.9491577  45.4762316
  54.8217440  82.3264599  44.3271065  53.8638973  80.7946301  45.6400156
  53.3864450  80.6745338  46.5219021  53.7743855  79.7933769  44.5149755
  54.4099951  80.1903629  43.7234545  54.3889427  78.4007406  44.7379541
  53.7312984  77.8532743  45.4131508  54.5361614  77.8971052  43.7825632
  55.7973576  78.5772514  45.2652121  55.8760071  78.6994505  46.6581726
  54.9948597  78.7937212  47.2755003  57.1389580  78.7679720  47.2395706
  57.2413731  78.9123344  48.3049679  58.3150387  78.8671350  46.5307140
  59.2499542  79.0949774  47.0210361  58.2264709  78.8024044  45.1402998
  59.1356993  79.0528107  44.6139860  56.9833708  78.7215757  44.4874430
  57.0251608  78.7617397  43.4089994  52.3114634  79.6485806  44.1778898
  51.4158058  80.0629711  44.8458004  52.1080351  79.0659809  43.0136490
  52.8435755  79.0776539  42.3215866  50.8640718  78.5164547  42.4967003
  50.3341627  78.2194757  43.4017420  50.1040792  79.4917154  41.5003681
  49.0606308  79.1816330  41.4440584  50.0437117  80.9253502  42.0129156
  51.0247040  81.3606548  41.8224669  49.3517208  81.5461445  41.4438248
  49.6742249  81.0115814  43.0347490  50.6028128  79.4650888  40.0799990
  51.5494680  80.0009823  40.0109577  50.8478928  78.4474611  39.7759128
  49.5961380  80.0006390  39.0901256  49.4927883  81.0818386  39.1819048
  49.8835135  79.9045801  38.0430865  48.6670876  79.5003653  39.3634295
  51.1284637  77.0953655  41.8975639  52.2301626  76.7580986  41.4441586
  50.1521111  76.2395811  41.7304993  49.2323446  76.5534210  42.0055246
  50.3393030  74.8100328  41.3572407  51.3633204  74.4444084  41.4334869
  49.5133829  73.9618683  42.2918320  49.7577429  74.1898394  43.3293343
  48.4324312  74.0463161  42.1799421  49.6462870  72.4644947  42.1423960
  49.5511532  71.7323017  40.9941006  49.6671915  70.4732656  41.3194323
  49.3815708  69.5963097  40.7574987  49.9489641  70.3865862  42.6263762
  50.1941109  69.5540047  43.1429100  50.0351000  71.6150713  43.1522655
  50.3971720  72.0287514  44.0818787  49.9977636  74.5642471  39.9039006
  50.7942295  73.7887907  39.3043423  48.9480209  75.1499271  39.3299890
  48.3699799  75.7165670  39.9340487  48.6113071  74.9550200  37.8759599
  47.7841711  75.6218386  37.6324415  49.7333860  75.1040077  36.7763567
  50.6154394  74.4690323  36.8593454  49.3827152  74.7943830  35.7918429
  50.1125813  76.5558958  36.6284776  49.2630911  77.2026300  36.4089322
  50.5910254  76.9114161  37.5410557  51.1258316  76.7398214  35.5844426
  50.9591007  76.0426188  34.7633410  50.9700155  77.7404499  35.1812530
  52.5452471  76.6251230  35.9423947  52.7961302  75.9308052  36.6316533
  53.5072613  76.9320679  35.0907445  53.4077787  77.6328135  33.9436722
  52.4953890  78.0109835  33.7324142  54.1781712  77.8819323  33.3399081
  54.7159910  76.5156603  35.3837752  54.8928022  75.8383942  36.1118889
  55.4398823  76.4493418  34.6825719  47.8951454  73.7122297  37.4844766
  46.8443298  73.7146711  36.8276811  48.4859896  72.5807238  37.9181266
  49.3922424  72.6202917  38.3622456  47.8759003  71.3310909  37.5503635
  47.2860003  71.4735031  36.6449165  48.9520741  70.3080463  37.2665501
  49.7274446  70.7720280  36.6569400  49.4086885  69.9890995  38.2035041
  48.4653521  69.0965414  36.5265179  47.5930357  69.3335152  35.6386614
  49.0862989  68.0716658  36.6186929  46.9551373  70.8687687  38.6631536
  47.0285559  69.7805882  39.1723013  46.0237885  71.7904091  39.0308142
  45.8837128  72.5906944  38.4307981  45.0434732  71.5098000  40.0476837
  45.4673815  71.0876131  40.9588146  44.3081045  72.8251886  40.3616142
  44.2481756  73.4181166  39.4489574  42.9005384  72.7138901  40.9693193
  42.2329283  72.2669458  40.2326822  42.8988600  71.9750452  41.7706966
  42.4819613  73.6221695  41.4028168  45.2333784  73.6502552  41.2211704
  46.1666822  73.6815310  40.6589746  44.7996759  74.6493292  41.1780739
  45.6977844  73.2195425  42.6603746  44.8570108  73.0914783  43.3421373
  46.1886835  72.2464800  42.6768827  46.4023590  73.9195442  43.1094599
  44.0711689  70.4352617  39.5267487  43.4170294  70.5435848  38.5108137
  43.8996696  69.3780375  40.2558851  44.5212364  69.3494320  41.0514593
  42.9625607  68.1348038  40.0347614  42.0371103  68.5486650  39.6342921
  43.6855125  67.3271894  38.8638234  43.0456591  66.5094233  38.5322452
  43.8904953  68.0265522  38.0532813  45.0364351  66.7327976  39.3449497
  45.6549835  67.4659538  39.8626184  44.8030758  65.8711004  39.9703383
  45.7649279  66.2936735  38.1110597  45.0913620  65.7777596  37.4267745
  45.9294939  67.2302246  37.5782442  47.0522356  65.5756903  38.3725953
  46.8348026  64.8992443  39.1991806  47.3746157  65.0011253  37.5042415
  48.1113911  66.4945793  38.8347197  48.3281374  67.2686005  38.2231545
  47.8704977  66.9606066  39.6977901  48.9871025  66.0144377  38.9853907
  42.7388954  67.3711824  41.2698650  43.5057068  67.5631428  42.1604156
  41.6382504  66.4810228  41.3946486  40.5758190  66.2471724  40.4343319
  40.8457088  65.4997444  39.6882701  40.3373194  67.1568584  39.8832417
  39.3810701  65.6458521  41.1678314  38.8436317  64.8691988  40.6237078
  38.7062860  66.4518356  41.4561987  40.0311422  64.9685955  42.4074411
  40.4348946  63.9945173  42.1313047  39.3590403  65.0187778  43.2640982
  41.2499380  65.8603096  42.6635218  40.9564447  66.6774797  43.3224630
  42.3736906  64.9725962  43.2901716  42.3354721  64.5771837  44.4171858
  43.3218765  64.4696522  42.4435616  43.1724596  64.7109699  41.4742613
  44.4508362  63.5951519  42.7197790  44.0785694  62.7687502  43.3252430
  45.0749969  63.1173420  41.3503170  45.4856157  64.0421295  40.9450197
  45.8372116  62.3776817  41.5953255  44.1306543  62.6703835  40.2321148
  44.2952967  61.5715551  39.6958184  43.3719444  63.4753561  39.6743894
  45.5388594  64.1803980  43.6609316  46.1435270  63.5099649  44.4392395
  45.7190466  65.4912806  43.5691833  45.3489065  65.8933878  42.7198267
  46.6399145  66.3461399  44.3596220  47.6355886  65.9135199  44.2617702
  46.7351484  67.8192186  43.8041449  45.7750225  68.3231115  43.9152908
  47.5599670  68.3770895  44.2474890  47.0662165  67.9247713  42.3325396
  47.4263239  67.0222378  41.6304445  46.8028402  69.1186666  41.8740797
  46.9777775  69.3353939  40.9032393  46.6755056  69.8566675  42.5517559
  46.4366579  66.3761139  45.8954334  47.3017168  66.7490196  46.6701412
  45.1983356  66.1334372  46.3765430  44.4785070  65.8953238  45.7092667
  44.6477509  66.3207436  47.7010155  45.4155540  66.8792582  48.2364035
  43.3017111  67.1348190  47.6450205  42.5485849  66.5391064  47.1292448
  42.9863596  67.2225952  48.6847067  43.3729553  68.5282183  47.0586252
  43.7206125  69.5983791  47.9619551  43.8675070  69.5592022  49.0312052
  43.7272024  70.8723974  47.3979568  44.1593838  71.6859388  47.9616690
  43.4793186  71.2097597  46.0416079  43.4840965  72.2138071  45.6437826
  43.2311010  70.0960016  45.2085447  43.0069447  70.3046083  44.1728640
  43.1978083  68.7920284  45.7124186  42.9554558  68.0492306  44.9668217
  44.4027758  65.0416183  48.4243345  43.5663652  64.2876434  47.9999447
  45.1884222  64.7668934  49.5097303  45.8932257  65.4888487  49.5558882
  45.4222727  63.4943199  50.2457094  44.7056484  62.8263760  49.7677946
  46.8621588  62.9963875  50.0962877  47.5674534  63.7596464  50.4250622
  47.1940041  62.2215128  50.7873392  47.2710609  62.3816347  48.6931276
  46.6277027  61.5152025  48.5398579  47.0392084  63.3599186  47.5470591
  47.5325394  62.8845787  46.6992474  45.9770107  63.3336020  47.3038721
  47.4273300  64.3478489  47.7949619  48.7858391  62.0045090  48.7028360
  49.0855551  61.6082573  49.6730232  49.0031624  61.2981462  47.9016352
  49.4260931  62.8787470  48.5850048  45.0400352  63.6030865  51.7155409
  45.3265381  64.6152401  52.3158312  44.3064785  62.6425171  52.2382593
  44.1842031  61.8687630  51.6007280  43.9688158  62.6076841  53.6555719
  43.6087036  63.5806894  53.9897585  42.7983665  61.6042995  53.8689661
  43.0210352  60.6336117  53.4259272  42.5697041  61.5576887  54.9336958
  41.5526199  62.0992804  53.1492376  41.7787218  62.1324062  52.0834589
  40.7527447  61.4017677  53.3977890  40.9651136  63.7720060  53.5293913
  40.8416367  63.8841152  55.3448391  40.5779076  64.9166679  55.5736971
  40.0261784  63.2225466  55.6371737  41.7771578  63.7208176  55.8798456
  45.1090908  62.1096468  54.5455599  45.7227993  61.0828876  54.2404652
  45.4284382  62.7911139  55.6513214  45.0337172  63.7177038  55.7269764
  46.3510370  62.4359179  56.7006302  47.3762846  62.6649332  56.4098978
  46.0785389  62.9613733  57.6159143  46.2177515  60.9422779  57.1784592
  45.1709652  60.2887917  56.9781494  47.2770739  60.5038786  57.8760481
  48.0252218  61.1670399  58.0195570  47.3771286  59.1419458  58.4505367
  46.3630152  58.8116121  58.6753798  48.0490255  58.2000446  57.3435020
  47.2410727  58.1141138  56.6169167  49.1804552  58.9242077  56.5358877
  49.8993015  59.4167519  57.1906805  49.7701025  58.2387686  55.9271193
  48.7565613  59.6317720  55.8233070  48.2699776  56.8886900  57.9802752
  48.8172531  57.1282148  58.8919878  47.3548460  56.3445759  58.2138729
  49.2317724  55.9878778  57.1940231  50.1175308  56.6076946  57.0548725
  49.5025635  55.0456858  57.6705170  48.8248444  55.8118343  56.1982727
  48.1958914  59.3224955  59.7343969  49.4034100  59.6136904  59.7849798
  47.5776052  59.0934610  60.8447170  46.5736341  58.9857054  60.8677053
  48.1564474  59.1069698  62.1487713  47.8852654  58.1789875  62.6521730
  49.2443943  59.1574621  62.1049166  47.5930357  60.2473307  63.0315971
  46.4161348  60.3549671  63.1960964  48.5284567  61.1033869  63.5575914
  49.5036411  61.0293150  63.3053446  48.1293440  62.3102999  64.2841816
  47.4041653  62.0373774  65.0508118  49.3261099  63.1501818  64.8924208
  49.7569847  62.4477625  65.6058979  50.0820589  63.3056688  64.1227007
  48.9819193  64.4663429  65.7325697  48.5859823  65.2675343  65.1085329
  48.3214664  64.2525625  66.5729237  50.3030539  65.0015259  66.2614965
  50.7694244  64.1948652  66.8270969  50.9391069  65.2825689  65.4221296
  49.9269390  66.1707640  67.0155954  49.4621706  66.9151449  66.5156031
  50.2953672  66.4828634  68.2736397  51.1612272  65.9008026  69.0118647
  51.8425798  65.2457094  68.6558962  51.3756609  66.3304996  69.9003935
  49.6895504  67.5469255  68.8912249  49.0080643  68.0812502  68.3714390
  49.8878527  67.7431107  69.8619413  47.2674513  63.2421780  63.4830141
  46.6005945  64.0196848  64.1299152  47.2834730  63.2901764  62.1736813
  48.0512238  62.7266121  61.8374348  46.5617895  64.2960596  61.4175129
  46.0483789  64.9676895  62.1055698  47.6348209  65.1861238  60.6835604
  48.1674719  64.6345949  59.9088335  47.1353531  66.0174942  60.1861143
  48.7448263  65.6826305  61.5842104  48.5456753  66.6069508  62.6382542
  49.7536993  66.6926193  63.1876707  49.9754810  67.3129272  64.0434885
  50.6762695  66.0582018  62.5108814  51.6537523  65.9655237  62.7476072
  50.0438309  65.4397392  61.4590883  50.5270195  64.7997999  60.7356215
  45.4203367  63.7391758  60.4978037  45.2783203  64.3135881  59.3799353
  44.7075701  62.6455355  60.9354401  44.8860693  62.2569132  61.8504381
  43.7433910  62.0533419  60.0071812  44.2503405  61.6805172  59.1171789
  43.1199121  60.7858086  60.6122208  42.7498770  60.9802055  61.6188908
  42.2783232  60.4042196  60.0341082  44.3045521  59.4127750  60.9673738
  43.4055710  58.4266376  60.9021187  42.6650810  62.9582596  59.4601202
  42.2217607  62.7349997  58.3603430  42.3286343  64.0190315  60.2065039
  42.8486729  64.2347383  61.0450363  41.2647629  65.0221777  59.9301910
  40.5157852  64.4765377  59.3562460  40.6239176  65.3508329  61.2977934
  41.2470770  65.9003973  62.0033073  39.7442675  65.9537888  61.0725069
  40.0830936  64.1549158  62.0753717  40.0684023  63.0041695  61.6009998
  39.5951033  64.3190432  63.2916594  39.0546703  63.5218430  63.5958099
  39.4881630  65.2292156  63.7162161  41.7425346  66.2625647  59.1568422
  40.9786034  67.2048235  58.9442778  42.9488325  66.1452341  58.5613585
  43.4860325  65.3287029  58.8159037  43.6280727  67.2197914  57.8351355
  42.8554869  67.9755640  57.6936245  44.7802877  67.7653503  58.6143684
  45.3921127  66.9181252  58.9241791  45.4775906  68.2480097  57.9295921
  44.4828987  68.5451365  59.9139690  43.9149284  69.4314051  59.6310568
  43.8135433  67.8898335  60.4713154  45.6939363  68.9141893  60.8364439
  46.1484289  67.9601717  61.1036348  46.4228344  69.5644236  60.3526926
  45.1476192  69.7791576  62.0167732  44.6240807  70.6226063  61.5666676
  44.3487644  69.2883587  62.5726938  46.1565256  70.1946259  63.0573750
  46.3957834  69.5042658  63.7546968  47.0663738  70.4204035  62.6814747
  45.8862686  70.9693003  63.6463928  44.0572071  66.6873312  56.4876699
  44.7945547  65.7624960  56.2888861  43.5874891  67.4455309  55.5046606
  42.9466677  68.2089996  55.6676817  43.9469767  67.4215317  54.0822315
  43.8424158  66.3764477  53.7907267  42.9236507  68.2774162  53.2349539
  41.9273472  68.2167149  53.6728907  43.1182051  69.3348265  53.4142160
  42.8010464  67.9724836  51.7098045  43.7063265  68.1068468  51.1177635
  42.3841619  66.5237999  51.4454412  43.1832933  65.8533430  51.7616320
  41.5364027  66.2606621  52.0780230  42.1301270  66.2526846  50.4207134
  41.6872978  68.9301157  51.1163378  40.7024574  68.7447453  51.5450859
  41.9376612  69.9487638  51.4126015  41.6668892  68.7978935  50.0345755
  45.3149605  68.0074215  53.7182236  45.6205988  69.1868734  54.0135860
  46.1520720  67.2043562  53.0731058  45.8739758  66.2502527  52.8929615
  47.4753523  67.5536346  52.5417233  47.8392267  68.4586859  53.0281210
  48.3622122  66.3584757  52.9209375  47.8741789  65.4005194  52.7413607
  49.2999840  66.4729309  52.3772573  48.7861109  66.2608051  54.3929243
  47.9220486  65.8376789  55.4471350  46.9340134  65.5111265  55.1580858
  48.3907890  65.5832100  56.7194986  47.8012848  65.0433540  57.4457550
  49.7099113  65.7417440  57.0475674  50.1459980  65.3328419  57.9470301
  50.5941153  66.1409855  56.0314751  51.6676950  66.1652565  56.1465597
  50.1208210  66.3835764  54.7083092  50.8741474  66.5874386  53.9617538
  47.5960636  67.7252483  51.0452700  46.8339777  67.1624374  50.2698278
  48.6295414  68.3920383  50.5715942  49.2938566  68.7608242  51.2370157
  48.8098764  68.7508488  49.1630459  47.9504585  68.3329725  48.6387587
  48.4320593  70.2435112  48.9685440  47.4583101  70.4638720  49.4059849
  49.1692162  70.8250332  49.5222044  48.3385849  70.7880306  47.4787903
  49.2798948  70.7587337  46.9299936  47.3236179  70.0080824  46.6482592
  47.8943634  69.3105841  46.0351944  46.6693926  69.4321203  47.3027515
  46.8459225  70.6983805  45.9529924  47.7441931  72.1676064  47.6278830
  47.6936626  72.6720619  46.6629601  46.6856527  72.1274662  47.8847504
  48.3895111  72.7252388  48.3066368  50.1551247  68.1358767  48.5861397
  51.2191296  68.3219051  49.1932392  50.1509094  67.6228523  47.3487806
  49.2453146  67.6024294  46.9020414  51.3056803  67.1638584  46.6518784
  52.2146034  67.6333952  47.0280313  51.3756514  65.6267834  46.9031572
  52.2617531  65.2342129  46.4043379  51.4787531  65.2805090  48.4215355
  50.5892181  65.6564951  48.9269638  51.5501690  64.2074013  48.5988712
  52.2848320  65.8252525  48.9130545  50.1662302  64.9594593  46.2588835
  49.4279671  64.8236990  47.0492220  49.7996521  65.5767918  45.4387474
  50.6369877  63.6563587  45.6269073  51.2258244  63.1011581  46.3570642
  49.7008991  63.1771469  45.3402090  51.2569332  63.7473059  44.7350025
  51.2702990  67.5234175  45.1732063  50.4137373  68.3103561  44.7118950
  52.2571325  67.0604944  44.4328928  53.0372620  66.6951799  44.9601841
  52.3680067  67.0639324  43.0053568  53.1836414  66.3820887  42.7646542
  51.1585522  66.3000965  42.2985601  51.2608862  65.3016949  42.7237892
  50.2274179  66.8275833  42.5055504  51.3755608  66.0008192  40.8056116
  52.4209404  66.3006639  40.1830435  50.4114008  65.6445646  40.1075888
  52.7521324  68.4832907  42.4686050  52.2107220  68.9978027  41.4547539
  53.8033056  69.0383816  43.0765152  54.2010164  68.6002541  43.8950348
  54.1776180  70.4158592  42.7435493  53.2638931  70.9723186  42.5348186
  54.7625542  71.1050558  43.9683390  55.6501818  70.6266975  44.3823290
  54.9858284  72.1387815  43.7044144  53.7718153  71.2813187  45.0564003
  53.1814194  72.5478077  45.2311468  53.4517622  73.3768511  44.5939636
  52.2374821  72.7874708  46.2623453  51.8169737  73.7714958  46.4082336
  51.9274902  71.7635727  47.1932983  51.2700748  71.9583321  48.0277300
  52.5346279  70.5168772  47.0899820  52.4083424  69.7584438  47.8484249
  53.4961033  70.2798367  46.0412693  54.1371202  69.4129419  46.1044931
  55.0641632  70.4662704  41.5327024  55.9080410  71.3332129  41.4360952
  54.9841976  69.5559025  40.5495310  54.1789627  68.9478111  40.5934048
  55.9568787  69.4316387  39.4896770  56.9854689  69.5524073  39.8295546
  55.8459330  68.4605646  39.0071774  55.7562685  70.4909849  38.4024358
  56.7342710  70.8264160  37.6757383  54.5990276  71.1191225  38.2935023
  53.8626623  70.7622719  38.8855577  54.1916656  72.2406387  37.4613428
  54.9714136  72.4442625  36.7274261  52.8628016  71.9510555  36.7280126
  52.7294350  70.8755016  36.6118145  52.1011496  72.4227571  37.3488855
  52.8823328  72.5405455  35.3205681  53.0802250  73.6092472  35.4030919
  53.7056065  71.8360519  34.2186713  53.4230947  70.7933617  34.0735292
  53.5574102  72.2069025  33.2044697  54.7742462  71.9623947  34.3923235
  51.4234447  72.3230124  34.7923589  51.3219023  71.2563848  34.5921254
  50.6129646  72.4632835  35.5075860  51.2547255  73.0507326  33.9985943
  54.0135765  73.4747934  38.2305932  53.7110376  74.4886684  37.6556396
  54.3238306  73.5181570  39.5649266  54.4259977  72.6894712  40.1332045
  54.3598461  74.8518276  40.2608442  53.3365583  75.1854420  40.0885582
  54.6551275  74.5698309  41.7752361  55.6348133  74.0923452  41.7932034
  54.7216749  75.5159378  42.3124123  53.8362408  73.9526749  42.1448803
  55.3393459  75.9370756  39.8079824  56.4082241  75.6414080  39.3909860
  54.9150658  77.1575260  40.0079060  54.0243530  77.1521950  40.4840469
  55.3754902  78.4092283  39.4724655  56.3364077  78.3096790  38.9676642
  54.2939281  78.7963676  38.3810592  54.4144678  78.0424356  37.6031399
  53.2873297  78.6407757  38.7691927  54.3389988  80.2064228  37.7942896
  54.3201494  80.8948517  38.6391640  55.2493572  80.3126144  37.2043180
  53.1675720  80.4772186  36.8170714  53.0812883  79.7247648  36.0331917
  52.2164679  80.3419495  37.3320508  53.1964540  81.8910217  36.2206864
  52.2991991  82.2026634  35.6859779  53.2221746  82.5287151  37.1043062
  54.3009424  82.1398258  35.2391624  54.2833900  83.0901337  34.8975372
  55.2019691  82.0529175  35.6871510  54.2082024  81.4781380  34.4817519
  55.3494549  79.4654942  40.6066132  54.3235683  79.7151279  41.3009739
  56.4493608  80.2621651  40.7524776  57.3099852  80.0639439  40.2624416
  56.5466499  81.3694096  41.6849518  55.9282255  81.1877537  42.5639582
  58.0131197  81.6568184  42.0279169  58.7285662  80.8381844  41.9500017
  58.4342718  82.3694611  41.3187885  58.2330847  82.2638702  43.4203625
  57.5294590  83.0927277  43.4978724  57.9777813  81.4185047  44.0593243
  59.5851564  82.9161644  43.7480021  60.4233980  82.2770500  43.4705353
  59.6334171  83.7724018  43.0752277  59.5653725  83.1896019  45.2406502
  59.0240622  84.1310501  45.3342104  59.0275240  82.4657249  45.8528709
  60.8594990  83.2680225  45.9659433  61.7067909  83.2213593  45.4182005
  60.8819389  84.0043259  46.6569281  60.9652233  82.4637318  46.5676403
  55.9859562  82.5827408  41.0169888  56.1910200  82.8060532  39.7912049
  55.2235985  83.3833408  41.7341518  55.0372171  83.0742741  42.6774645
  54.4724226  84.4887924  41.1229706  54.6820688  84.5765018  40.0569248
  52.9329634  84.2115402  41.2274694  52.4054289  84.8499489  40.5187750
  52.8716469  83.1633854  40.9347153  52.2314358  84.4738865  42.5160217
  51.8530703  85.7678509  42.8751802  52.0211411  86.5964794  42.2032213
  51.3617468  86.0889816  44.2095995  51.0580683  87.1014690  44.4310808
  51.1369562  85.0411987  45.0904942  50.7718563  85.4452419  46.3099909
  50.8916330  84.5952702  46.7398739  51.5260696  83.7082767  44.6997929
  51.4971972  82.8585625  45.3657866  52.0695639  83.4408092  43.4874392
  52.2245646  82.3940754  43.2712650  54.8129177  85.9498882  41.5424681
  54.4227648  86.8991375  40.8055639  55.5203676  86.0617447  42.6885653
  55.9223557  85.2490234  43.1335354  55.9351587  87.2692871  43.4391499
  55.9252119  88.1191444  42.7566957  54.7826195  87.4734020  44.4137764
  53.8334990  87.4753952  43.8778019  54.7122908  86.6461372  45.1200247
  54.8194170  88.8383961  45.1642752  55.6468058  88.8247585  45.8737421
  54.9593306  89.6658516  44.4686842  53.5441780  89.0245247  46.0165691
  53.5280895  89.9821091  46.5370274  52.6907206  88.8690662  45.3566217
  53.4320259  87.9387665  47.0092583  54.1123676  87.1926403  47.0326138
  52.4893761  87.8111362  47.9011202  51.4950228  88.6287880  48.0192566
  51.4211655  89.4266415  47.4043894  50.7704210  88.3501434  48.6653328
  52.4862051  86.7864895  48.7223816  53.2150507  86.0883331  48.6840248
  51.6316986  86.5281105  49.1947842  57.2778273  87.0239258  44.1349697
  57.4060392  86.0275459  44.9085522  58.2579994  87.8859615  43.9322233
  58.0385828  88.6002827  43.2527447  59.6014595  88.0039787  44.6115971
  60.2116251  87.1220016  44.4168568  60.4301882  89.0800571  43.8567924
  60.4527617  88.8747978  42.7865314  60.0037909  90.0622940  44.0605021
  61.8728542  89.2957401  44.3113518  62.2544241  88.4817028  45.1546049
  62.6899767  89.9801159  43.6932802  59.5197010  88.3444500  46.1526728
  58.8315916  89.3263435  46.5108013  60.1479626  87.5711727  46.9668293
  60.7636070  86.9454002  46.4673281  60.3041410  87.6118565  48.4237528
  59.3450260  87.8624439  48.8769770  60.7549095  86.2152672  49.0233517
  61.6935444  86.0215855  48.5041618  61.0174847  86.4295197  50.0593328
  59.8256111  85.0628090  48.8093519  59.3102884  84.7543621  47.7526569
  59.8078251  84.1984081  49.8148108  59.2772150  83.3538723  49.6557140
  60.2725887  84.4594479  50.6726885  61.1882782  88.7751770  48.9511538
  61.1644030  89.1629696  50.1339340  61.9498205  89.3950081  48.0370569
  62.1908379  88.9324093  47.1721792  62.7250862  90.6410313  48.3912230
  63.1584167  90.5296898  49.3851709  63.9214754  90.7085991  47.4417782
  63.4835720  90.7231712  46.4437151  64.4656610  91.6325474  47.6374340
  64.9321270  89.5249844  47.3660517  65.5011702  89.4949532  48.2952404
  64.3723774  88.5994816  47.2310972  65.8850241  89.6594906  46.1916494
  66.5352678  90.5326748  46.2447834  66.5449333  88.8124180  46.3789463
  65.1846313  89.5423985  44.9407434  64.1806841  89.4697571  45.0239086
  65.8360291  89.4912338  43.7914562  67.1050930  89.3493366  43.6989498
  67.6192665  89.4084549  44.5662642  67.4694633  89.5106125  42.7708721
  65.1574564  89.3930435  42.6728106  64.1657877  89.5593357  42.7678585
  65.6553745  89.2565727  41.8047380  61.9671535  92.0058727  48.5211182
  62.3141146  92.8146458  49.3923759  60.9709406  92.2463036  47.7186966
  60.7635784  91.5187073  47.0495844  60.4639721  93.5785580  47.4823666
  60.7569027  94.2183781  48.3148003  61.1498594  94.1015816  46.1832476
  60.7560444  95.0816250  45.9139109  62.6335669  94.2732143  46.1640310
  62.9613972  94.5097733  45.1517677  62.8454542  95.1150990  46.8231392
  63.1315756  93.4444141  46.6671991  60.8126783  93.1361866  45.2069759
  61.0893679  93.5012913  44.3633270  59.0181208  93.5987568  47.1980715
  58.4228611  94.6810055  47.0183182  58.3844995  92.4106026  47.1505642
  58.9240360  91.5584564  47.2040319  57.0284891  92.2002506  46.7032099
  56.8406534  91.1364555  46.8486881  56.0883570  92.7640247  47.8094864
  56.2761688  93.8348007  47.8887510  55.1176929  92.5136375  47.3814487
  56.3280964  92.2882652  49.2228413  56.0612631  91.2315369  49.2380619
  57.3602915  92.4429607  49.5370865  55.4919815  93.1868839  50.1572752
  55.8062029  94.2237568  50.0379229  54.4654322  93.0966949  49.8020744
  55.7705164  92.9247856  51.5669537  56.5105247  92.3011017  51.8559599
  54.9222422  93.3072090  52.4789810  53.9117861  94.1021538  52.3003292
  53.5743618  94.2806053  51.3652325  53.3766842  94.4131756  53.0984688
  55.0773954  92.8748512  53.6789560  55.8350515  92.2815704  53.9856815
  54.3977070  93.2868195  54.3021727  56.6301823  92.4926186  45.2877617
  55.4663086  92.7782154  44.9972773  57.5726604  92.3352528  44.3761301
  58.3741045  91.7821121  44.6441317  57.1997929  92.4480343  42.9031038
  56.7352152  93.4083271  42.6792526  58.5631609  92.6077652  42.2521544
  59.2858648  93.1798649  42.8339624  58.9884567  91.6088772  42.1549177
  58.5821724  93.3250809  40.9338713  57.8308201  92.9656410  40.2307558
  58.2364368  94.3194675  41.2163258  59.9155092  93.3778381  40.1752186
  60.8338070  92.5758648  40.2965403  60.0053501  94.3967915  39.3123341
  60.8401918  94.5712662  38.7713242  59.2068148  95.0112152  39.2421484
  56.4733267  91.1991310  42.3396111  57.0607424  90.1431561  42.3842573
  55.2819538  91.3584518  41.7939472  54.8706770  92.2809124  41.7968369
  54.5807838  90.4109764  40.9371805  54.3779993  89.5174694  41.5276194
  53.2595015  91.0751247  40.5466700  52.6694584  91.5008926  41.3582516
  53.4310055  91.9051743  39.8613191  52.3077822  90.0382519  39.9177694
  51.9644070  88.7503147  40.4572868  51.2442875  88.2034111  39.4978285
  50.6545973  87.2992229  39.5310450  51.1721230  88.9875126  38.3882380
  50.6947803  88.7374496  37.5340033  51.8991566  90.1124001  38.6201215
  52.2405624  90.8667755  37.9267597  55.4395103  90.0132275  39.7212553
  56.3155985  90.8020401  39.3708634  55.2291059  88.8548756  39.1670823
  54.5850277  88.1422043  39.4791293  55.8471060  88.5648060  37.8071356
  56.9048882  88.6066055  38.0668640  55.5668306  87.0953560  37.3958945
  55.8241415  86.9683933  36.3443398  56.3935566  86.0943604  38.1503749
  57.4172926  86.0824394  37.7763128  56.3560867  86.3252258  39.2149854
  56.0333061  85.0660133  38.1788659  54.0458107  86.7894840  37.5377250
  53.7161016  86.7315197  38.5750437  53.4871435  87.6768494  37.2401071
  53.4754324  85.5403233  36.7626143  54.2449903  84.7692013  36.7272210
  52.6461124  84.9961567  37.2145128  53.3890676  85.9011650  35.7377076
  55.5451727  89.5837593  36.6981554  54.4445467  90.1434422  36.6931105
  56.4611244  89.8734951  35.7636809  57.6947355  89.1865253  35.6254172
  57.5155687  88.2092667  35.1771307  58.2590294  89.1475773  36.5571666
  58.5538387  89.8797226  34.5980406  58.7021923  89.1371536  33.8140249
  59.4673252  90.1837635  35.1091194  57.6915932  91.0011482  34.0685654
  57.6864815  90.9065533  32.9826903  58.1524324  91.9109344  34.4532895
  56.2449694  90.7059193  34.6002388  55.7515574  91.6420078  34.8617220
  55.4640007  89.9224186  33.5289574  55.6747675  88.7078476  33.3027315
  54.4823742  90.6320000  32.8611422  54.4833326  91.6285324  33.0255008
  53.6638641  89.9663258  31.8481445  53.2630444  89.0342522  32.2464967
  52.5514412  90.8483028  31.5513635  51.9316053  91.0886860  32.4151468
  52.9682446  91.7822552  31.1744022  51.5609598  90.2771282  30.5361390
  50.5263662  89.4516468  31.0173750  50.3662872  89.4017410  32.0842791
  49.5990944  88.9634323  30.0873399  48.7936401  88.3325577  30.4332304
  49.7752094  89.1588402  28.6720586  48.9614630  88.5225582  27.7761936
  49.1248608  88.7537193  26.8588781  50.8212137  89.9119186  28.1991172
  50.9754848  90.1201725  27.1506763  51.7115545  90.4930687  29.1536069
  52.5017452  91.0899639  28.7226677  54.4308090  89.5933342  30.5869222
  55.2621031  90.3224945  30.0115919  54.1742182  88.3940601  30.0292087
  53.3510113  87.9718399  30.4343581  54.6794367  87.9483223  28.6706710
  55.0375748  88.8557148  28.1843805  55.9117937  86.9781399  28.7775850
  55.7967138  86.3395309  29.6533895  55.9730625  86.3195133  27.9112339
  57.2920513  87.6386642  28.9755964  57.9911089  87.0186806  28.4143162
  57.1938181  88.5944843  28.4609604  57.8459787  87.9598331  30.3891516
  57.3308468  88.8026905  30.8499360  57.7574778  87.1638966  31.1285877
  59.2634344  88.3990860  30.2792454  59.4356203  89.3920422  30.2121997
  60.2951860  87.6206493  30.3893971  60.1473045  86.3401699  30.5325794
  59.2036247  86.0071087  30.6691098  60.9189653  85.7023335  30.6660461
  61.4897966  88.0767536  30.1500630  61.4947462  89.0240192  29.7996879
  62.1603251  87.3473930  29.9538016  53.5108423  87.2959805  27.9425740
  52.4934101  86.9522095  28.5149765  53.7417984  87.1548367  26.6180134
  54.5897865  87.5194645  26.2080574  52.7657413  86.5921974  25.6348515
  51.8406105  87.1637344  25.7095242  53.3431101  86.8083096  24.2489839
  52.5943947  86.7751312  23.4575105  53.6425400  87.8503799  24.1369820
  54.5156384  85.8612442  23.8648057  54.1246939  84.8464870  23.9392495
  54.7627735  85.9893131  22.8109455  55.8080673  86.0080051  24.6771288
  56.3454723  84.9386311  24.9643826  56.3091421  87.0785618  25.0125504
  52.2850847  85.1734924  25.8647561  52.9851723  84.3848610  26.4677286
  51.0775232  84.9401855  25.3716421  50.7154226  85.6405735  24.7404146
  50.2581167  83.7846756  25.7228041  50.2300453  83.6260509  26.8008351
  48.7389708  83.9450645  25.4196739  48.2240248  82.9943275  25.5576062
  48.2783461  84.6907043  26.0677099  48.5240221  84.3527889  23.9230347
  47.9171801  83.6231613  23.1604695  48.7880898  85.5239010  23.5190773
  50.8200121  82.5668621  25.0234485  50.9381866  82.5707054  23.8124347
  51.1306620  81.5187359  25.7604432  50.7943678  81.5554523  26.7121100
  51.7230177  80.1992226  25.4063869  52.4201488  80.2310944  24.5690751
  52.5331450  79.7046185  26.6128850  51.8957520  79.3172359  27.4077225
  53.1314325  78.9295244  26.1339569  53.6660147  80.7130909  27.1846485
  53.2679701  81.6396618  27.5983310  54.1077232  80.1101875  27.9780531
  54.8649693  81.1222935  26.2598729  55.4058981  80.2080536  26.0156155
  54.4642401  81.6635036  25.4027748  55.8275223  82.0600986  26.9763327
  56.1636543  81.6102886  27.9105639  56.7602587  82.2012234  26.4302707
  55.3323078  83.3944225  27.1629143  54.4294977  83.3595562  27.6143861
  56.1042976  83.9144516  27.5549746  55.1978254  83.8084698  26.2515545
  50.7436466  79.1755962  24.8631573  49.5642185  79.5049095  24.6053171
  51.1947107  77.9423571  24.6233606  52.1913671  77.8169918  24.7285199
  50.4031467  76.6835737  24.5908689  49.6359825  76.7353868  23.8182902
  51.3139153  75.5281401  24.0559292  52.2764540  75.4363155  24.5591044
  50.8126879  74.5650434  24.1524363  51.6202211  75.7190752  22.5625277
  52.5133944  76.4918184  22.1494985  51.0470152  75.0135708  21.6787076
  51.2685204  75.2983665  20.7353497  50.2691650  74.3959808  21.8621087
  49.6945333  76.3215494  25.9714508  50.1945829  76.7611361  27.0183730
  48.7780666  75.4058886  25.8622503  48.6489534  74.9793482  24.9558878
  47.9384089  74.8737574  26.9315004  47.2884703  75.7003307  27.2186565
  47.0482254  73.7103033  26.4041066  46.5403557  74.0473223  25.5004549
  47.7723455  72.9527617  26.1042929  46.1591530  73.1794167  27.6315403
  45.9178066  74.0481710  28.2440138  44.8509407  72.6242971  27.1002293
  44.2214727  72.4605417  27.9749012  44.4306612  73.4392977  26.5109515
  44.9581814  71.6658068  26.5923929  46.8863487  72.0647860  28.4360480
  46.8837023  71.1181498  27.8957009  47.9373503  72.3102140  28.5885835
  46.2584972  72.0600891  29.3270469  48.7811279  74.4577074  28.2142043
  49.8930740  73.9343071  28.0123711  48.3201599  74.7246742  29.4598722
  47.4162483  75.0808239  29.7359133  48.9831924  74.2597532  30.6529951
  49.5335054  73.3815813  30.3152490  50.0031137  75.3370285  31.1448288
  50.5651999  75.6202412  30.2549076  49.3163967  76.5651894  31.7927170
  48.6728001  76.1654425  32.5763559  50.0778246  77.1761751  32.2775149
  48.8224030  77.1861649  31.0454154  50.8126640  74.7729015  32.1764851
  51.3935328  74.1834545  31.6899133  47.9443216  73.7981939  31.7345881
  46.7749691  74.1051292  31.6008902  48.3575153  72.9205084  32.6773024
  49.3359661  72.6740551  32.6326394  47.4575472  72.1746826  33.5933542
  47.9680490  71.6201115  34.3807149  46.7836428  72.9524469  33.9525771
  46.7026234  71.1014938  32.8319144  46.8564796  70.8219194  31.6404533
  45.7230854  70.4854631  33.6102557  45.5772114  70.7006979  34.5862150
  44.9868202  69.3614483  33.0815148  45.5914640  68.8804150  32.3126817
  44.6291113  68.3824873  34.2432547  44.3438435  68.8938713  35.1626086
  43.6185408  67.3097134  33.8227987  43.5809612  66.6977596  34.7240186
  42.5848913  67.6553011  33.8070846  43.9813280  66.8315935  32.9129148
  45.8529520  67.6671362  34.5279169  46.3376045  68.3620262  34.9793983
  43.7368774  69.9528360  32.3849297  42.8307676  70.4803944  32.9714799
  43.5601950  69.6233273  31.0867596  44.1286659  68.8524389  30.7663345
  42.5123167  70.1310015  30.1829028  42.6302385  71.2028885  30.0240088
  42.7031231  69.4041300  28.8624024  42.8182745  68.3457327  29.0961504
  41.7893076  69.5131254  28.2783127  43.5604525  69.7881508  28.3095741
  41.0804415  69.9693918  30.7520509  40.1486206  70.7328463  30.4964256
  40.9292078  68.9921522  31.6085792  41.7561674  68.4123611  31.6176128
  39.6713424  68.6583424  32.3460460  38.8694739  68.7569857  31.6143513
  39.5593047  67.2384596  32.7693629  39.8453593  66.6178417  31.9201827
  40.2523661  66.9860125  33.5718846  38.1994200  66.7799091  33.3235121
  37.9134583  67.5367785  34.0539122  37.5353360  66.6904116  32.4638104
  38.2959008  65.4990005  34.0957212  39.0240645  65.6657696  34.8894882
  37.3899436  65.2034044  34.6248388  38.7489772  64.3696260  33.2574606
  38.5841846  64.4090557  32.2617745  38.8517165  63.0993319  33.7085104
  38.7089968  62.8070164  34.9588919  38.5081172  63.4842396  35.6807780
  38.7437940  61.8123102  35.1305056  39.1193795  62.1335316  32.8710556
  39.0068865  62.3561907  31.8923497  38.9438462  61.1904955  33.1872320
  39.3305779  69.7132683  33.4097052  38.1431580  70.0252628  33.5116076
  40.3059149  70.1250124  34.2330980  41.2098551  69.6864033  34.1300392
  40.0527191  70.9200621  35.4271984  38.9898777  71.0038042  35.6540346
  40.5959272  70.1319218  36.6259384  41.6631985  70.0973320  36.4072394
  40.5185080  70.6336832  37.5904799  40.1699829  68.6334467  36.7418385
  38.8766694  68.3390856  37.0932508  38.1702232  69.1445255  37.2296333
  38.4922266  66.9794989  37.2308421  37.4667954  66.7697763  37.4971271
  39.4597983  65.9370327  37.2067976  39.1286302  64.5680904  37.4198055
  39.8610020  64.0944624  37.8209424  40.8074236  66.2303162  36.7983818
  41.5791988  65.4801702  36.8881893  41.1274672  67.5995684  36.5857673
  42.1797705  67.7807665  36.4238048  40.7258892  72.3014927  35.3871942
  40.2996063  73.2014751  36.1657858  41.6535568  72.6253557  34.4744778
  41.9367599  71.9601297  33.7692308  42.2921610  73.9355755  34.4455814
  42.7144861  74.0391016  35.4450965  43.4743023  74.0470362  33.4590769
  44.0129185  74.9891567  33.5610509  44.2381430  73.3089638  33.7038255
  43.2955694  74.0709019  32.3840952  41.2903547  75.1155519  34.1751862
  40.4365301  75.0076628  33.2879901  41.5276814  76.1967516  34.8762751
  42.3302603  76.1161327  35.4841137  41.0830450  77.5418711  34.5282030
  40.0447226  77.6754475  34.8317456  42.1190834  78.3716965  35.2262926
  42.0014238  78.2005596  36.2963271  43.0637646  77.9647207  34.8656702
  42.0763302  79.8039818  34.9830246  42.9643679  80.1652336  34.9331045
  41.1535883  77.8978682  33.0480623  41.9341612  77.3294020  32.2590351
  40.2997589  78.8083935  32.5192428  39.7097898  79.3279791  33.1533313
  40.3131056  79.2424488  31.1177015  40.0851631  78.4041882  30.4593182
  39.1150737  80.2024555  30.9983611  39.1489410  80.8200645  31.8958688
  39.3091321  81.1823654  29.8056912  38.3966279  81.7646599  29.6777010
  40.1722527  81.8361092  29.9311304  39.4443130  80.6149864  28.8848734
  37.7793336  79.4621992  30.8571076  37.6439524  79.0325403  29.8645520
  37.7228284  78.5904980  31.5090609  36.5931940  80.3587151  31.1410475
  36.1413193  80.5933666  30.1772785  35.9092927  79.9004889  31.8554783
  37.0147252  81.2788582  31.5457225  41.6945076  79.8345089  30.6925106
  42.2016096  79.5658541  29.5970440  42.2423983  80.6738472  31.5578675
  41.6863871  80.9035206  32.3691630  43.4803820  81.3479137  31.2225318
  43.4145403  81.7774868  30.2229118  43.7851238  82.5334740  32.1327114
  43.6964130  82.2802353  33.1891680  44.8227406  82.7767563  31.9040895
  42.9077339  83.7947750  31.8758750  41.8733454  83.7775707  31.1818123
  43.2557344  84.8569870  32.5101876  42.7936268  85.7494926  32.4101949
  44.0067720  84.7764683  33.1806803  44.6994305  80.3676319  31.0916638
  45.2901077  80.2512836  30.0121856  44.9226475  79.4588137  32.0271897
  44.2912197  79.5793104  32.8062153  45.8179760  78.3007812  31.9386196
  46.8424988  78.6450052  31.7973065  45.5690384  77.4256086  33.1133962
  46.2788534  76.6122389  32.9627585  45.7330084  77.8480291  34.1047454
  44.5495749  77.0484781  33.0323315  45.4359436  77.4041176  30.7263160
  46.3819933  76.9810295  29.9984765  44.1600990  77.1033955  30.4430842
  43.5054731  77.4353695  31.1368847  43.6696720  76.2738943  29.2619014
  44.0574884  75.2552319  29.2667937  42.1805811  75.9802580  29.2638254
  42.1060658  75.6341648  30.2947330  41.5851355  76.8759441  29.0869331
  41.7901373  74.8034763  28.3753991  41.5771103  73.4931850  28.7965083
  41.0816717  72.8888702  27.6581335  40.9277964  71.8203449  27.6268554
  41.1081934  73.6891699  26.5899444  40.7393026  73.3396769  25.7170892
  41.4129686  74.9433661  27.0385337  41.2605047  75.8536482  26.4776921
  44.0935802  76.9935656  27.9376674  44.4590807  76.3125944  26.9988179
  44.1675949  78.3106613  27.9653168  43.8814306  78.7863541  28.8090706
  44.6451044  79.1523075  26.8557477  44.5920086  78.5981417  25.9186339
  43.7302017  80.3795242  26.5812254  43.7061787  80.8853340  27.5464630
  44.3071842  81.0376930  25.9315944  42.3724842  80.0475597  26.0129499
  41.7985964  79.4439459  26.7160892  41.5475082  81.3377762  25.8808064
  41.3609314  81.7190552  26.8847561  42.1912146  82.0505905  25.3653955
  40.5826855  81.2314987  25.3849006  42.5128555  79.2342234  24.7368121
  41.5500069  79.2092609  24.2265201  43.2327080  79.7568035  24.1068745
  42.7032518  78.1786013  24.9304771  46.1065197  79.4816399  26.9151258
  46.6932964  80.1524830  26.0397363  46.8753242  79.0247583  27.9304981
  46.3666105  78.5980034  28.6915445  48.3343267  79.2776871  28.2231879
  48.6357403  78.8072348  29.1590953  48.8685513  78.8375616  27.3811722
  48.6372805  80.7533455  28.2995987  49.8356915  81.0714149  28.3583307
  47.6532841  81.6619778  28.4298038  46.6943741  81.3829327  28.2790732
  47.8046274  83.0458260  28.9077163  48.4300852  83.6152267  28.2201958
  46.4718914  83.7496758  28.7942648  46.0323381  83.5253239  29.7661519
  46.6540051  85.2249336  28.8403368  45.7110786  85.7462502  28.6753011
  47.0220232  85.5882263  29.7998571  47.3053503  85.6932068  28.1023812
  45.5387068  83.2601261  27.5703192  46.0108376  83.5000134  26.6176128
  45.3107452  82.1952152  27.6161599  44.1826344  83.9791870  27.4547148
  44.2882299  84.9902248  27.0613170  43.5474443  83.5676479  26.6703248
  43.8004303  83.8943291  28.4719753  48.3011532  83.0919838  30.3414893
  47.8796005  82.2667217  31.2354827  49.2411470  84.0053940  30.5941010
  49.5966721  84.6049881  29.8632097  50.0182295  83.9982033  31.8394303
  50.6369781  83.1134892  31.6893196  50.9157133  85.2305698  31.7818666
  51.4103651  85.2795696  30.8118057  50.2683735  86.1074924  31.7741704
  52.0117283  85.3885269  32.9149985  52.6115131  86.2044430  32.5117207
  51.5126085  85.6667805  33.8431954  53.0346203  84.2328548  33.2183027
  54.2017174  84.4754887  33.6754012  52.7195883  83.0422115  33.0258393
  49.1751528  83.7970161  33.1251431  48.2433558  84.5354652  33.4199095
  49.5382738  82.7823544  33.9098597  50.2414227  82.1229362  33.6084390
  48.8464832  82.3157406  35.0757718  47.7979040  82.5480366  34.8897290
  49.3086433  80.9143353  35.3916073  50.3612375  80.9511566  35.6722879
  48.6972904  80.6063461  36.2398386  48.9790916  79.9938774  34.2313433
  48.8430071  78.9861679  34.6239018  47.9987478  80.3141785  33.8785839
  49.9814987  79.8829269  33.1468201  51.1044312  79.3975973  33.3549070
  49.6837664  80.2330303  31.9317317  50.3347015  80.2287006  31.1594820
  48.8771915  80.7886982  31.6852093  49.1939020  83.1695747  36.3893437
  50.3090334  83.5934544  36.5949202  48.2379913  83.2355404  37.3334146
  47.3467827  82.8073311  37.1272683  48.2522774  84.0025330  38.6084270
  49.2681789  84.0892029  38.9938283  47.8184891  85.4766273  38.3950472
  48.0611467  85.9210396  37.4297905  46.7348480  85.5615234  38.4763384
  48.4692430  86.2977028  39.3856812  48.1130934  87.1867561  39.3198991
  47.3552418  83.2899284  39.6079278  46.8988991  82.1360588  39.4969440
  47.1477938  83.9502430  40.7421637  47.3131609  84.9458885  40.7801867
  46.2749958  83.3516979  41.7473555  46.6725731  82.4010372  42.1027040
  46.1688042  84.2370510  43.0144119  45.8862400  85.2392197  42.6920366
  45.3521967  83.8646030  43.6329079  47.5145245  84.3490791  43.7884140
  47.8835726  83.3688641  44.0901995  48.2701921  84.7072887  43.0893087
  47.5592422  85.2858257  44.9632502  46.6448927  85.1682472  45.5448389
  48.3996010  85.0145626  45.6022453  47.7438021  86.7199707  44.5517778
  47.7526569  87.0044994  43.5827208  48.0738783  87.6756763  45.4209757
  48.2582760  87.4378395  46.6790390  48.2734156  86.5210152  47.1024847
  48.6059666  88.1452942  47.3104811  48.2948017  88.8545322  45.0164318
  48.2337666  89.0731716  44.0322733  48.4735107  89.5599556  45.7168198
  44.8365688  83.1202126  41.3578606  44.2354488  82.1581841  41.8536520
  44.2826796  83.8887501  40.4201746  44.7263241  84.7526360  40.1427221
  43.1748199  83.4691238  39.6235991  42.3273087  83.6430264  40.2866173
  43.0660009  84.4069576  38.3549881  42.8259420  85.4288673  38.6485291
  43.9888096  84.3264294  37.7804971  41.7884159  84.0946865  37.5972605
  41.0870504  83.5243225  38.2062554  41.3603735  85.0540638  37.3066163
  42.1273518  83.1791782  36.3791633  42.8940392  83.7020493  35.8074212
  42.6113605  82.2382450  36.6408849  40.9972382  82.7863979  35.6173086
  40.6853151  81.8267727  35.6610894  40.3764248  83.5097790  34.7153616
  40.5772686  84.7375202  34.3952537  41.4690447  85.1425171  34.6418619
  39.9613500  85.1650715  33.7185383  39.3875837  82.9998398  34.0215993
  39.1561055  82.0415878  34.2413092  38.8737583  83.5633945  33.3594131
  43.1197262  81.9961548  39.1618538  42.0411396  81.3504410  39.3100691
  44.2214680  81.4946461  38.6029720  45.0734425  82.0315456  38.5256362
  44.0841675  80.2075481  37.9656386  43.2534027  80.1371193  37.2635198
  45.3831053  79.9620104  37.1427774  46.3119841  79.9866056  37.7125788
  45.1554537  78.9415264  36.8347359  45.3653908  80.9005547  35.9501195
  44.6548367  80.4484844  34.9978781  45.8691978  82.0351315  36.0713649
  43.9631128  79.0662098  38.9789200  43.1062698  78.2498169  38.7114668
  44.6640062  78.9514542  40.1207638  45.4269218  79.5662975  40.3657675
  44.3817854  77.8370523  41.0984755  44.4056034  76.9153118  40.5171537
  45.4989004  77.9041243  42.1869135  45.4322958  78.9509869  42.4831343
  45.2853298  77.3175049  43.0804300  46.9048738  77.3963022  41.7801666
  47.1539831  76.9997644  40.5885220  47.7100849  77.3875046  42.7007389
  42.8439951  77.9528093  41.6547060  42.2874308  76.8846512  41.8891954
  42.3532486  79.1760731  41.9774199  42.9021740  79.9274445  41.5847063
  40.9322023  79.4392490  42.3368454  40.7568979  78.8447714  43.2334900
  40.6911898  80.9044075  42.6725960  40.7701397  81.5998268  41.8369770
  39.6969843  80.9728622  43.1141615  41.5672970  81.5595913  43.7692022
  42.5608778  81.1707687  43.5462379  41.5722179  82.6467419  43.6905050
  41.4408827  81.2398148  45.5522346  40.6175709  79.6193647  45.7884645
  39.8661304  79.5554638  45.0014734  41.3690567  78.8308811  45.7477188
  40.2601624  79.7731829  46.8066454  39.9136806  78.9977551  41.3514423
  39.0427351  78.3004379  41.7875099  39.9780750  79.4057274  40.1087332
  40.6521368  80.1029110  39.8264694  38.9868999  78.8413191  39.1526866
  38.0448222  79.0384102  39.6642995  39.0528989  79.4778490  37.7023625
  38.8655877  80.5375004  37.8760242  40.0652933  79.4524384  37.2992420
  38.1763053  78.8518143  36.6323972  38.4096384  77.8003407  36.4648604
  37.1362901  78.8772678  36.9576955  38.1165934  79.5740414  35.2639437
  39.1546297  80.2389526  34.9536514  37.0861173  79.5982885  34.5883703
  39.0590143  77.3035431  39.0220594  38.1197309  76.5763092  39.0004039
  40.3223991  76.7366982  38.9769268  41.0959005  77.3515081  39.1862226
  40.6815290  75.3212786  38.8870430  40.0995255  74.9276304  38.0537200
  42.1983099  75.1166534  38.6816287  42.6381111  75.5862284  39.5615005
  42.4184656  74.0578651  38.5452771  42.7343845  75.7860470  37.4684525
  43.0086756  76.6359329  37.8206706  40.1586485  74.4915438  40.0436640
  39.7892594  73.3156681  39.8581934  40.0978041  75.1086807  41.2001753
  40.6355858  75.9589767  41.2889910  39.5309114  74.4830275  42.4084139
  39.8657584  73.4537268  42.5369406  40.1897717  75.2889013  43.6144066
  41.2712669  75.1530457  43.6129951  40.0482845  76.3483286  43.4006357
  39.4514966  74.9248838  44.8799753  38.4364057  75.3129911  44.7959042
  39.4045949  73.4329891  45.1419353  38.8128638  73.2665586  46.0420752
  38.9566875  72.8235865  44.3570089  40.4061413  73.1035519  45.4184866
  40.1573133  75.5580807  46.1550379  41.2252808  75.3427601  46.1895037
  39.9922061  76.6332102  46.0847425  39.6095085  75.2107954  47.0310545
  37.9771233  74.4762993  42.2587013  37.3230076  73.5596418  42.6979303
  37.4127007  75.4073286  41.5762568  37.9539752  76.1348391  41.1314535
  36.0138202  75.3877401  41.2354660  35.4584026  75.5330181  42.1620226
  35.9026313  76.1831808  40.4985714  35.6279373  74.1595936  40.4205847
  34.5973754  73.5348797  40.7604361  36.4828730  73.8387871  39.4997835
  37.1124387  74.5890903  39.2532301  36.2036371  72.6974297  38.5451436
  35.1250958  72.6535463  38.3936977  36.8432093  72.9138184  37.1943402
  37.9082537  72.8053999  37.3993397  36.4897180  72.0887089  36.5760064
  36.3667774  74.2044306  36.4669394  35.0507355  74.6748638  36.5602279
  34.2886615  74.2297649  37.1827507  34.6538448  75.8610535  35.9587765
  33.6388898  76.1999464  36.1051202  35.6369495  76.6334963  35.3164768
  35.2290487  77.7901888  34.7472167  35.9993029  78.3631516  34.7423792
  36.9099712  76.0193825  35.0692058  37.4978018  76.4161825  34.2547107
  37.3078752  74.8335218  35.7393932  38.3029389  74.4441509  35.5824232
  36.5470648  71.3513470  39.2448902  35.8705950  70.3173208  39.0593219
  37.4717188  71.3297987  40.1868248  37.9638696  72.1787691  40.4258680
  37.5117326  70.2015638  41.1410379  37.6730990  69.2333221  40.6671524
  38.8257933  70.5200768  42.0666885  38.8401723  71.4835215  42.5762606
  38.8646317  69.4245005  43.1068420  37.9616213  69.4337702  43.7172413
  38.8901687  68.4238625  42.6753712  39.7172594  69.5399046  43.7760258
  40.1543331  70.3246832  41.3063192  41.0518599  70.4241228  41.9167709
  40.1667070  69.3469334  40.8246994  40.2051067  71.0672092  40.5099678
  36.2531161  70.1202345  42.0114994  35.5941916  69.0653515  42.0875788
  35.8323860  71.2433004  42.5830269  36.2767434  72.1397495  42.4451017
  34.5685720  71.2819910  43.4437847  34.7633672  70.6496048  44.3099499
  34.4246578  72.7656651  43.9518166  34.5953512  73.4931231  43.1582355
  33.3651423  72.8987885  44.1704559  35.3252387  73.1801271  45.1889181
  36.3225842  72.7748585  45.0181437  35.4963660  74.7201109  45.3317642
  36.1384249  74.9197769  46.1896706  36.0766554  75.1031256  44.4923210
  34.5751286  75.3020334  45.3598309  34.7656393  72.5941944  46.4552402
  34.7421741  71.5141439  46.3101578  35.3905988  72.8062201  47.3227453
  33.7746048  73.0216599  46.6076326  33.2986140  70.8012533  42.6910067
  32.5391293  69.9805737  43.1557608  33.0758548  71.3338947  41.5296459
  33.7353969  71.9711256  41.1065102  32.0052338  70.8765268  40.7441282
  31.1113501  70.9012842  41.3673925  31.7945814  71.9913769  39.6988416
  32.7207923  72.3029709  39.2159963  31.1763430  71.5585232  38.9123821
  31.2107158  73.2483196  40.3672123  32.0194197  73.6470652  40.9796715
  31.0081863  73.9842892  39.5891142  29.6511459  72.9861784  41.2786341
  28.4312987  72.7545595  40.0303316  28.6573339  71.8732071  39.4301414
  27.3976016  72.7608013  40.3760624  28.5796881  73.6412525  39.4140053
  32.1724153  69.5083904  40.0747156  31.1892271  68.9028263  39.7975159
  33.3677983  69.0216398  39.8624563  34.2112184  69.5480871  40.0402164
  33.6263180  67.6236820  39.5521307  33.1244421  67.3175144  38.6342573
  35.1239061  67.2739935  39.3225813  35.4147816  67.7511168  38.3867145
  35.6161547  67.8007841  40.1400661  35.4735160  65.7211161  39.2308497
  35.5078316  65.0916958  37.9466534  35.1976848  65.5711651  37.0299649
  35.9720802  63.7118053  37.8923535  35.9520030  63.1520224  36.9689703
  36.4777422  63.0646229  39.0797901  36.9368219  61.7853880  38.9272094
  37.6665568  61.6165209  39.5276880  36.5038919  63.7305546  40.3064537
  36.8606949  63.2352543  41.1973953  35.9590244  65.0584841  40.3811836
  35.8806491  65.4946280  41.3660908  33.0745673  66.7203617  40.6890726
  32.3599243  65.7570887  40.3983879  33.3351302  67.1376705  41.9620037
  33.9613104  67.9143667  42.1193027  32.8864193  66.4224720  43.1689835
  32.9389119  65.3374672  43.0789614  33.5776043  66.9788265  44.4118023
  33.4253359  68.0395460  44.2123508  33.1287408  66.6506958  45.3493261
  35.0343108  66.7663622  44.6396017  35.5332613  65.4907227  44.6262312
  34.9150562  64.7131252  44.2024755  36.8951678  65.2646685  44.9169827
  37.3580027  64.2937183  44.8198318  37.6920605  66.4032316  45.3430557
  38.7666464  66.3203287  45.2738380  37.1588159  67.6170921  45.5769634
  37.7593541  68.3478642  46.0982323  35.7936573  67.8016520  45.1827955
  35.2598882  68.7297153  45.3248930  31.3073206  66.4722919  43.2309628
  30.7114768  65.5015755  43.6770678  30.6474233  67.5624657  42.7925777
  31.2313652  68.3614731  42.5908422  29.1444516  67.6821756  42.7216101
  28.7599540  67.2789574  43.6584520  28.8075399  69.1718960  42.6901007
  29.3977547  69.7084904  41.9472551  27.7934313  69.3092012  42.3148203
  28.9199066  69.7146511  44.1257191  28.6516571  69.0854883  45.1193953
  29.1992831  71.0112572  44.1659832  29.2286777  71.5561152  45.0159025
  29.4107246  71.4639282  43.2882118  28.4718847  66.8710804  41.6601038
  27.8876972  65.8833504  41.9536209  28.7499762  67.1844864  40.3957081
  29.5649028  67.7683973  40.2730322  28.0650663  66.6387701  39.1838431
  27.0084834  66.6268063  39.4514108  28.2674003  67.5702333  37.9635286
  29.3163586  67.5693655  37.6672411  27.7523041  67.1399498  37.1046710
  27.8926134  68.9952326  38.1370282  26.9154358  69.1387558  38.5981464
  28.5787463  69.3889618  38.8868928  28.0540323  69.8770952  36.9238305
  27.8596759  70.9261751  37.1468973  29.0633464  69.8300743  36.5149641
  27.1618795  69.5040607  35.8419800  27.6511502  68.9983940  35.1173997
  25.9263015  69.8425817  35.6326389  25.2474880  70.6215477  36.4398742
  25.8201575  71.1890459  37.0482278  24.2888188  70.8716154  36.2436128
  25.3630757  69.4209099  34.5618105  25.9838748  69.0313053  33.8668847
  24.3798828  69.6035147  34.4200778  28.4842372  65.1661968  38.8689566
  29.4689846  64.5838642  39.3409920  27.8201795  64.5786285  37.9092741
  26.9157529  64.9743748  37.6959729  28.3650017  63.4103155  37.1957755
  28.7349367  62.6677656  37.9027915  27.2819591  62.8495741  36.3873649
  27.6634049  62.1019983  35.6918597  26.1676621  62.2367525  37.2792363
  25.7212663  63.0175734  37.8949785  25.4370141  61.8029308  36.5965509
  26.5693021  61.5348864  38.0101109  26.7040801  63.8173342  35.5891228
  25.8439064  63.4840012  35.3234291  29.5724559  63.7562084  36.3507724
  30.3841662  62.8941917  36.1389470  29.7336817  64.9645472  35.8356881
  28.9842367  65.6389952  35.8953190  30.8905911  65.4216719  35.0345302
  31.8032861  65.1879263  35.5826735  30.9144473  64.6784115  33.6503530
  31.6721964  65.1862144  33.0536532  31.1622310  63.6270857  33.7966943
  29.7850299  64.8304033  32.8231549  29.0360165  64.3117666  33.1257987
  30.7251740  66.8394423  34.7298908  29.5693040  67.3966694  34.6577072
  31.8428993  67.5426245  34.4793582  32.6946092  66.9998026  34.4854712
  31.8470287  68.8687134  33.8462639  31.2025547  69.5541334  34.3966842
  33.3798218  69.3353796  33.8187027  34.0853357  68.8051844  33.1789827
  33.4615207  70.3494310  33.4273839  34.0083385  69.2448711  35.2979231
  33.8147974  68.2433987  35.6822491  35.4525018  69.3223858  35.3298903
  35.9759498  68.6526585  34.6475673  35.7762432  70.3478622  35.1518774
  35.7571554  69.0708876  36.3457823  33.4331441  70.2861929  36.2641358
  34.0219569  70.2229929  37.1792364  33.5704708  71.2652683  35.8051658
  32.3666143  70.1750135  36.4597225  31.3861799  68.7279320  32.3893738
  31.5870476  67.6512432  31.7805648  30.6888795  69.6760178  31.7796183
  30.3190351  70.9145641  32.3896766  31.0149312  71.5417433  32.9468775
  29.4339991  70.6335592  32.9605103  29.8449278  71.7544460  31.1673403
  30.6947088  72.0571375  30.5554914  29.0652561  72.4731255  31.4197564
  29.1674066  70.6933689  30.3514290  29.0114641  71.0279608  29.3258405
  28.2318521  70.3904867  30.8216381  30.0778937  69.4737387  30.4342222
  29.4444537  68.5973549  30.2970719  31.1162567  69.3204546  29.2789006
  30.7613254  68.8771057  28.1473160  32.3763132  69.6215487  29.4935608
  32.6054382  70.0554466  30.3763628  33.4137106  69.3593359  28.4565568
  32.9625940  69.4067812  27.4654222  34.5175529  70.4380178  28.5203576
  35.3475499  70.3102875  27.8254557  34.0653181  71.3662052  28.1709981
  35.0802875  70.7906151  29.8389792  36.1240053  70.1782036  30.4543424
  36.6841006  69.3026114  30.1610303  36.3077855  70.8615351  31.6485143
  36.9184065  70.5508566  32.3906207  35.3989148  71.8869019  31.7946982
  35.2399421  72.8199100  32.7849746  35.8190274  72.7073526  33.6896253
  34.1133165  73.6796570  32.7900505  33.9163971  74.2297220  33.6983752
  33.2433200  73.7054682  31.7089653  32.3465896  74.3062830  31.7450500
  33.5466075  72.8807068  30.6008339  32.8663325  72.8868246  29.7620296
  34.6352911  71.8811035  30.6474209  34.1018319  68.0238533  28.6820078
  34.8054910  67.4873543  27.8254938  33.8680029  67.4010706  29.8268366
  33.1520486  67.7957344  30.4199195  34.4292927  66.1519337  30.2074742
  35.4960752  66.2615967  30.0123954  34.1075325  65.8066416  31.6720486
  34.3345141  66.7304277  32.2042203  33.0272245  65.7601213  31.8094301
  34.8565245  64.6450281  32.3779678  34.5455408  63.7506485  31.8380785
  35.9355330  64.7880888  32.3198557  34.5485973  64.6266365  33.8560963
  33.9864731  65.4993963  34.4294238  34.8686576  63.5729980  34.5653915
  34.5048928  63.4790993  35.5029202  35.3068399  62.8592157  34.0009379
  33.9354229  64.9986553  29.3358064  32.6887274  64.9881601  29.0290761
  34.8246598  64.1258907  28.9985108  35.7403278  64.1620779  29.4231749
  34.4681168  62.9600000  28.1982493  35.3630233  62.3379803  28.1799221
  33.5800576  62.5003481  28.6320329  34.2957926  63.2450485  26.6747689
  33.9475346  62.2191238  25.9373140  34.5372295  64.3914795  26.1015511
  35.1263046  65.0615072  26.5750003  34.2018890  64.7375202  24.7223854
  33.1759930  64.4487667  24.4937706  34.2158937  66.2559080  24.5062351
  35.1616025  66.6788101  24.8451853  34.1303587  66.4047575  23.4298420
  33.0819058  67.0246458  25.2373600  33.3338833  67.0016527  26.2975860
  33.1630993  68.4441519  24.6745181  32.6065707  69.1604567  25.2789068
  34.2134857  68.7281942  24.6104097  32.7351475  68.5245562  23.6752701
  31.6390991  66.6001606  25.0388670  31.4646387  65.5583191  25.3076386
  31.0063410  67.2233057  25.6708550  31.3533616  66.7661142  24.0001583
  35.1661086  64.0739441  23.7530088  36.3203311  63.8655663  24.0428829
  34.6678209  63.6107159  22.5944901  33.7690854  63.9974308  22.3438358
  35.2766180  62.8111267  21.5690207  35.9499335  62.1167040  22.0715451
  34.2057943  62.0290041  20.7931423  33.5201406  62.7062893  20.2839613
  34.6822882  61.4995861  19.9680543  33.4713149  61.0390425  21.6350341
  34.0443039  60.1795578  21.9829869  33.1437850  61.5200710  22.5566864
  32.2090626  60.6586599  20.8331752  31.6234040  61.5234327  20.5212855
  32.6611805  60.2139378  19.9466586  31.3727069  59.5726824  21.6890097
  30.8338809  59.0048742  20.9304833  32.1175814  58.9251375  22.1515536
  30.4905486  60.2787924  22.6156402  29.9221563  59.5802641  23.0729103
  30.9693885  60.8753920  23.2750940  29.7485685  60.8460951  22.2312784
  36.2225580  63.5324240  20.5977821  35.9291482  64.6579838  20.1945400
  37.3048306  62.8373528  20.2566218  37.2783923  61.8340111  20.3693557
  38.3450770  63.3645630  19.4154263  37.8417611  63.8898659  18.6037385
  39.2008233  64.3979120  20.1483059  38.5408807  65.1421928  20.5939770
  39.8529458  63.8794136  20.8511591  39.7467041  64.7772980  19.2844880
  39.2856884  62.2799826  18.9636159  39.5842600  61.3164568  19.6741986
  39.8458815  62.4292183  17.7549934  39.5469904  63.2130194  17.1924770
  40.7893419  61.5051413  17.0489454  40.4939699  60.4928207  17.3247409
  40.4011679  61.6141939  15.5637455  39.3126941  61.6124296  15.5060923
  40.8155107  62.5201511  15.1214039  40.8597088  60.7601738  15.0652552
  42.2388458  61.6656065  17.4004745  43.1358290  60.9473276  16.9985449
  42.4859142  62.7228498  18.2332218  41.6875076  63.3230734  18.3828366
  43.7395430  63.1095505  18.7528837  44.3523502  62.2504187  19.0257466
  44.5343018  64.0810394  17.9142523  45.5195570  64.3177557  18.3159268
  44.9616909  63.4984970  16.5182650  45.7144451  62.7151823  16.6069865
  44.1391706  62.9937124  16.0115564  45.4022121  64.3070412  15.9349120
  43.7822723  65.2671385  17.7110362  43.0826759  65.2167368  17.0555830
  43.4789848  63.7844038  20.0528264  42.3110676  64.1023540  20.3649426
  44.5149612  64.0757561  20.8682179  45.3656816  63.6027193  20.5987549
  44.5367479  64.9038601  22.1129274  43.7935734  64.5306110  22.8175354
  45.8099890  64.6432209  22.8849959  46.6742754  64.7918844  22.2376895
  45.8860159  65.3120327  23.7423301  45.8469343  63.1479979  23.3212256
  44.8643064  62.8177023  23.6580420  46.2214851  62.5000286  22.5287914
  46.9265699  62.9656363  24.3968749  47.4391079  62.0150137  24.2494750
  47.6113033  63.8055992  24.2798114  46.2706661  63.0545950  25.8109951
  45.8858013  64.0467310  26.0468912  45.4184389  62.3751402  25.7988262
  47.1251297  62.6252604  26.9178891  47.2927618  61.6293764  26.9030142
  48.0302429  63.0722094  26.8846631  46.7543888  62.8992271  27.8165507
  44.3043661  66.3552427  21.8459439  43.3453321  66.9757032  22.3743391
  45.1331520  66.9044447  20.9441018  45.9617186  66.3970947  20.6680846
  44.9696827  68.2876253  20.4754496  45.0703621  68.9355564  21.3461685
  46.0717869  68.7103462  19.5229793  46.3748932  67.8703022  18.8980365
  45.7506895  69.5589924  18.9190006  47.3342657  69.1709232  20.2795625
  47.0880890  69.7733593  21.1539578  47.7436256  68.2675457  20.7317257
  48.4719086  69.6588182  19.3786609  49.3788910  69.6788836  19.9828768
  48.4586763  68.9199829  18.5773826  48.3031559  71.0407877  18.8306308
  47.2682095  71.1988640  18.5273290  48.5207796  71.8080759  19.5736098
  49.1619253  71.2590647  17.6306140  50.0200367  71.6331577  18.0098271
  49.3661118  70.4258490  17.0975471  48.7925482  72.0183516  17.0764065
  43.6039877  68.7469292  19.9601102  43.2055807  69.8678827  20.3495193
  42.8982353  67.9371786  19.2323518  43.3771563  67.1792936  18.7672269
  41.5081024  68.0915737  18.9419150  41.3897133  69.1261196  18.6197245
  41.1038446  67.0729780  17.8528810  41.7396212  67.0766783  16.9675112
  41.1968184  66.1476517  18.4214079  39.6918941  67.2592115  17.2187960
  39.0115666  67.5219584  18.0288684  39.6211076  68.1425810  16.5841734
  39.2308497  66.0966063  16.4662993  39.7683811  65.0001812  16.6360164
  38.1352377  66.2495995  15.6846571  37.7242184  65.3916407  15.3454292
  37.5849771  67.0957232  15.6474531  40.4890585  68.0129862  20.1533508
  39.6728754  68.9428091  20.2893949  40.7045794  67.0869446  21.0807681
  41.4046812  66.4067125  20.8214545  40.0580645  66.9489050  22.3476243
  38.9894629  66.7492723  22.2679305  40.6583786  65.7397747  23.1304288
  40.9695625  64.9747753  22.4190640  41.4395380  66.0850573  23.8076782
  39.5776415  65.0382519  24.0703464  39.1525578  65.7997894  24.7241545
  38.8013911  64.5739794  23.4620810  40.2297831  63.9720964  24.9954653
  40.9316111  63.3593130  24.4297481  40.7737255  64.4617844  25.8031964
  39.1874695  63.0672646  25.6934714  39.7000432  62.5437117  26.5004778
  38.4895611  63.7862301  26.1225533  38.5362244  62.1088314  24.7603083
  39.0441871  62.0939016  23.8874674  38.6087227  61.1642551  25.1104832
  37.6446366  62.4954939  24.4852400  40.1736259  68.2044554  23.1953478
  39.1579103  68.7575388  23.6964035  41.3541365  68.8146639  23.3019853
  42.1593475  68.2547474  23.0606699  41.5641737  70.1378727  23.9650035
  41.1081266  70.1634169  24.9546838  43.0878115  70.4427958  24.0400100
  43.5409021  70.7042885  23.0837512  43.1634474  71.3215208  24.6804953
  43.9674044  69.3501616  24.6905518  43.4064722  68.2820559  25.5281997
  42.3419571  68.2486486  25.7073832  44.2463970  67.3107481  26.1347508
  43.8264894  66.4888859  26.6956592  45.6310511  67.3906040  25.9820509
  46.4543676  66.3550282  26.3592529  47.3767805  66.5649700  26.1959291
  46.2052059  68.4628677  25.2233458  47.2685575  68.4385109  25.0360084
  45.4056549  69.4349337  24.5656800  45.8455324  70.2709436  24.0422273
  40.8926916  71.3726664  23.2849503  40.4286337  72.3204517  23.9748335
  40.7061768  71.2861061  22.0061064  41.3897133  70.7246780  21.5185881
  40.0132513  72.3950291  21.3014126  40.2875948  73.2801771  21.8753004
  40.5275536  72.4569464  19.8463356  40.3903389  71.4485598  19.4559109
  39.8712301  73.1014442  19.2615581  41.9156694  73.0394459  19.6816492
  42.6176643  72.3743916  20.1846433  42.2214413  72.9532909  18.6389697
  42.0831490  74.5101070  20.0833821  41.5541220  75.3275299  19.3639350
  42.7028561  74.7930574  21.1451459  38.4444237  72.2842884  21.3492036
  37.7495050  73.2666683  21.4679408  37.9710054  71.0779572  21.2095952
  38.5721421  70.2870607  21.0273337  36.5669727  70.8056593  21.4805341
  35.9887981  71.5315533  20.9087920  36.1583209  69.3497944  21.1583281
  36.7128205  68.5561991  21.6591597  35.1268888  69.1634655  21.4575458
  36.1854029  69.1863680  19.6491325  35.7686329  70.1033688  19.2325830
  37.2497249  69.1706991  19.4144440  35.5259705  67.8910637  19.0521467
  35.5023003  67.9698133  17.9652524  36.1837196  67.0456743  19.2540979
  34.1311264  67.5252485  19.6122563  34.1807675  67.4354315  20.6974149
  33.5736680  68.4378433  19.4012833  33.5243106  66.2803507  19.0939605
  33.7659192  66.1939573  18.1170976  33.9703584  65.4734564  19.5063472
  32.5212693  66.2625599  19.2109859  36.2886572  71.0502195  22.9357266
  35.3707576  71.8310595  23.2465792  37.0867705  70.5630016  23.9369226
  37.8416920  69.9983120  23.5745358  36.9805765  70.9311676  25.3561997
  36.0069776  70.6186676  25.7337594  38.0847812  70.1972389  26.2381721
  39.0691257  70.2758074  25.7766557  38.2176518  70.9191561  27.5801253
  37.2686076  71.1024284  28.0839348  38.9733481  70.4537725  28.2129335
  38.5945463  71.9340515  27.4534774  37.8865957  68.7062597  26.4763427
  37.0827270  68.6829710  27.2121096  37.5528955  68.2824087  25.5291891
  39.2274308  68.0410719  26.8690276  39.1375709  66.9554949  26.8297362
  40.0118971  68.2982874  26.1572933  39.6322918  68.4447479  27.7970552
  36.9615436  72.4766159  25.5766082  36.1046886  73.0330420  26.2532163
  37.9536819  73.1851482  25.0147200  38.6451244  72.6444578  24.5150566
  38.0567122  74.6299505  25.2071881  38.4200525  74.8449373  26.2121081
  39.1781855  75.0291634  24.2179108  40.1292467  74.7128344  24.6463060
  39.0426350  74.6902084  23.1908584  39.1834164  76.4017248  24.2225909
  40.0768852  76.6434669  23.9678884  36.7224836  75.3591537  24.8361564
  36.2101746  76.1077213  25.7154560  36.1471486  75.1584339  23.6894131
  36.5650702  74.4632864  23.0875754  34.8616290  75.7866907  23.2186937
  34.9592662  76.8405104  22.9578638  34.4068360  75.1229620  21.9521117
  35.1097322  75.4843187  21.2014699  34.3970490  74.0350294  22.0185375
  33.0229640  75.5523062  21.4166880  32.8718209  74.9817705  20.5003119
  32.3300982  75.2992678  22.2191906  33.1104255  77.0471859  21.1194682
  33.9377046  77.4462795  20.3709388  32.1614695  77.8254366  21.4273024
  33.7585306  75.5787039  24.2125344  33.0707645  76.5257311  24.4860697
  33.5930252  74.3823671  24.7043157  34.3083954  73.6834240  24.5635271
  32.5698805  74.1360521  25.7821226  31.6247344  74.5338440  25.4125667
  32.4347758  72.6112890  25.9516644  32.2731590  72.4458790  24.8864794
  33.3791685  72.0761442  26.0508657  31.3215733  72.0428324  26.8468165
  31.3466263  70.9812307  26.6009021  31.6480327  72.1940422  27.8757286
  29.8402596  72.6614380  26.5883064  29.1502690  72.2586012  27.3297477
  29.8607278  73.7487888  26.6614914  29.2384434  72.2461653  25.2172542
  29.9135709  72.6580477  24.4671512  29.2558336  71.1568594  25.1824188
  27.8756714  72.7239752  24.9391747  27.4840784  72.3185778  24.1010761
  27.2130251  72.4457598  25.6488204  27.8751922  73.7295294  24.8444986
  32.8646183  74.7841835  27.1114564  31.9566011  75.2899837  27.7622914
  34.1050792  74.9468946  27.4528432  34.7536492  74.6593475  26.7339683
  34.6606517  75.6300592  28.6272740  34.0334773  75.3342915  29.4682717
  36.1029673  75.1482439  28.9036226  36.1962986  74.0649128  28.9796519
  36.7180061  75.4064703  28.0415583  36.6839647  75.7308912  30.2330828
  36.6872144  76.8201590  30.1932168  36.0136986  75.3049994  30.9797120
  38.1323195  75.3273916  30.6301212  38.8566351  75.6338644  29.8754430
  38.3194876  75.8113527  31.5886879  38.4175658  73.8026714  30.8452868
  37.8349543  73.4698153  31.7042780  38.0865574  73.2640409  29.9573612
  39.7967768  73.5914469  30.9856224  40.1377010  74.0094376  31.8395352
  39.8436475  72.5864744  31.0747027  40.3814173  73.8810682  30.2146387
  34.4036865  77.1104860  28.5538936  33.7487960  77.5980902  29.4500685
  34.7857094  77.7664852  27.4978352  35.2352619  77.2298813  26.7697859
  34.5048475  79.2319584  27.2501779  34.8604751  79.7642279  28.1324029
  35.2668405  79.8217344  26.0314131  35.1849771  79.0307045  25.2859807
  34.7756696  80.7175350  25.6514311  36.7806315  79.9917364  26.3438034
  36.7968893  80.6328392  27.2251797  37.2172952  79.0062904  26.5060067
  37.8008580  80.9075737  25.0777698  37.8109288  79.6992445  23.7631655
  38.3832836  80.0259399  22.8949547  38.3628583  78.8075161  24.0603113
  36.7894030  79.4232321  23.5016251  32.9936266  79.5988464  27.1476388
  32.6402783  80.7049274  27.6066589  32.2123528  78.6659431  26.6065741
  32.6993656  77.8560781  26.2501431  30.7806253  78.7980986  26.5042591
  30.5541897  79.8642826  26.5133667  30.2647305  78.3692789  25.1494241
  29.1896272  78.4921360  25.0184155  30.7053804  78.9962816  24.3743086
  30.5973363  76.9981575  24.9133372  31.5149832  76.9175768  24.6430969
  29.9060845  78.2603836  27.6653028  28.7330675  78.2467651  27.6550937
  30.5445766  77.8158951  28.7611222  31.5538645  77.7925634  28.7909842
  29.8720622  77.4775267  30.0395083  28.8414335  77.1552515  29.8910165
  30.4564309  76.1207628  30.6213307  31.5106678  76.2971163  30.8348513
  29.8473787  75.7819462  32.0231724  28.7606502  75.8639526  32.0431066
  30.0314903  74.7397995  32.2842073  30.3493404  76.3323450  32.8189087
  30.3049707  74.9993801  29.8257732  30.8291507  75.0780058  29.0253639
  30.0405431  78.5837746  31.0566497  30.9923434  78.6860991  31.7977238
  29.0397501  79.4527864  31.1495781  27.8086829  79.4936895  30.2537966
  27.1926498  78.6018133  30.3685164  28.0184484  79.7956371  29.2276788
  26.9314027  80.5587769  30.8689404  26.1868978  80.1598835  31.5579176
  26.4209008  81.1646748  30.1203465  27.8186703  81.3480377  31.7977452
  27.2732568  81.8033600  32.6243711  28.2553506  82.1368694  31.1852527
  28.9030051  80.4036617  32.2612643  29.8342991  80.9330845  32.4625039
  28.5382390  79.7726202  33.5995173  28.0413365  78.6026001  33.6470175
  28.9458108  80.4039288  34.6770382  29.3857360  81.3096619  34.5981812
  28.8775444  79.7764921  36.0448837  29.4562650  78.8609362  35.9226465
  29.6489954  80.6432152  37.0605993  29.7532368  80.0689030  37.9811454
  31.0877538  81.0379505  36.5751290  31.5776706  80.1693439  36.1351156
  30.9018469  81.7353535  35.7583237  31.6218090  81.5785980  37.3565245
  28.9711165  81.9596577  37.4546814  28.1038022  81.7436695  38.0785584
  29.5605206  82.5634766  38.1446958  28.6623716  82.6655197  36.6836143
  27.5343442  79.3805695  36.5204906  27.3870254  78.3569574  37.1681190
  26.5006876  80.1088619  36.2036896  26.7105961  80.8573532  35.5588627
  25.0902772  79.6380186  36.4776850  25.0339007  79.6167374  37.5660181
  24.1934395  80.7641220  35.9631300  24.4606042  81.6913795  36.4700079
  24.5355678  80.9941769  34.9541116  22.6711702  80.6680870  36.0231185
  22.2801876  81.5348625  35.4902649  22.3089218  79.8436308  35.4089952
  21.9524622  80.6447983  37.4177790  22.2547030  81.6272926  38.1411648
  21.2027478  79.6935749  37.8017640  24.8007035  78.2332850  35.9536719
  24.2955709  77.4295855  36.7869997  25.0010180  77.9113865  34.6697783
  25.4466438  78.5564470  34.0330529  24.4748640  76.6046190  34.2001438
  23.5063386  76.4864159  34.6860456  24.2243481  76.6301918  32.6579714
  23.8505030  75.6599140  32.3310137  23.3474278  77.7494431  32.1237063
  22.4102092  77.7795601  32.6794171  23.7805200  78.7474251  32.0560908
  22.9822636  77.5350237  31.1193275  25.4943991  76.7608833  31.8744326
  26.0572505  75.8277369  31.8975210  25.2618051  76.9713783  30.8305454
  26.1119175  77.6163912  32.1480680  25.1561856  75.3622484  34.6608281
  24.6018052  74.2605782  34.7297168  26.4525342  75.5351686  34.9575996
  26.7621231  76.4877367  35.0875020  27.2419143  74.4705915  35.5821514
  27.0562649  73.5515928  35.0262070  28.6726189  75.1070690  35.6127930
  29.0085697  75.4403305  34.6308708  28.6191750  75.9527779  36.2983751
  29.7655511  74.0557194  36.0624337  29.6906066  73.9428425  37.1439815
  29.6563721  72.7536583  35.3149986  30.5085182  72.1593475  35.6447625
  28.9089155  72.1132231  35.7832456  29.3733072  72.7755451  34.2626238
  31.1768556  74.6372414  35.7741094  31.2668419  74.4930315  34.6974397
  31.1635780  75.6671906  36.1306643  31.9040346  73.9631844  36.2268281
  26.7796087  74.1794395  37.0293331  26.8827844  73.0338764  37.3698497
  26.2814617  75.1597500  37.7353525  26.1474085  76.0299730  37.2405362
  25.5979180  75.0704718  39.0687561  26.0030007  74.1666889  39.5239282
  25.9849191  76.3139772  39.8745990  25.5143070  77.2349453  39.5304418
  25.7249260  76.1499119  40.9203434  27.7953124  76.5130997  39.9615479
  27.8690934  77.2373772  38.8413358  24.0851736  74.7790384  39.0631723
  23.4858465  74.5271778  40.1513386  23.4663010  74.4924879  37.8744388
  23.9938855  74.6604156  37.0297146  22.1103096  73.9749098  37.7499437
  21.4560628  74.6251583  38.3306670  21.8357182  73.8389158  36.2665844
  21.9403911  74.8278427  35.8203077  22.4736261  73.1606436  35.6999087
  20.4123569  73.3981228  36.1133075  20.2298427  72.3568249  36.3788033
  19.7661662  74.0433168  36.7085052  19.9715805  73.5791540  34.6121740
  19.8935616  74.6440125  34.3928838  20.7726336  73.0175686  34.1315174
  18.6387968  72.9531050  34.2930174  18.4425187  73.0013657  33.2219195
  18.5900152  71.9636059  34.7475648  17.5960612  73.7889576  34.9513268
  16.7618155  73.2961988  34.6661496  17.6920128  73.8074970  35.9565902
  17.6749563  74.7112322  34.5472455  21.9368911  72.5760078  38.5269403
  22.7620077  71.6620398  38.4350944  20.9150863  72.5122786  39.3167639
  20.1762199  73.2004404  39.3414283  20.7692838  71.3345385  40.2219629
  19.7656369  71.3329792  40.6471586  20.7975817  70.4085493  39.6476412
  21.7083263  71.2559938  41.4505339  21.8247366  70.2339172  42.0827246
  22.4217868  72.3386860  41.7651510  22.3014498  73.1550217  41.1827278
  23.2848811  72.5388575  42.9010439  23.0750275  71.8339777  43.7055349
  24.7239137  72.1993923  42.5045204  24.8465157  72.5973368  41.4971972
  25.3995180  72.7453899  43.1629658  25.0266218  70.7619143  42.5353527
  25.2169371  70.0914192  43.8260031  25.2794814  70.6630039  44.7402143
  25.3474975  68.6876392  43.8186693  25.4805851  68.1678963  44.7559834
  25.2872801  67.9722738  42.5931072  25.3721738  66.9012547  42.7031612
  25.3349352  68.5938168  41.3417912  25.2184725  67.9328823  40.4956102
  25.1863670  70.0024366  41.3680792  25.1663017  70.6132412  40.4776239
  23.0978823  73.9831543  43.4154510  22.4686313  74.8508263  42.7838373
  23.6044335  74.4031954  44.5677710  24.0578222  73.4417534  45.5791235
  25.0789237  73.0623913  45.5399275  23.3974934  72.5839663  45.7066584
  24.0599632  74.1975498  46.9340611  24.8729324  73.8439274  47.5682068
  23.1393909  73.9079809  47.4408150  24.1409516  75.6567955  46.6306782
  25.1915932  75.9466267  46.6148710  23.6601448  76.2827444  47.3824215
  23.4780097  75.7351589  45.2501488  22.4108744  75.9304523  45.3559685
  24.0044475  76.8496275  44.3507290  25.0412369  76.7299700  43.6362553
  23.3417416  78.0005550  44.5026255  22.5742745  78.0867338  45.1535225
  23.7968969  79.2157173  43.8501167  23.7777495  79.0502453  42.7729225
  22.6743674  80.2699757  43.9043140  21.7762351  79.8976803  43.4115171
  22.5285244  80.5657291  44.9432421  23.0223346  81.1305809  43.3330154
  25.1297855  79.7674227  44.3742514  25.8284259  80.5194664  43.6760998
  25.4490972  79.4196987  45.6754160  24.7662115  78.9772081  46.2737179
  26.7499161  79.6508026  46.3006306  26.8628240  80.7178211  46.4925146
  26.7699456  78.8531494  47.6186705  25.9211612  78.1850624  47.7647066
  27.7107358  78.3266211  47.7792263  26.6158223  79.7641897  48.8272047
  26.8265796  79.1066599  49.6706104  27.3365521  80.5817413  48.8111353
  25.2047491  80.1997948  48.9708757  24.2181015  79.5480967  48.5966587
  25.0894547  81.2932968  49.5630741  27.9405665  79.2532873  45.4285240
  28.8507843  80.0406742  45.1421213  27.9638433  78.0595350  44.8463821
  27.1171713  77.5096416  44.8170519  29.1553473  77.6401806  43.9429998
  30.0641870  77.7715778  44.5302343  28.9696240  76.1574173  43.6177492
  27.9861641  75.9857082  43.1802273  29.7465754  75.9031820  42.8967714
  29.0291119  75.2416754  44.8047304  30.1544142  74.4067812  45.0513124
  30.8595562  74.3824339  44.2336416  30.2932596  73.5650301  46.1197281
  31.1718392  72.9453325  46.2220621  29.1413379  73.3883381  46.9177532
  29.1565657  72.6540327  47.7095699  27.9915285  74.1166544  46.7351437
  27.1399570  73.9325142  47.3733568  27.9261732  75.0276947  45.6775379
  27.0978808  75.7153177  45.5909300  29.1725087  78.4203768  42.6074886
  30.2866054  78.6248684  42.1204805  28.0300498  78.9509773  42.0605373
  27.1423626  78.8095093  42.5210762  28.1227088  79.9284029  40.9387732
  28.7507081  79.4406843  40.1932240  26.7493224  80.0816154  40.3588247
  26.7965603  80.5244637  39.3639612  26.3464141  79.0701723  40.3064251
  26.1451530  80.7331944  40.9901142  28.7611747  81.2063599  41.3386440
  29.7179651  81.5902615  40.6282282  28.3219576  81.9031620  42.4245310
  27.5304222  81.5569305  42.9476881  28.8423300  83.1431293  43.0098295
  28.7360430  83.8760567  42.2100687  28.1042361  83.4741688  44.2346525
  28.0509400  82.5550938  44.8182297  28.6323261  84.2638397  44.7691107
  26.6831303  83.8863564  43.9201641  26.6347289  84.6628094  43.1566954
  26.1791921  83.0036926  43.5263872  25.7378054  84.5465183  45.3767252
  24.7778630  82.9899883  45.8889723  24.2594051  82.5197601  45.0533962
  25.5878329  82.3385334  46.2170744  24.0640497  83.1136608  46.7033911
  30.3262424  82.9419708  43.2645798  31.1479568  83.7360573  42.7845478
  30.7903099  81.8159866  43.8616943  30.0967717  81.1135006  44.0752935
  32.2095490  81.3627052  44.0529013  32.6702571  82.0845318  44.7273016
  32.3377299  79.8931694  44.6592617  32.0209336  79.7669744  45.6945467
  31.7068338  79.2877483  44.0084648  33.7986135  79.3392181  44.5375013
  34.1488576  78.3639622  43.5228729  33.4587526  78.1021500  42.7344513
  35.5625844  78.0962133  43.3178997  35.9815884  77.6052380  42.4520016
  36.5405869  78.4820461  44.2806005  37.7772498  77.9883242  44.2179012
  38.0833292  78.0096054  43.3082533  36.1221695  79.3062162  45.3953075
  36.7585325  79.5690918  46.2273836  34.7651196  79.8163700  45.4824638
  34.4409704  80.3794003  46.3452101  33.0031896  81.4395428  42.6692295
  34.0486360  82.1247196  42.7093983  32.5516415  80.8168602  41.5936327
  31.7127490  80.2756214  41.7466927  33.2520247  80.8307743  40.3090811
  34.2845058  80.5454540  40.5107784  32.7786970  79.7626305  39.3707681
  31.7738581  79.5736170  39.7484851  32.8043175  80.0340939  38.3154225
  33.5413718  78.4288979  39.4016266  33.9034700  78.2147789  40.4071808
  32.7309775  77.1566200  38.9947534  32.2209072  77.3388338  38.0488539
  33.3302402  76.2508345  39.0871859  31.9000125  77.0093107  39.6846080
  34.6769023  78.5549355  38.3802080  35.2182961  79.4836664  38.5603619
  35.3501034  77.7004766  38.4495282  34.3400216  78.5265684  37.3439622
  33.1928039  82.1872807  39.6288896  34.1264606  82.4870300  38.9242697
  32.1880960  83.0190754  39.8795366  31.3692951  82.6740170  40.3597498
  32.0913792  84.3703365  39.2537880  32.2172356  84.3061829  38.1729794
  30.6380296  84.8867321  39.6048284  29.7946620  84.2439461  39.3525195
  30.4854083  84.8433399  40.6832218  30.4207969  86.2804031  39.0770626
  30.4434848  86.4754772  37.8589916  30.3518510  87.2072124  39.9689841
  30.3768277  88.1797314  39.6975183  30.4850531  87.0808601  40.9621572
  33.1385350  85.3269768  39.8805737  33.8303232  86.0516548  39.1254783
  33.4509897  85.1402187  41.1726189  32.8506613  84.5256424  41.7036581
  34.6786737  85.6135559  41.8864536  34.7616625  86.6752052  41.6538286
  34.7138643  85.3327560  43.3686972  33.7768459  85.7446194  43.7434912
  34.8530078  84.2736626  43.5855961  35.8313441  86.1201477  44.0613317
  35.6068277  87.4248409  44.5487118  34.6582580  87.9411411  44.5408678
  36.7099071  88.0983162  45.1065683  36.5253067  89.0561008  45.5702209
  37.9976416  87.5085163  45.1702023  39.0233541  88.1242371  45.6539011
  38.8665700  89.0697002  45.7097101  38.2514095  86.2769413  44.5396471
  39.2470145  85.8664989  44.4577312  37.1271110  85.5507469  43.9824820
  37.2838736  84.5674515  43.5642099  35.9294319  85.0579262  41.2317991
  36.7886138  85.8749676  40.8229733  36.1037421  83.7286568  40.9694767
  35.2992153  83.1694317  41.2146473  37.4071550  83.1861687  40.5820131
  38.1531978  83.6176586  41.2493563  37.4102616  81.6472626  40.7630777
  36.5982008  81.3765049  40.0882816  38.4173799  81.2987137  40.5343246
  36.9946122  81.1120605  42.4832678  35.7643247  81.6155815  42.6165199
  37.8152633  83.6541748  39.2092419  38.8769484  84.2734432  39.0302896
  36.8937445  83.5367203  38.2608676  36.0604525  83.1339073  38.6651754
  36.9626093  84.0720654  36.8884468  37.7637863  83.5451317  36.3702130
  35.6555009  83.8009167  36.0903025  34.8505187  83.8938236  36.8193245
  35.4745746  84.4713211  35.2501082  35.6059146  82.3588276  35.5638433
  36.4704919  82.1327305  34.9397492  35.5186105  81.6699886  36.4040709
  34.3901277  82.2208595  34.7026348  33.4810805  82.2998047  35.2988768
  34.3477178  82.9984570  33.9399719  34.3452048  80.9513378  34.0400696
  35.1822543  80.4392338  34.2792368  33.4246445  80.3420639  33.2787871
  32.3934889  81.0211372  32.8430295  32.3205256  82.0181561  32.9869986
  31.8993688  80.5458832  32.1013570  33.4148955  79.0557528  33.0327439
  33.9667606  78.4979486  33.6686707  32.5994492  78.7328768  32.5318599
  37.3774767  85.5024338  36.8903470  38.2342219  85.9304237  36.1387444
  36.7653346  86.3299084  37.7554202  36.2808490  85.9651852  38.5631084
  36.8545866  87.8078365  37.6252007  36.7100620  88.0262089  36.5671229
  35.9986234  88.1900215  38.1814051  38.1289530  88.4265995  38.1210566
  38.2816672  89.6693230  37.9433727  38.9780664  87.6844597  38.8612032
  38.8534546  86.6850471  38.9370251  40.2298307  88.1590176  39.4197536
  39.9801469  88.8707829  40.2066135  40.9516954  86.9936848  40.2288485
  41.0490084  86.0712433  39.6563721  41.9796133  87.3207188  40.3854656
  40.3228807  86.6208649  41.5914345  39.2574096  86.6034794  41.3621616
  40.9317255  85.2513599  42.1300077  40.7143784  85.0538254  43.1796932
  40.4626465  84.4668961  41.5361309  42.0162344  85.3234196  42.0478582
  40.6844711  87.6893425  42.6207733  40.2756310  87.4054050  43.5904789
  41.7501783  87.9164314  42.6488876  40.2653694  88.6733723  42.4106979
  41.1502838  88.6172962  38.3129001  41.4040804  87.8927898  37.3424911
  41.7684746  89.7901535  38.4512973  41.5371561  90.3794861  39.2382431
  42.8510237  90.2931595  37.6210022  42.6695156  90.1879406  36.5513778
  42.8933954  91.8778706  37.9282689  42.9979801  92.0362568  39.0016174
  43.7296295  92.4132538  37.4786353  41.6367912  92.5829792  37.3224759
  41.8188095  92.6567650  36.2503171  40.6619787  92.1667862  37.5767088
  41.5025759  94.0399170  37.7808738  42.3216438  94.7015285  37.4989343
  40.6513786  94.3844795  37.1936417  41.1186695  94.2031193  39.1548848
  41.2993193  93.4175873  39.7634935  40.3539181  95.0513554  39.7911596
  40.0972700  96.1669064  39.1514969  40.3820324  96.1712933  38.1824803
  39.4714880  96.8585300  39.5389962  39.9414182  94.9597263  40.9951448
  40.0600290  94.1416454  41.5754652  39.3047905  95.6954479  41.2662983
  44.2339849  89.6898270  37.9577208  44.4651175  89.0840054  39.0220094
  45.2348375  90.0360298  37.1077156  44.9554253  90.5736160  36.2996149
  46.5919638  89.5010853  37.0959902  46.4040184  88.4342384  36.9750953
  47.2969389  89.9292564  35.8497405  46.7679834  89.5259762  34.9862194
  47.1249485  91.0042381  35.7955360  48.7915230  89.4923496  35.6226659
  49.1602898  88.1353474  35.8145642  48.3900976  87.3995399  35.9928513
  50.4954863  87.7212143  35.6831813  50.6989336  86.6605759  35.6912303
  51.4878225  88.6510563  35.4176903  52.4593210  88.2287693  35.2073002
  51.0834455  90.0285244  35.1249456  51.7896461  90.8100605  34.8864484
  49.7349310  90.4600143  35.2230573  49.4798326  91.4844036  34.9951172
  47.4439335  89.7442150  38.3499289  48.0070210  88.7702084  39.0119529
  47.5589275  90.9592247  38.8337421  47.2653055  91.7518902  38.2809544
  48.2515144  91.2618828  40.1345205  48.9555740  90.4665089  40.3790426
  49.2664623  92.4253941  39.9967074  49.9160385  92.5324917  40.8654308
  49.8991776  92.1586227  39.1501832  48.7014771  93.8093185  39.6996093
  48.2752895  93.7065506  38.7016582  47.9539108  93.9729595  40.4757977
  49.7379017  94.9342728  39.7239804  50.4534006  95.1838875  40.7107496
  49.9779987  95.5493164  38.6763287  47.2606325  91.4026642  41.2588930
  47.5581503  92.0511818  42.2580814  46.0812283  90.7707882  41.1660480
  45.7442236  90.2800941  40.3501177  45.0799942  90.8923149  42.2051859
  45.2690887  91.7883110  42.7964115  43.6763716  91.1147499  41.5479946
  43.7030840  92.0450401  40.9805918  43.5603523  90.2528763  40.8908796
  42.4914360  91.2128448  42.4968243  42.1209431  90.2686882  42.8960657
  42.9200411  91.7093945  43.3673668  41.3225889  91.9333935  41.9007444
  40.9215593  91.6735649  40.7326889  40.8535480  92.9072857  42.5798035
  45.0289011  89.7768879  43.2260418  45.1187706  88.5761642  42.8808928
  44.8184204  90.1131535  44.5172167  44.8338270  91.0816288  44.8034430
  44.7453070  89.1955853  45.6568909  45.3987837  88.3760357  45.3578997
  45.4371977  89.7562790  46.8845510  46.3197279  90.3041553  46.5542841
  44.7139883  90.4211140  47.3568535  45.6893730  88.9606285  47.5855875
  43.3402777  88.6198521  45.9235334  42.4895144  89.4574547  46.2095881
  43.1335688  87.2803402  45.8055592  44.0723133  86.1425114  45.5767012
  44.6038532  86.0095692  46.5189838  44.8238277  86.2488747  44.7943878
  43.1268692  84.9640369  45.1794195  43.6069489  83.9871025  45.2362490
  42.7038145  85.0771809  44.1812611  42.0567513  85.1437759  46.1787462
  42.3557329  84.7467899  47.1488571  41.1459064  84.6086597  45.9102011
  41.8811321  86.7134666  46.2945652  41.0899162  87.2263813  45.7477474
  41.6686249  86.9265079  47.7763224  42.5279856  86.9839668  48.6659527
  40.4067516  87.0262623  48.1800890  39.7243834  87.1391106  47.4440575
  39.9929333  87.0578098  49.5839882  40.8008337  87.4127483  50.2238464
  38.8792968  88.0855179  49.6280098  39.2539907  88.9361191  49.0586329
  38.0236936  87.8306007  49.0026617  38.5115552  88.5147762  51.0634661
  39.0203619  87.9290771  52.0333672  37.5777459  89.3797493  51.1792135
  39.5063019  85.6613922  49.9840927  38.3162642  85.3685188  50.0983191
  40.4863548  84.8441029  50.3807974  41.4487696  85.1075649  50.2244520
  40.4218292  83.4979153  51.0115862  40.1358509  82.7295208  50.2933264
  41.7643404  83.0162621  51.4724350  41.9592476  83.5841942  52.3821449
  41.6815376  81.9584656  51.7220354  42.8955984  83.1068897  50.4308033
  42.8449202  82.2763634  49.3488979  42.1848822  81.4494133  49.1323280
  43.7397385  82.5271702  48.2786894  43.7117386  81.8894958  47.4074841
  44.6660852  83.5422993  48.3599377  45.5198812  83.7860203  47.3127317
  45.6558371  82.9987907  46.7803812  44.5922804  84.5312786  49.3813324
  45.0479984  85.5072117  49.3020821  43.7702036  84.2143631  50.4853773
  43.7796736  84.8923397  51.3260126  39.3352056  83.4716892  52.0668364
  38.4201622  82.6089859  51.8679571  39.3644857  84.3820381  53.0820704
  40.1267433  85.0429344  53.1299210  38.2528520  84.5279217  54.0188694
  38.2301664  83.6381435  54.6480560  38.4411097  85.7241821  54.9964762
  39.3542624  85.6066418  55.5799437  38.5500526  86.6728210  54.4708204
  37.2511959  85.7556725  55.9807348  36.4844251  86.2516689  55.3856277
  36.9638801  84.7216606  56.1714602  37.4947739  86.6016579  57.5669956
  37.6023293  88.3516216  57.0252085  38.0421543  88.4641933  56.0342598
  36.6426253  88.8593674  57.1214676  38.3516717  88.7380886  57.7160263
  36.9293618  84.5636177  53.2417154  36.1124039  83.6969757  53.4787560
  36.6639328  85.4758453  52.3382044  37.4650335  85.9747601  51.9784546
  35.3218508  85.4370117  51.5879107  34.5020485  85.6497383  52.2740412
  35.2886200  86.5222168  50.5147648  35.1648664  87.4698925  51.0388803
  36.2123609  86.4882278  49.9371433  34.1658354  86.2683678  49.5101404
  32.8257179  86.2068462  49.9588251  32.6896143  86.1563396  51.0290241
  31.7513347  86.0116768  49.0826368  30.7423854  85.9184361  49.4564390
  32.0459247  85.9407902  47.7329254  31.0573745  86.0203743  46.8150854
  31.3652349  86.1827087  45.9203959  33.3703947  85.8589745  47.3265409
  33.5907817  85.7912827  46.2714338  34.4793344  86.0485172  48.1924105
  35.4839802  85.9775162  47.8024721  35.0944662  84.0737438  50.9381771
  34.0142870  83.4563732  51.1973572  36.0485840  83.5223675  50.2043867
  36.9769263  83.9200211  50.1922035  35.8294749  82.2104836  49.5775604
  34.9391341  82.3686695  48.9689779  36.9236183  81.8876839  48.6328411
  37.8721547  81.7562962  49.1535282  36.6771698  80.9628105  48.1113386
  37.2310472  82.8921413  47.5506639  37.2660661  83.9174080  47.9190350
  38.6431670  82.6178646  47.0054245  38.6893415  81.5868473  46.6547632
  38.7831974  83.3389568  46.2001181  39.4103622  82.7999401  47.7579927
  36.1747408  82.8638840  46.4068413  35.1445794  83.0079651  46.7325830
  36.6253304  83.5103989  45.6537914  36.2189674  81.8311596  46.0609579
  35.4829741  81.0591125  50.4629230  34.6665859  80.2397919  50.0642490
  36.0839152  80.9288025  51.6333199  36.7968631  81.6133213  51.8412828
  35.6981611  79.9812269  52.7312660  35.6763744  78.9688492  52.3278952
  36.8045640  79.9592829  53.7720871  37.0369077  80.9366417  54.1950417
  36.4593005  79.2530012  54.5271111  38.0794907  79.3087721  53.1053686
  37.7299929  78.4178066  52.5836992  38.5896397  79.9894238  52.4237823
  39.1249990  78.9297295  54.2050362  38.5903144  78.3398628  54.9495268
  39.9135661  78.3698225  53.7022734  39.6713877  80.0891781  54.8967505
  39.0030956  80.7521248  55.2627945  40.9328318  80.5557728  54.8495340
  41.8512726  79.7682238  54.5849180  41.7365456  78.7652636  54.5532703
  42.7518368  80.2178860  54.5019054  41.2151861  81.7596817  55.2126694
  40.4671764  82.3268318  55.5853987  42.1865988  82.0170689  55.3137112
  34.4156718  80.2905750  53.4451342  33.6742401  79.3050957  53.7005234
  34.1788268  81.5702152  53.7618732  34.8416471  82.2436523  53.4051371
  33.0254102  82.1298218  54.5304394  32.9744077  81.7276573  55.5422544
  33.2584405  83.6364937  54.8262310  34.1951346  83.7923145  55.3614187
  33.2745004  84.0440750  53.8154316  32.1030712  84.3285561  55.6217718
  32.3377776  85.3928852  55.6365633  31.1095190  84.1327286  55.2185345
  32.1284866  83.7066364  57.0385695  31.2878847  82.9838371  57.5489712
  33.1129384  83.9905643  57.7869797  33.0746937  83.6951447  58.7520552
  33.8003945  84.6899605  57.5454187  31.7415309  81.7721462  53.7756395
  30.8039260  81.2625599  54.3764973  31.7982054  82.0422840  52.4431419
  32.6014924  82.5423622  52.0899343  30.6592488  81.7556286  51.5591192
  29.8591733  82.4230194  51.8793821  31.1376143  82.0441341  50.1238871
  31.1822724  83.1317806  50.0678349  32.1556544  81.6960239  49.9491978
  30.3271270  81.6398144  48.8549566  29.2428231  81.6116142  48.9626503
  30.6535769  82.5630379  47.6977444  31.7346048  82.6761055  47.6158905
  30.0894666  82.1727943  46.8506384  30.3181839  83.5621262  47.9760122
  30.8089471  80.2444267  48.4032249  30.4545450  79.5117474  49.1282606
  30.3921270  79.9740791  47.4330282  31.8953347  80.1592159  48.3787012
  30.1620173  80.3025055  51.7991734  28.9725304  80.0223064  51.9817162
  31.0585690  79.3192863  51.7055416  32.0298338  79.5948648  51.7338562
  30.7115507  77.9201603  51.9309998  29.8717380  77.5943041  51.3172913
  31.9249678  77.0796442  51.4584112  32.8699422  77.2407627  51.9772291
  31.6442943  76.0942411  51.8302965  32.1542215  77.0226669  50.0009680
  31.1435246  76.7275286  49.0792036  30.1286340  76.5662384  49.4114399
  31.4050627  76.6014099  47.6793528  30.6243968  76.4724350  46.9442749
  32.6956964  76.8376398  47.2410774  32.8866839  76.5760088  46.2107992
  33.7486935  77.1410799  48.1219149  34.6890950  77.4005175  47.6585102
  33.4419584  77.2600222  49.5231581  34.1525555  77.5629330  50.2779436
  30.2806520  77.6410437  53.4025574  29.3751478  76.8150902  53.6026478
  30.8315778  78.4119034  54.3954134  31.5214133  79.1296768  54.2250443
  30.4092979  78.2528114  55.8260441  30.4316449  77.1905470  56.0693359
  31.3049150  79.0446281  56.7504883  31.5163684  80.0257301  56.3252544
  30.8569074  79.1673040  57.7365589  32.7421308  78.4912491  57.0114040
  32.7221465  77.5190592  57.5038958  33.1913900  78.2960653  56.0376644
  33.6198640  79.3822050  57.9252958  33.6971879  80.3664494  57.4633455
  33.1592441  79.4486570  58.9109468  35.0307274  78.9032078  57.8888798
  35.2245426  78.0550051  57.3759604  36.0510206  79.4401312  58.4845352
  35.9302497  80.4737568  59.2567635  35.0088882  80.8647251  59.3921804
  36.7647409  80.8893585  59.6453476  37.2394919  78.9747143  58.2893515
  37.3641467  78.1851673  57.6719618  37.9898453  79.3302393  58.8643980
  28.9732409  78.6432505  56.0299873  28.2069850  77.9705238  56.7283249
  28.5022616  79.8121834  55.3889465  29.1315866  80.2376938  54.7233725
  27.1026492  80.2529526  55.4868174  26.8777919  80.3440285  56.5494776
  27.0486450  81.5088463  54.6793938  27.5723171  81.2401390  53.7619686
  25.6198168  81.8611145  54.1313314  24.9237490  82.2283363  54.8854780
  25.7008743  82.7116680  53.4545040  25.0528598  81.1181641  53.5703611
  27.6817107  82.7779102  55.3372478  26.8877149  83.1314278  55.9950399
  28.5157108  82.5868320  56.0125494  28.2775044  83.7643242  54.3467808
  28.3165741  84.7626972  54.7824860  29.2682409  83.4757805  53.9956665
  27.5504494  83.8424587  53.5384607  26.1826968  79.1385174  55.1409292
  25.4401827  78.6073780  55.9738541  26.3365674  78.5501623  53.9567661
  26.9090486  78.9661407  53.2361174  25.6015396  77.3632765  53.5244274
  24.5539713  77.6640511  53.5397768  26.0397673  77.0771503  52.0808554
  26.0778165  77.9343796  51.4086866  27.0159292  76.6087151  52.2064924
  25.2677393  75.9985304  51.4084625  25.2980924  75.1265812  52.0618248
  23.7518477  76.2366772  51.3142729  23.2385039  75.3518915  50.9377861
  23.2738256  76.4418507  52.2721338  23.5372090  76.9808865  50.5473423
  26.0121489  75.6609583  50.1002598  26.9006586  75.1306057  50.4428768
  25.4119825  74.8713303  49.6481705  26.2542295  76.4900446  49.4353437
  25.8123088  76.1092043  54.4394302  24.8421097  75.4860020  54.8009539
  27.0561671  75.7184839  54.8152637  27.8376603  76.2076855  54.4028950
  27.2844958  74.5024300  55.6785154  26.8925428  73.6806011  55.0792885
  28.8516903  74.2876291  55.7864571  29.2982960  74.2096663  54.7952127
  29.2960620  75.1806974  56.2258387  29.2616844  73.0431175  56.5483522
  29.3717504  71.8308783  55.8430290  29.1664171  71.7066717  54.7900248
  29.6955848  70.6638956  56.5081930  29.7393179  69.7696018  55.9042692
  29.9270701  70.6299067  57.9173422  30.2090383  69.7476053  58.4727192
  29.6637583  71.8025351  58.6631107  29.8604870  71.8793917  59.7222567
  29.3700743  73.0034733  57.9672813  29.2074013  73.9381027  58.4834290
  26.5811539  74.5752811  57.0677090  25.9601450  73.6344862  57.5086546
  26.5452576  75.7273245  57.7239037  26.9964314  76.5043402  57.2626114
  25.7938647  76.0030651  59.0145731  25.7893848  75.1221800  59.6565390
  26.4391351  77.2238445  59.7735071  27.5222874  77.1032715  59.7920322
  25.9617400  78.1060314  59.3469620  25.9963083  77.3571491  61.2433815
  24.9234581  77.5481796  61.2188959  26.2462616  76.4382935  61.7737770
  26.7028666  78.4756231  62.0293045  26.5296245  78.2006264  63.0697203
  27.7895594  78.5311031  61.9650936  26.2198853  79.7899532  61.5362835
  25.2871895  80.0091267  61.8558931  26.8231177  80.6335163  60.7289553
  28.0566192  80.4965496  60.3372240  28.6263323  79.7655153  60.7386208
  28.4369946  80.9753990  59.5334101  26.1953926  81.6630840  60.2379608
  25.1866174  81.6937923  60.1988459  26.7565227  82.3623085  59.7728491
  24.3056369  76.1758566  58.7677050  23.4609580  75.7680798  59.5812845
  23.9508605  76.7851543  57.6063061  24.6922207  77.1781397  57.0441246
  22.4930596  76.9587994  57.2251558  21.9970226  77.3525810  58.1122780
  22.4048758  78.0076933  56.1271858  22.9352832  77.6528692  55.2435207
  20.9326577  78.3871794  55.7387686  20.3929710  77.4997997  55.4080248
  20.3739214  78.8350582  56.5605497  20.9664965  79.0966225  54.9119377
  22.8324556  79.3058872  56.4307308  23.7459183  79.2070007  56.7089510
  21.7693782  75.6120062  56.7907810  20.5684161  75.3577995  57.0150280
  22.5623751  74.6529293  56.2475109  23.4567761  74.9942684  55.9255886
  22.1823287  73.2232618  56.0548925  21.1833906  73.1362486  55.6275129
  23.1171393  72.6492119  54.9718618  24.1812849  72.7484655  55.1859808
  22.9448104  71.5751171  54.9030972  22.9469514  73.2591867  53.5448885
  23.1048346  74.3376875  53.5417032  23.9296627  72.5642872  52.6330042
  23.7427092  71.4966536  52.5176048  23.8790846  72.9937553  51.6324520
  24.9011540  72.8051615  53.0646086  21.6004944  72.9163122  52.9365778
  21.5536809  73.3850193  51.9536114  21.4619493  71.8485737  52.7667379
  20.7873487  73.3296967  53.5332394  22.3082232  72.4322653  57.3768759
  21.8811297  71.2846851  57.4931335  22.7446580  73.0297899  58.5089207
  23.2563615  73.8959122  58.4189749  22.8218770  72.4401855  59.9026680
  23.1722546  73.2072115  60.5933332  21.3989425  72.1271467  60.4267693
  21.0627007  71.2220430  59.9209738  21.5168262  71.8672180  61.4787388
  20.3555274  73.2637262  60.3775644  19.5640039  73.3588743  59.4537592
  20.2070689  74.0426350  61.3562059  19.4020987  74.6514654  61.3942766
  20.8822894  73.9925432  62.1056509  23.8262773  71.2211943  59.9749470
  23.6415887  70.2437878  60.6949186  24.8916459  71.3028526  59.1676950
  24.9498510  72.1188259  58.5753250  25.9517956  70.2799034  59.1257238
  25.4076481  69.3395519  59.2137003  26.6865039  70.4658175  57.8075743
  27.1659636  71.4416838  57.7307415  27.4361444  69.6752024  57.7747869
  25.8023524  70.3064632  56.5886068  26.2000442  70.6375122  55.2926970
  25.2037549  70.1601887  54.5605898  25.1291800  70.3322983  53.4970045
  24.3411899  69.4682074  55.2307892  23.5111356  69.0682220  54.8171186
  24.6921349  69.5090866  56.4985752  24.0897274  69.1207457  57.3064756
  26.9000769  70.3728771  60.3570080  27.1012616  71.4783144  60.8540344
  27.4869370  69.3001318  60.8487606  27.1953154  68.3927584  60.5145073
  28.4151125  69.3205833  61.9422150  28.5404634  70.3029871  62.3974848
  27.9654694  68.3789015  63.0137825  26.8883109  68.2828951  63.1502104
  28.2545471  67.3830795  62.6778078  28.6069202  68.6456537  64.4332600
  28.5734725  67.7173996  65.0036335  29.6780920  68.7785816  64.2815304
  27.9830480  69.7740412  65.2470541  27.1655607  70.5338907  64.7761583
  28.4889102  70.0992298  66.4362574  27.9750872  70.8163261  66.9280529
  29.1420126  69.4725132  66.8843460  29.8043752  68.9956665  61.4484692
  30.0250793  68.0588102  60.7055569  30.8049607  69.8530626  61.8049526
  30.6423402  70.5182123  62.5474024  32.2027111  69.7580433  61.3532162
  32.3184729  69.5669127  60.2863693  32.8734612  71.1455870  61.4616060
  32.2371721  72.0047808  61.2494230  33.2823348  71.3135719  62.4579525
  34.0278959  71.2253237  60.5504608  33.8585734  71.6533804  59.2145920
  32.8323364  71.8852949  58.9707613  34.9073100  71.6756630  58.2613468
  34.8097825  72.0772934  57.2635555  36.1881328  71.2085342  58.6421347
  37.2515869  71.1582518  57.7566242  36.8225312  70.8913040  56.9403839
  36.3846040  70.8472633  59.9824095  37.3797989  70.5580568  60.2862978
  35.3483534  70.8365774  60.9587431  35.5681109  70.5760288  61.9835472
  32.8976655  68.6422205  62.1960497  33.3110237  68.8256025  63.3067703
  32.8484464  67.3969841  61.6873884  32.3386216  67.3390341  60.8174324
  32.9153800  66.1595011  62.5128365  33.4845328  66.3020420  63.4314489
  31.4796185  65.7605791  62.9700708  31.6063786  64.9617052  63.7007093
  31.0761762  66.6192961  63.5066700  30.5533314  65.2446985  61.8571234
  29.3919039  64.9278498  62.2660160  31.0558724  64.9233341  60.7481384
  33.6605811  65.0590849  61.7577744  33.8633394  64.0318775  62.4104595
  34.1067910  65.1998997  60.4878759  33.8889074  66.1031866  60.0920200
  34.8978615  64.3515110  59.6718502  35.0959897  64.8370457  58.7162876
  36.2347245  64.1190338  60.2653599  36.0471940  63.3819962  61.0461998
  36.8862629  63.7820005  59.4591284  36.8812013  65.3218937  60.8714819
  37.4064898  66.2761545  59.9930859  37.4002409  66.0518980  58.9366436
  37.7331591  67.5308132  60.5073357  37.9797459  68.3030558  59.7937250
  37.6365256  67.7399158  61.9317532  38.0360079  68.9135790  62.5358963
  38.1702232  68.9550018  63.4855652  37.2825623  66.6926861  62.8092098
  37.2152996  66.9001245  63.8669634  36.9087172  65.4969120  62.2776365
  36.3617301  64.8658323  62.9624319  34.1522026  63.0012846  59.3392324
  34.7566986  61.9684219  59.0786648  32.8342962  63.0758858  59.3113232
  32.4325418  63.8733530  59.7832775  31.9418788  61.9283867  58.9841080
  32.5009346  61.0136700  59.1812181  30.6131363  61.9168139  59.8333693
  30.0085878  62.6816225  59.3458319  29.8730063  60.5649328  59.7543335
  29.5328951  60.3602791  58.7391806  30.6070352  59.7658777  59.8583126
  29.0249991  60.5460310  60.4389000  30.7550526  62.0430708  61.2750006
  30.8864427  62.9842186  61.4113522  31.7353010  61.8887520  57.4806404
  30.6450796  61.9024801  56.9516945  32.8954291  61.8042135  56.8145800
  33.8073468  61.8758059  57.2428226  33.0511785  61.6658974  55.3793955
  32.6608872  62.5893879  54.9516726  34.5777273  61.6152525  55.0171900
  35.1065445  60.8075714  55.5232620  34.7139096  61.4105606  53.9552784
  35.3275299  62.7999783  55.4707718  35.1124811  64.0479422  54.8031712
  34.2986345  64.0549946  54.0932417  35.8956456  65.1701069  54.9799395
  35.5964923  65.9926271  54.3471956  36.9575334  65.1358271  55.9538794
  37.6648426  65.9430885  56.0740662  37.1672845  63.9605474  56.6556120
  38.0297136  63.9425564  57.3054552  36.4231610  62.7325964  56.4559174
  36.5456057  61.7885447  56.9659901  32.5131726  60.3933716  54.7354078
  32.4519038  59.3583155  55.4021502  32.1064639  60.5389738  53.4903526
  32.3396635  61.3698864  52.9656601  31.4008856  59.4847012  52.7564192
  30.4177260  59.4871044  53.2270527  31.1982274  59.8619699  51.2475824
  32.1781707  60.1380873  50.8582592  30.9564614  58.9561939  50.6915092
  30.2021909  60.9698820  50.9498358  30.2914762  62.0934582  51.5576696
  29.3146205  60.7238054  50.0972795  31.9259548  58.0474949  52.9363871
  31.1426067  57.1399879  53.2917213  33.2627463  57.9197741  52.7194548
  33.7354159  58.7128639  52.3099566  34.0258002  56.6251898  53.1231785
  33.6031914  55.8704281  52.4599791  35.5064654  56.5912390  52.7481270
  35.9603953  55.6914043  53.1632710  35.6938720  56.4745283  51.6807222
  36.4654493  57.6211691  53.3212757  37.3033905  57.4147272  54.3697929
  37.4580145  56.4816761  54.8912382  38.0630612  58.5202360  54.5613575
  38.7927699  58.5635567  55.2583122  37.6813459  59.5355225  53.7264109
  38.0924416  60.7978249  53.6345625  38.7717175  61.2896013  54.3151140
  37.4498487  61.6798258  52.7114630  37.6269054  62.7452135  52.7119589
  36.5202475  61.2256575  51.8569469  36.1302328  61.8873692  51.0977173
  36.1095667  59.9247169  51.9933271  35.2666783  59.5671701  51.4205265
  36.6848183  59.0322447  52.9231548  33.8970447  56.1177301  54.5053530
  33.5398412  55.0092649  54.7089195  34.0383077  56.9564295  55.5156994
  34.4059467  57.8665733  55.2778435  33.6431003  56.5589905  56.9096804
  34.0676308  55.5749750  57.1086550  34.1560888  57.5647068  57.9708338
  33.5779309  58.4885216  57.9908848  34.1109776  57.0882320  59.3557358
  33.0700350  57.0135355  59.6703100  34.6060729  56.1207151  59.4387913
  34.5140624  57.8393126  60.0350761  35.5583763  57.7732277  57.7542353
  35.9244895  58.5208797  58.2323265  32.1132445  56.4109182  57.0591974
  31.6385341  55.7542372  58.0205774  31.2835050  57.0840549  56.2977552
  31.6907501  57.7556801  55.6627893  29.7721457  57.0302963  56.4474058
  29.5380020  57.1148062  57.5085974  29.2616773  58.3097076  55.8906126
  29.7648573  59.1226530  56.4140940  29.6103048  58.3269739  54.8580122
  27.7639651  58.4994411  56.0059643  27.3107147  57.9650354  55.1710558
  27.4411845  57.9647541  56.8992901  27.1642542  60.2165747  56.0525322
  28.2254219  60.8705711  54.8315001  28.1317449  60.2554083  53.9365673
  28.1001592  61.9027662  54.5044184  29.2902088  60.7727146  55.0430489
  29.1325426  55.7794189  55.8913088  28.1399155  55.2690935  56.3512373
  29.8658347  55.0900459  55.0347948  30.6904387  55.6488085  54.8677254
  29.5127034  53.8291979  54.2937660  28.5286188  54.0188694  53.8651609
  30.3767872  53.6992121  53.0399466  30.1596570  54.5088673  52.3432302
  31.4232540  53.8836193  53.2828522  30.4130960  52.4000454  52.2200298
  30.5014157  51.5359163  52.8784990  29.1056657  52.3089933  51.5258026
  28.8071513  53.1380844  50.8842468  29.1542697  51.4482641  50.8588028
  28.2545924  52.1869040  52.1957731  31.5755510  52.4555874  51.2526178
  31.5500784  51.6009760  50.5765390  31.5418220  53.3836603  50.6819677
  32.5395155  52.4703884  51.7611980  29.4004297  52.5501871  55.1419973
  30.3752804  52.2017050  55.7742310  28.2084155  51.9390678  55.1937914
  27.4185252  52.4616909  54.8430109  27.7834344  50.8605480  56.0986471
  28.4703779  50.7640934  56.9394207  26.3410354  51.2545443  56.6345739
  25.6271005  51.5488052  55.8652830  25.9235311  50.3801966  57.1338892
  26.4555502  52.3343086  57.7965117  27.2315621  51.9589472  58.4635973
  26.8675184  53.2463837  57.3646545  25.1074219  52.5918722  58.5625982
  24.3900132  53.1037903  57.9212189  24.7468281  51.6359997  58.9425755
  25.3953338  53.4986877  59.7729111  25.7841349  52.7905560  60.5046797
  26.1143470  54.2824841  59.5346212  24.2259336  54.1346693  60.3932524
  23.4877443  53.5036707  60.6707764  24.4390225  54.8182678  61.1055708
  23.8398337  54.7232437  59.6689510  27.7421451  49.5133543  55.2597427
  26.7845964  48.7180185  55.2710056  28.7857938  49.1181564  54.5343876
  29.6169448  49.6673822  54.7006416  28.8942647  47.8431606  53.7777376
  28.2685304  48.0474854  52.9089355  30.3237224  47.7206135  53.2156515
  30.6635499  48.6948538  52.8642607  30.8988762  47.5129843  54.1179752
  30.6370378  46.6388941  52.1360588  31.6797733  46.7245388  51.8303347
  30.3953981  45.6896019  52.6141357  29.8210979  46.8924236  50.8912468
  30.1658201  47.6407909  49.9878025  28.7525320  46.1643171  50.6227350
  28.3441854  46.2925529  49.7079039  28.5439897  45.3318644  51.1553049
  28.5425186  46.5725613  54.4472218  27.8919291  45.8279896  53.7504053
  28.9951515  46.3139677  55.5836058  60.5324554  48.3726501  66.7802143
  59.0387344  48.6934757  67.1691751  58.8840199  48.8448811  68.7119818
  59.3860579  47.6577425  69.4428492  60.3745222  46.9332314  68.8989449
  60.9876442  47.1793652  67.7277184  61.7090273  48.3270597  63.2147741
  60.5790615  47.3981428  63.1539249  59.8277473  47.3052168  64.4904947
  60.7147121  48.1566429  65.3137016  61.8469524  48.7658739  64.6080303
  61.9541597  48.1964493  60.8405161  60.8671522  47.2407770  60.7474709
  60.1794958  46.8007994  61.9167566  62.3791313  48.7367439  62.0799112
  62.7091599  49.4963074  65.1106501  59.2404985  45.8175802  61.8517590
  62.0241356  46.6273212  67.4367380  58.9197683  47.2535944  70.4886341
  61.1784744  49.2230606  67.0370150  60.7106352  46.1505747  69.4476318
  62.4198914  48.6365843  59.9637222  60.5643320  46.7954636  59.8043966
  63.1559992  49.4888783  62.1807480  59.8275805  46.2512398  64.7954178
  58.8191223  47.7265406  64.3955660  58.7373781  45.4638767  62.6546860
  59.0498495  45.3635216  60.9683466  58.4196043  47.8527260  66.8297625
  58.8041496  49.6325302  66.6509771  57.8101397  48.9213228  68.9272118
  59.4668722  49.7327900  68.9899778  38.0130053  63.6580896  30.1331758
  51.8070459  76.2929249  62.8904247  50.2713537  60.5041790  75.9390354
  49.6717501  66.0789251  25.4445982  47.8336382  68.6395597  66.2351370
  68.8815290 107.8914779  91.6333619 103.3890135  92.3799349  35.7258770
 103.3651335  93.0943419  35.0892517 102.7574236  91.7419531  35.3937504
  27.4732590  63.5573483  83.8250160  27.4877644  62.9051685  84.5254993
  28.3599997  63.5418177  83.4649086   2.6845681  85.2615906  21.4773533
   2.6853215  85.4340698  22.4188873   1.9502102  85.7748510  21.1404202
  74.0741522  88.9143326  38.6946938  74.8031241  89.1648437  38.1271812
  73.8431508  89.7197534  39.1574738  13.4211575  73.4032418  44.0885326
  13.4102952  73.1775810  45.0186894  13.0211579  72.6496495  43.6545631
  55.3649252   8.9514262  28.1472656  55.3799074   9.4517333  27.3313591
  54.4909590   8.5619122  28.1733582 116.3992912  97.1348001  40.1964829
 115.7957918  96.5035583  40.5883381 115.8332712  97.7484276  39.7281811
 101.4248265   7.6965243  24.6473381 100.7383669   8.3631236  24.6217415
 102.1239794   8.0925614  25.1675007 114.4523746  64.7744043  12.6334450
 114.4385940  63.8375856  12.8294346 114.4845278  64.8187287  11.6778061
  36.9756478  11.0587413  32.4361488  36.6165322  11.9400889  32.3336861
  36.2749594  10.5622680  32.8589794  10.8430403  14.7853000  15.1961395
  11.4023321  14.0227897  15.0478146  11.3676136  15.5286128  14.8985836
  56.4106131  62.7084732  91.7442131  56.7715931  63.5044575  92.1345043
  57.1289682  62.0769024  91.7804623 109.9751550 106.7654754  30.1034042
 110.7879955 106.5492107  30.5602905 110.2610523 107.1749403  29.2868015
  85.3823787  79.9232461  23.0632374  85.3058321  80.6540395  23.6766789
  86.3214475  79.8513509  22.8923294  97.8202469  57.4890892   1.4780781
  97.5092727  56.6675247   1.0978672  98.4811289  57.8035012   0.8611462
  47.9496670  15.8734965  92.5521755  48.0571461  15.2882969  91.8023586
  47.7743053  16.7306280  92.1638393  66.3780451  38.2396197  89.9920654
  66.7078829  37.6189208  90.6418133  66.8837547  38.0503583  89.2016983
 113.7905407  61.8229485  87.9097080 114.0194321  61.0009813  87.4758720
 113.2807541  62.3039722  87.2578239  98.6904699  65.3876151  29.5935604
  98.7318594  65.5254586  28.6472485  98.0989534  66.0706641  29.9094460
  83.3954698  64.6341761   8.4227917  83.9266283  65.4267104   8.5002300
  83.8289625  63.9987178   8.9924500 116.2001497  54.8022672  42.2392151
 115.9910757  54.6601387  41.3160107 117.0227558  55.2915213  42.2259399
  97.9532510  76.2499310  36.9967243  98.2468588  76.7700960  36.2487576
  97.1478302  76.6790463  37.2854969  81.8092186 109.8648693  14.5365402
  81.0465318 109.3653728  14.8281452  81.4633352 110.4677870  13.8784477
 113.7797910  77.7184774  30.9311745 113.1604654  78.0403783  31.5861961
 113.5691387  78.2128360  30.1390526  97.3770982  48.8465394  27.3726818
  96.9725305  48.1882210  27.9376289  98.1416494  48.4062876  27.0013687
   7.6361882 108.0069305   6.6107246   8.0039727 108.1257345   5.7350227
   8.2921444 107.4894621   7.0778248  87.1132786  97.7916910  16.9071934
  87.7261383  98.2906391  16.3671085  87.3245746  96.8759634  16.7254707
 114.4840414  63.4015264  34.9925205 113.8105566  62.8536745  34.5894024
 114.7875339  63.9685632  34.2835877   6.4327257  11.6481358   3.8345120
   7.3450726  11.8202121   4.0674183   6.1634606  10.9444196   4.4248554
  28.2727402   4.6358544  30.5635807  27.9457873   5.5088717  30.7807705
  28.8462942   4.4061620  31.2946865   9.5314282  24.4399602  26.6687557
   9.6575850  25.3029496  26.2743351   9.8101776  24.5490796  27.5779411
  97.8238327 105.6766273   6.6106197  97.4443418 105.6902553   7.4892780
  97.3439533 106.3525154   6.1319515  44.0087461  13.6917925  90.8563232
  44.2522335  13.0689430  91.5411663  43.1295013  13.4231687  90.5898571
   7.8716504 110.4180481  14.5326111   7.7072083 109.7348310  13.8826916
   8.4688984 111.0253193  14.0958664  66.2185019   6.1661059   6.1280129
  66.8062514   6.3587243   5.3974793  65.3400629   6.2771851   5.7643768
  16.9136845  71.7355336   5.2753040  16.3794648  71.2512137   4.6457932
  17.8107964  71.6317167   4.9580547  23.0789345   1.2310845  25.5310700
  22.7898997   0.9181363  26.3882420  23.9065617   1.6789586  25.7061932
  63.3341616  12.3630339  49.9962303  62.7335184  12.9158980  50.4960320
  64.1943186  12.5375420  50.3781960  43.5339277   7.7847297   5.8935616
  43.8411921   7.5378043   6.7658207  43.7234896   7.0214946   5.3478787
   2.8199326 106.7679502   5.0892326   2.6292168 106.3202335   4.2649719
   2.7423607 106.0855533   5.7559845  50.0658274   6.1814988  78.3948231
  50.0619507   7.0765024  78.7342167  50.9545612   5.8666146  78.5598469
   6.3091790  83.0063154  27.2864601   6.8492257  83.3949687  26.5983269
   5.6236493  83.6545874  27.4477551  95.3875065  26.4298272  90.0727844
  94.7626495  26.8654943  90.6524277  94.8925686  25.7070398  89.6869755
  13.4247177   2.2557122  38.5850880  14.3337172   2.0582063  38.8107941
  12.9357594   2.0863635  39.3903610  21.4255940 102.1941616   9.0428803
  20.9459435 102.8548433   9.5425484  22.2784745 102.5943758   8.8735840
  76.6326237  39.1584969  88.8903618  76.5703106  40.0332737  89.2739105
  75.7708740  38.7695312  89.0397549  44.7515392  18.6356068  83.2992649
  44.8425055  18.3352184  84.2035484  45.3905964  19.3434215  83.2165718
 117.5120765  65.1179446  20.7128784 116.7050535  65.2949204  20.2295277
 117.6504022  64.1762401  20.6114361   1.5197312  80.0646331  36.1741325
   1.5279423  80.9472038  36.5445873   1.5872895  79.4855763  36.9333145
  20.6841790  95.6130625   9.1553089  20.6539189  95.1293828   8.3298561
  19.8878228  96.1441280   9.1510651 116.8655957   2.2579581  12.5097343
 117.1394814   2.2980506  13.4260437 115.9201945   2.1132237  12.5484535
 114.9065716  96.7752887   0.2568028 115.5723697  97.3947288   0.5555412
 115.3069288  96.3369943  -0.4940918  68.3564901  20.4450035  87.6310444
  68.3889246  21.0013151  88.4093094  69.0088272  20.8213687  87.0402527
 103.8695223  58.0636785  11.4116356 103.6867172  58.8309266  11.9539806
 103.1804544  57.4395944  11.6395256  89.6199972  69.0907277  23.8583729
  89.4873029  69.7355558  24.5532295  89.7641784  68.2656230  24.3216679
 117.3664266  98.3219673  28.1181881 117.4367124  98.7071659  28.9916393
 117.6655943  97.4195720  28.2296059 116.5037376  92.9647495  18.8410637
 116.6307050  92.1620824  19.3468735 116.4434940  92.6685287  17.9328510
  81.1517603  69.7339405   6.4113686  80.8778698  70.6354739   6.5800449
  80.3332454  69.2558731   6.2782738  25.5296360 105.1680805  18.8324806
  25.0968968 104.7383262  19.5702335  24.8346554 105.2914716  18.1859467
  50.0316369 100.9071018  50.1152489  49.3275486 100.2691366  49.9990818
  50.2253472 101.2139513  49.2294952   1.4832150  97.8146984  26.1831352
   1.5145146  96.9853975  26.6601154   1.7749058  98.4679319  26.8190834
  69.7009962   5.6896025   1.1840317  69.9183195   5.2359635   0.3696510
  70.4889506   6.1894471   1.3973877 112.2263653  69.4654276  14.7888062
 111.9224531  70.3713061  14.7317764 113.1164772  69.4888581  14.4375488
  46.2310921  87.7031829  13.6024162  45.4596745  88.1050851  14.0019390
  45.8797394  86.9955208  13.0620453 108.7991935  95.1371743  23.7925503
 108.3912975  95.9865619  23.9610359 108.8751251  95.0927927  22.8394005
  78.1668789  92.8520490  20.3770992  77.4002582  92.8471519  19.8039505
  78.9118845  92.7732827  19.7812817  33.2615029  95.4371430  14.8392269
  32.4388348  95.5610229  15.3126308  33.8562047  95.0594451  15.4872295
   2.4562966 100.2466203   2.4354908   2.2038685 100.1089002   3.3484718
   3.0194794  99.5010664   2.2276184 103.8911325  64.5218791  25.9448788
 104.1545040  63.6754240  25.5837986 104.5807440  65.1253124  25.6682274
   3.2204186 106.6369154  23.5733578   3.2124363 106.4910986  24.5193455
   3.9155995 107.2804262  23.4360668  89.5164013  51.5682220  94.9392223
  89.0072536  51.6915274  94.1380978  90.2632618  51.0342073  94.6685410
  99.3867857  62.3876579  22.3952648  99.2518932  61.8758525  23.1928227
  99.8616916  63.1656970  22.6874134  91.3374836 108.3412029  35.0630734
  90.3976995 108.2668878  34.8971912  91.7439825 108.1904747  34.2096874
  46.8629568  17.7794415   9.8861095  47.8051394  17.6105506   9.8875877
  46.5382784  17.3324544  10.6677887 110.9777529 107.8900339  17.4497387
 110.8440668 106.9651653  17.6570484 111.8923885 108.0567648  17.6775047
 106.2735731  60.1867373  17.8660461 106.0994941  59.6949236  18.6685726
 107.0875150  59.8132624  17.5280544 109.8936302  92.7201773  14.1695187
 110.4435140  93.3932664  14.5705292 109.7232897  93.0453946  13.2855198
  90.0122101  95.7475378  40.2939388  90.8013803  95.5758836  39.7801563
  89.3169815  95.8376314  39.6421978  14.1006886  83.6596657  25.7898972
  15.0005948  83.6527397  26.1160061  13.9640080  82.7771641  25.4453060
   1.8887555  72.5461437  27.9986069   1.5058934  72.4664857  27.1249363
   1.1719452  72.8669311  28.5458920  37.0590180  11.3812882  23.6532185
  37.7996987  11.9639546  23.8209221  37.0974606  10.7358128  24.3589947
 107.3704225 104.7550489  20.5078384 106.9443399 104.4874145  21.3221237
 106.9915992 105.6114341  20.3095314  88.4931118  83.8936807  18.7957260
  89.4044430  84.1855575  18.8183662  88.5375339  82.9948022  18.4697315
  94.6982843  83.7737753  39.5540115  94.4682247  84.6973707  39.4526455
  94.1563684  83.4705092  40.2824184  33.2762783   6.1024386  14.7878525
  33.1472271   7.0143086  14.5269558  33.3178538   6.1304004  15.7437489
  87.4126512  55.8406645  25.4762814  88.3070022  55.8647592  25.1360199
  86.9686109  56.5642701  25.0341770  60.1210898  11.7682940  33.8497421
  60.8738631  11.7123610  34.4383213  60.3727453  11.2451703  33.0886623
 102.0986873 110.2771904   7.4195549 101.8840009 109.4474222   6.9933769
 101.7221433 110.2006342   8.2962391  19.6142405   9.4138676   5.0079414
  19.3733376   8.6194331   4.5314190  19.5036953  10.1187283   4.3698284
  91.1302280  30.0835180  94.3763828  91.1572170  29.7637415  93.4745884
  92.0049953  29.9033070  94.7206879 116.4311296  72.2393800  20.6768200
 117.1592266  72.8437437  20.5324051 116.7830879  71.5785159  21.2731525
 112.4134952 105.0159980   4.9547455 111.9407207 104.4904091   4.3094036
 111.9806701 105.8694507   4.9320004  10.8566510  93.8572098  27.8257629
  11.0739457  93.4523036  26.9860813  11.7000424  94.1353537  28.1829235
  32.3372017 110.8686496  30.1961300  32.9113137 110.1371719  29.9690697
  32.2599827 110.8256056  31.1492416 116.9081623  78.2247092  24.2732117
 117.4171573  77.4189593  24.1842148 116.1761934  77.9841186  24.8411629
  75.8821791  10.7581479  10.8738682  74.9344462  10.7383305  10.7410214
  76.1698454   9.8659093  10.6805203  16.5278565 105.8925535   4.9511978
  16.7930447 106.7137529   4.5370266  16.9659459 105.2132990   4.4384453
  68.0180883  44.8940992  95.5486012  67.7819443  45.4442692  94.8017597
  68.0076599  45.4898500  96.2977314  33.1009072  16.3973004  49.6446869
  33.1820505  15.6284911  50.2091190  32.2128647  16.7177255  49.8026154
  70.7820463  30.8980227  94.8632622  69.9954128  30.4467869  95.1695824
  71.5051842  30.3408003  95.1510143  71.8024117  85.5088999   6.4679787
  71.9839842  85.9228398   7.3117230  71.7065746  86.2403514   5.8580372
  96.3254959 109.3427898  56.9496128  96.2686187 109.2132045  57.8962967
  95.6192810 108.8050462  56.5914032  32.3278778   7.8637988   5.6621048
  32.3445194   8.4224803   6.4391682  33.2297533   7.8724772   5.3415176
  50.5352133 107.3337821  85.1299477  50.4001158 107.8804214  85.9040070
  51.0446566 106.5887804  85.4488087  89.3885404  49.3190117  17.1505425
  88.5718853  48.8391759  17.0124790  89.4669563  49.3896057  18.1019089
   6.3791882  73.0525746  38.2585976   6.3358914  73.8722886  37.7662346
   7.1461426  73.1521739  38.8226006 110.5543930  82.4503161   2.5012657
 110.9212953  83.2285835   2.9206917 109.9323637  82.1041323   3.1411717
 110.9546375  13.3557749  65.9995174 111.3297653  14.1475129  66.3850832
 111.3203907  13.3234036  65.1155376  10.0464760  82.7994038  21.7835304
  10.6563126  83.1383874  21.1282322   9.2922627  83.3868314  21.7353699
  59.9328310 110.8989574  17.4367020  59.8844368 110.3039982  18.1849739
  60.4941708 111.6143991  17.7354691 111.6859943 108.0116512   2.9452202
 111.3978559 108.0339815   3.8577435 112.6400835 107.9542352   2.9966518
   8.7257515 104.9427225   4.5372650   8.1478058 105.6387235   4.2245457
   9.5546471 105.0981809   4.0844986  30.0763833  47.1594025  37.8133652
  29.3340146  47.5821151  37.3815796  30.5280911  46.6923626  37.1104691
 104.6803934  90.9320428  21.7933247 104.7638494  90.0128009  21.5398190
 105.4143650  91.0838963  22.3886845  95.8291245  22.9051733  91.6394138
  94.9064541  22.8562117  91.8894291  96.1789417  23.6313844  92.1556282
 102.1380932 101.9695617  28.2910130 102.4896843 101.9172098  27.4022648
 102.5395757 102.7555563  28.6614964  97.4512178  95.9811260  25.8148262
  97.3573810  95.0349118  25.9248516  97.0177633  96.3555767  26.5817329
  17.9589688  87.0350291  16.3919613  17.9463421  87.7267410  15.7304356
  17.8152501  87.4929811  17.2201225 102.6624614  97.9546549  26.1628220
 103.5566360  97.9136087  25.8237145 102.7192671  97.5660135  27.0357296
  40.4650246 108.5066797  16.6596481  39.8544823 109.1287758  17.0552227
  40.0995385 108.3307649  15.7926342   7.1850907 100.2718116  20.0986549
   7.9229485 100.6719591  20.5587360   7.5735604  99.5487262  19.6062347
  29.2781865  98.2152988  17.1840736  28.6030518  98.5018779  17.7991268
  28.8524662  98.2507660  16.3274834  49.4971483  18.1112534  47.4115154
  49.1736716  18.0147225  48.3072159  48.7397783  17.9132516  46.8606922
 116.0932953 101.7281677  14.3596718 115.7792837 102.3079445  13.6657784
 116.8777210 101.3195659  13.9936802  26.6993176  95.9082319  15.5391762
  25.8495747  96.2003280  15.2092716  27.2238385  96.7072775  15.5905506
  42.7408062  86.7567732  19.0662834  43.0246483  86.0370995  19.6299717
  41.7925488  86.6465570  18.9963314  55.5969542  19.3367917   0.9855339
  55.8141344  18.6858708   0.3181717  54.6848315  19.5665557   0.8081314
  58.0056780   6.6655499  21.1078045  57.3645704   6.0601384  21.4802048
  58.6438387   6.7994935  21.8085453  56.1967390   0.7269961   9.2028877
  56.9733351   1.2282616   8.9541790  56.0865992   0.9038121  10.1371452
  58.7669581   2.2182233  25.6965324  58.6952513   1.4641101  25.1113865
  59.1505068   1.8634421  26.4985630  19.5111977 103.2830192  81.6993305
  19.6552407 102.6836778  82.4316380  18.9175068 102.8101875  81.1160633
  68.8303679  14.1166407  23.9418194  69.2426604  14.9189050  24.2621586
  69.2609804  13.9438826  23.1045792  33.5140436  23.3039862   6.5089294
  34.2784231  23.5132081   7.0457527  32.8205651  23.8694293   6.8489143
 101.9170887  92.0764472  26.9275639 102.7452165  92.5473406  26.8343231
 101.8494112  91.8941857  27.8648159  43.8168543   5.5061061   4.5206329
  44.3603056   4.7312648   4.6638367  43.4190863   5.3642375   3.6616299
  57.3215216  26.4136655  52.8150723  56.7964094  25.7058579  53.1885693
  56.9538515  27.2112328  53.1957886  69.7533434   6.1889893  33.0513927
  70.3140276   5.4157454  32.9885647  69.6310919   6.3204438  33.9916107
  26.6662091   1.3329512  17.0887730  26.2780159   1.8179948  16.3605759
  26.6585654   0.4204280  16.7998573  47.4240797  18.3275897  18.7283680
  46.7988222  18.3456237  18.0038330  47.0263975  17.7427918  19.3734238
  39.4395130   7.8707702  38.5018703  40.1058787   8.5515410  38.5953877
  39.3156975   7.7850539  37.5565884 107.1483547 111.2833358   2.8316090
 106.7666847 110.4147007   2.9581997 106.4362413 111.8897964   3.0349133
  54.0863245  43.3026654  24.6323177  54.5652216  43.6037881  23.8601658
  53.5585802  44.0564877  24.8958942  24.4004172   9.6464354  28.2527039
  23.6369293   9.0691001  28.2518932  24.0442150  10.5148465  28.0650494
  78.4356976  15.2017844  92.5641441  77.9097795  14.4048405  92.4968815
  79.2315292  14.9258971  93.0188560   1.7701756  70.6811144  15.6023953
   2.2054421  71.5278103  15.7017967   1.0817610  70.8400609  14.9565956
   2.3605954  75.0773074  17.2847626   3.1421887  74.5354881  17.3932335
   1.6914689  74.4714357  16.9663021   1.1225943  92.7579594  80.8045197
   1.8111281  93.1577873  80.2732086   0.8269934  93.4614849  81.3823700
  49.7104948  29.1901547  11.1238644  49.1571825  29.8427159  10.6946442
  49.4590014  29.2324216  12.0464680   0.5022561  82.2104289  44.6253368
   0.6432139  82.4007894  45.5527660   1.1484658  82.7495434  44.1692612
  20.8979069 105.0208427  33.6693832  21.5835988 105.4774620  34.1567776
  20.1900422 104.9051573  34.3032524  12.3282658 102.2658111   4.1440556
  12.5509583 102.9342605   4.7919914  12.2986256 102.7388193   3.3124229
   3.5552060  89.6302296  25.8695290   2.9041802  89.7028710  26.5674660
   3.8037621  88.7058641  25.8691093  48.4207283 105.8230497  11.3170788
  48.6329304 106.7517425  11.4105198  47.6453339 105.6983043  11.8642780
  47.2052592  15.9300906  20.1114723  48.0217856  15.5105788  19.8403046
  46.5631407  15.2202946  20.1215241  94.1716415  71.3977231   8.5131428
  94.0117246  71.0496296   7.6359341  93.5408479  70.9418644   9.0703842
  48.5249060  14.8032290   7.9512283  49.4035452  15.1663691   8.0623314
  47.9779833  15.5598552   7.7399704  16.3537281   1.8043858  35.2620194
  16.1308401   2.6654107  34.9081966  16.5261667   1.2654931  34.4899437
  12.6354252  79.7255422  12.0846626  13.1840359  80.2557637  12.6627037
  13.2436787  79.3705179  11.4364216  19.7750252   1.6033131   9.4214031
  19.8346346   0.8780534   8.7995693  20.6569212   1.6796262   9.7856304
  35.7328164 106.5190794  54.7868130  36.5052067 106.3730385  55.3329918
  35.7154213 107.4655153  54.6447155 112.2411806  80.0344898  21.5566895
 112.2921259  79.5870973  22.4013683 112.2656376  79.3290617  20.9101555
  48.3722132  11.3522107  21.4521477  48.3673876  10.6032187  20.8561394
  49.2552679  11.7135579  21.3755676  78.0728167   2.2185141  30.5636951
  77.7459639   1.3519294  30.3219578  77.2835654   2.7389437  30.7135937
  78.3418941  44.2207861  87.7482319  77.7707005  44.9770641  87.6140118
  78.2413483  43.7002563  86.9512558  11.4076268  54.5477393  19.7452614
  12.0647942  54.6324865  20.4360363  11.1476456  55.4480797  19.5502445
  14.4333111  69.9437811  31.0650322  14.6533333  69.7879745  30.1465866
  13.8781964  70.7234217  31.0494110  26.1996048  11.2261350  24.9494717
  25.6613558  10.4445893  24.8241398  26.9726771  10.9118754  25.4183361
  32.4719923  12.7924687  24.3455097  32.8993529  12.3195416  25.0596115
  33.1551998  12.8939874  23.6828205 104.5097763 106.8841745  27.7642223
 104.6086342 106.4010526  26.9438240 105.4068214 107.0584156  28.0491612
  21.9577538 111.4018060  11.6090366  21.1760651 110.9793951  11.9650814
  22.1200406 110.9474231  10.7823441  11.9394337  98.2002165  23.8980934
  11.6408288  98.8932897  24.4869301  12.6062428  97.7308370  24.3993732
  99.7519571 102.4830534  25.9058735 100.1633913 101.6200592  25.8589909
  98.8129837 102.3037101  25.8569119  98.2573635  90.2219130  34.1477367
  97.5844366  89.5425059  34.1051743  98.0967266  90.7667281  33.3772823
  84.5709324  48.3553934  95.1521206  84.9897099  47.6591778  94.6460152
  84.8945045  48.2307529  96.0443115   6.1069428  98.1336118   8.8410923
   6.1223732  97.7265169   7.9749176   6.9706475  97.9467584   9.2089817
   3.8275944  91.5284707   9.4231197   4.2857682  91.7908646   8.6247131
   3.7325894  92.3396351   9.9223396 113.8581831  88.6136009  14.5043442
 113.4827024  89.4819881  14.6497795 113.9757377  88.5592510  13.5559532
  49.7759073   3.2937199  49.1087696  50.0913923   4.1568524  48.8409969
  48.8251608   3.3917243  49.1606781  36.2577933  34.4525868  34.9360344
  35.9111803  34.5968587  35.8165428  35.9313124  33.5873944  34.6888992
  84.0834076  59.0127038  12.9011414  84.7983391  59.3017383  12.3340675
  83.8436729  59.7930654  13.4009335 112.7353937  81.1811783   8.3511803
 112.4231130  81.1965586   7.4464867 113.1122572  82.0501639   8.4892818
  44.3069016  92.8205516  23.5969708  43.9536988  93.5733773  24.0710232
  44.7813832  93.2033230  22.8590080  77.2567749   1.9144893  86.1532211
  76.5096855   1.4714642  86.5554905  77.7950525   1.2052348  85.8018780
  92.7878857  34.6819067  96.2637806  93.1542587  35.2048993  95.5507088
  91.8401146  34.7710466  96.1637020  52.3290270   8.4805400   7.8960869
  51.8762224   8.1933219   8.6890003  51.7069739   8.3081729   7.1892807
 102.7917099  48.3529234  74.0523243 102.7069855  48.1354856  74.9806404
 102.4026108  49.2239428  73.9738655  81.8386919  98.8127758   1.2225315
  82.7122671  98.7105228   1.6002247  81.2506992  98.8212063   1.9778034
  31.0136908  12.3320681   0.4991409  31.7710894  12.8685672   0.7331345
  31.0444277  12.2779567  -0.4560307  95.8716011   8.3225983  72.6922512
  96.0419750   8.2915008  73.6336517  95.8466148   7.4044132  72.4229097
 115.8893520  99.1677238  46.2240669 115.5409414 100.0592043  46.2344715
 116.2177688  99.0285398  47.1123192  18.4022652 108.0462171  10.8679745
  19.1535222 107.6768114  11.3320705  18.1620060 108.8195039  11.3784000
  73.8400954  12.7342326  13.4286949  74.0024679  11.8644816  13.0634663
  73.5810393  13.2656056  12.6758549  56.1372393  14.7416360  14.5703861
  56.8309420  14.0848738  14.5098183  56.4141100  15.4380757  13.9749405
  27.5253409  30.3573663  27.6370499  26.8970984  29.9403817  27.0474121
  28.2957810  30.5171830  27.0919678   4.9919068 107.6071693  14.1446850
   4.6541726 106.7116548  14.1298554   4.9296128 107.9017164  13.2360622
  68.2477396  14.8287398  34.1394016  67.6720255  14.4169719  33.4950134
  69.0855902  14.3778664  34.0347454  15.5846344 101.4675905  20.0804588
  15.0113904 101.6558077  19.3373653  16.3912140 101.1388303  19.6834919
  30.1580303   7.4572617  39.6454308  30.0099867   7.3739535  40.5874416
  29.4799536   6.9114835  39.2472240  17.3533219   5.1405484  27.8181812
  16.8353718   4.9390990  27.0388386  18.2576435   5.1639087  27.5053093
  24.6491372  84.1644766  21.7777321  24.8566948  84.8637487  21.1579201
  25.3747880  83.5460474  21.6929123   3.8734089  87.0434238  18.6424515
   4.1567551  87.9555442  18.7055752   2.9557835  87.0583107  18.9144299
  43.2285135  12.3508508  38.8092014  42.9623526  11.6099650  39.3537018
  43.1643122  13.1096131  39.3891975  84.9769003  74.1288604  24.0726826
  84.8065311  73.3415224  23.5556671  84.4965393  73.9882101  24.8885891
   4.1409909  89.8669197  18.4918854   3.3332764  90.3798272  18.5195610
   4.3755089  89.8393084  17.5642750  68.0330675  21.8080956  14.8528645
  67.1691912  21.9419343  15.2427933  68.0429190  22.3846442  14.0888474
  51.2434721  42.2621679  90.6639767  50.2991486  42.2599983  90.5075169
  51.4196539  41.4171314  91.0776234  80.3750420  34.0747356  95.9538841
  80.5428982  33.4073734  96.6192245  79.4320631  34.0249372  95.7972527
  26.0743081  85.3541257   9.8342964  26.1906277  84.5114042   9.3955204
  26.9610154  85.7046510   9.9186394 112.3366625  90.2250649  59.4224712
 112.1984083  91.1721327  59.4091293 113.2871992  90.1224066  59.4691250
  19.9475514 110.2451517  13.0082199  19.1424405 110.2789022  12.4916145
  19.6891152 110.5578520  13.8752052 105.4877723  -0.2613872  48.3362553
 104.7125162   0.2043874  48.6497280 105.9395350   0.3729255  47.7796719
  44.7899376  84.8269011   0.6380627  44.7584759  84.6522905  -0.3025558
  45.6220471  85.2813365   0.7696030  33.0801695  26.3053376  13.0587456
  32.5891083  26.5900571  13.8294766  33.8690727  26.8474061  13.0636761
  33.1948124  85.1282622  21.3096783  32.9687249  84.2058469  21.1902401
  33.0942189  85.5141379  20.4394981  62.5323790   8.3128745  45.7729313
  62.6330393   7.9949433  44.8757050  62.1319502   9.1770179  45.6773254
  95.8248251  26.9848115  15.6557438  95.6111449  27.8586251  15.9828922
  96.4658373  26.6453511  16.2803242  35.0124043  37.1579892  27.5254318
  34.6576374  36.7250401  26.7489502  34.7774666  36.5792233  28.2507393
 111.3867122 104.3110515   9.9693176 111.4910251 104.2840435   9.0181992
 110.5667907 104.7854044  10.1069710  29.0101754 101.1989643  24.1396591
  29.8773896 100.8401109  24.3277523  28.8811528 101.8748333  24.8050758
  48.1548231  13.3957297   1.9835922  48.3946722  13.6178452   2.8832409
  47.2173136  13.2071311   2.0252583  59.0338915  14.6538359  36.0047886
  59.4213598  14.5091779  35.1415512  59.7822684  14.6876008  36.6006252
  26.3473641  79.3684508  24.7012016  26.2760293  80.2673985  24.3802139
  26.6220128  78.8622166  23.9366600  84.5725918  33.2383895  88.5267448
  84.0116119  33.7159562  89.1378593  84.6601486  32.3669529  88.9129639
  74.1764069  39.2677021  90.2274418  74.5490551  40.1493788  90.2235699
  73.2421303  39.4018579  90.0681877  41.4429968  27.5493199  19.7923443
  41.2640112  28.0842072  20.5657169  40.7788962  26.8604714  19.8186466
  51.0735703  27.3351550  57.1584320  51.3282156  26.5552521  56.6653395
  50.3849316  27.0306182  57.7494192  43.8664007  29.1170716  84.1630363
  44.7771883  29.2075753  84.4432259  43.4431982  29.9225330  84.4603062
  24.5205665  29.5450234  96.0049820  24.7913814  29.3211293  95.1146126
  23.5641599  29.5161366  95.9788418  95.2847481  19.0391064  90.8866692
  95.7055092  19.7142363  90.3543186  94.3723202  19.3206704  90.9532452
  90.2627403  96.2806226  14.6407482  89.9747640  96.2059070  15.5505344
  90.1266414  95.4070331  14.2739269  71.4163524  92.5144555  28.6025211
  71.8177516  91.8475820  28.0453846  71.0426361  92.0224907  29.3336365
 100.9208679  24.2151523  58.5245800 100.4292488  23.4544158  58.8341236
 101.7583370  24.1627264  58.9851665  79.7693950  82.7474858  11.1949131
  79.3371755  82.8343035  10.3452751  80.2569563  81.9261100  11.1327908
   3.5039746  92.2684385  33.9254353   2.5548398  92.1874453  33.8315270
   3.6563908  92.2187735  34.8691151  91.9981319  93.8530280   0.7910988
  91.2078363  93.7379052   0.2634499  91.7555029  93.5310175   1.6592476
   3.1873166  87.2834636   5.5586884   2.9614197  86.8913914   4.7151920
   2.9405343  86.6213133   6.2043545 115.2274067  62.1075960  29.5413181
 115.4047519  61.4787628  30.2408478 115.9269935  62.7562310  29.6193001
  11.8680035  88.9600803   5.5413315  12.2764527  88.1148340   5.7283279
  11.8713891  89.4188096   6.3814423 108.8849289  89.2163493  27.6450512
 108.0537969  89.4206835  28.0736515 109.3858272  90.0306036  27.6932880
  13.2953280 104.0276570  88.9365482  13.7311047 103.9273096  88.0902290
  13.8869255 104.5810587  89.4464493  81.3703233  93.2615687  18.6626312
  82.1385891  93.6874820  18.2823727  80.9525949  92.8177954  17.9245255
  71.2211800  28.1948423  90.3974247  70.2945328  28.3846116  90.2506351
  71.6384983  28.3724880  89.5545006  30.3462159  84.0978886  22.3880550
  30.6488739  84.9548818  22.6883671  29.5387017  83.9437391  22.8783676
 111.0442240  77.9138304  14.3525669 111.0640461  77.1175386  13.8217613
 111.2407667  78.6182834  13.7350437  62.8906870   8.0866867  78.0621052
  62.8843069   7.6385504  78.9078951  62.3214769   8.8457292  78.1889200
  45.1524496  47.3170805  88.4496784  44.9950838  47.2345638  87.5091171
  46.1056805  47.3012877  88.5353279 107.6974804  60.4219683  13.5603687
 107.2986252  60.2379863  12.7099011 108.5882026  60.7033174  13.3513424
 104.9532890   8.9549190  68.3269215 104.3692112   8.4656626  67.7475166
 104.4172001   9.6780241  68.6524296  18.6634194  59.6054231  46.9738171
  18.9198815  60.4102613  47.4240372  18.1931244  59.9055277  46.1960098
  17.0607983  84.3838646  44.9681923  16.4213406  84.9496438  44.5355007
  17.9102074  84.7202684  44.6825954  90.8776474   8.4917158  83.2509422
  90.8679104   7.8183168  82.5707436  90.6840229   9.3053043  82.7853107
  72.8546524   4.1342703  94.3769360  72.7694416   5.0525373  94.1205120
  72.7550745   4.1412073  95.3289223 109.2888338  86.0737778  19.2863628
 109.3888122  85.8167984  18.3697388 109.2804510  85.2463533  19.7675392
  23.2308006  48.7130117  83.9921761  23.9937258  49.2481327  84.2108631
  22.5826955  49.3398905  83.6709023  89.2909939  44.0718748   6.2960026
  89.1785318  43.4437324   5.5825398  89.0903694  44.9206819   5.9016583
  69.2870409  38.8173558  20.8740685  69.4279701  37.8877868  21.0537121
  68.3580477  38.8802590  20.6521484   4.5945298  58.3904310  38.4395287
   5.1962410  57.6462822  38.4599278   5.1636635  59.1567685  38.3685181
 102.4906332  75.0716962   3.0065033 101.7342693  74.6193244   2.6330063
 102.3904831  74.9649288   3.9524433  31.2979906 111.4121003  80.6039906
  31.6335314 110.7503824  79.9991989  30.3679150 111.4832541  80.3892136
  71.3715363  13.5317147  78.3604956  71.6001177  13.3440614  77.4501276
  72.1459389  13.9669061  78.7170649 116.5291483  84.0218236  -0.0108936
 116.9786627  83.2252123   0.2712032 116.8249828  84.6939685   0.6030628
  54.1646004  34.0767598  94.4763184  54.6315145  34.8989582  94.6253395
  53.4175444  34.3211746  93.9300537   1.3238656  86.9879438  19.5306274
   0.5399167  86.9257142  18.9849255   1.2776600  87.8622963  19.9174091
  99.6143944  83.5983469  25.9601662  99.6585447  84.5203282  25.7067177
 100.5285150  83.3176686  26.0029385  57.5468206  15.0641227  93.2239723
  56.7224836  14.5867538  93.3178616  57.6091671  15.2525580  92.2875786
  74.4188356   7.1887553  89.4826984  73.4929228   6.9466299  89.4996929
  74.4618034   8.0061340  89.9789619   7.6269471  82.8882600  29.8208115
   7.5440918  83.5994841  30.4560539   6.9662796  83.0827119  29.1560242
  34.0163534  89.2938514  47.3531246  33.5857933  88.4630890  47.5548267
  33.6675280  89.5427961  46.4972162  48.7148510  61.3119562  15.0141213
  48.0214917  61.6796602  14.4661400  48.3236729  60.5292983  15.4022762
  36.7505490  48.8233622  16.6648171  36.3191544  49.5836999  17.0547173
  36.1703431  48.0892410  16.8664715 111.4548189  93.4527518  45.0408623
 110.7513315  92.8111531  45.1392910 111.7023689  93.6762931  45.9380695
  83.5804683  75.7100560   9.3990967  84.5182020  75.5364718   9.3169186
  83.2081110  75.4122247   8.5691139  84.1076088  23.0932093  89.5010090
  83.4365749  22.7751422  88.8970375  84.5101166  23.8319302  89.0443707
  98.5056114  20.0873613  44.2516851  98.8429356  19.5457721  44.9652195
  98.2253265  20.8974004  44.6777296  85.0546486  80.7491066   6.0076592
  85.0121099  81.4979579   5.4129765  84.3600685  80.9105708   6.6461823
  69.2251873  13.4780788  79.7360373  69.4966030  13.9027667  80.5497932
  69.9780083  13.5746837  79.1527987 110.5364990  42.3550558  91.3954735
 110.8373737  42.7346373  90.5698681 110.3639412  41.4366722  91.1880398
  80.1813793  11.4032638  93.5472584  80.0229740  10.9048557  92.7455521
  80.9287548  10.9672642  93.9566040 117.6278955  83.8219883   6.9616768
 118.1323845  83.1089546   6.5701363 117.9347259  83.8632347   7.8674290
  52.2388506  28.7644172  84.7280407  53.1076717  29.1660404  84.7369385
  51.6338110  29.5037603  84.6686268  59.8175478   0.6174328  78.9704800
  59.3969965   0.0318717  78.3408070  59.1373634   0.8005316  79.6185923
 116.8843395  79.9425508  16.1480972 116.8086273  79.7236301  17.0768520
 117.6108152  79.4044329  15.8336327  62.4136305  35.7618666  85.9980774
  62.6865911  36.1506224  85.1670551  62.9200029  36.2322330  86.6603279
  64.8450089   4.6723056  93.4926510  64.5400238   3.9804566  92.9056644
  64.7719431   4.2928720  94.3684006  21.6688936   1.4472873  38.9515850
  22.1818798   1.0097939  39.6310589  22.2793883   2.0670564  38.5523197
 113.0532152  92.3884441   0.1297352 112.1384365  92.2261478  -0.1006344
 113.2798321  91.6757347   0.7271645 118.0832750  89.0260913  25.1344177
 117.2822410  89.0506126  25.6578419 117.9896480  88.2445504  24.5897457
 113.5424883  83.7540008   8.5884640 113.9836294  83.9342620   7.7583286
 112.6097042  83.7885215   8.3764336  44.2490708  63.7647338  13.0745098
  43.4049355  63.3188112  13.0050251  44.4928967  63.9583381  12.1693584
 115.9558040  47.3315175   5.7803032 115.0117428  47.3250605   5.6223843
 116.1974794  48.2571919   5.7494423  89.1545200  18.6827350  90.0432301
  88.3117390  18.4439886  90.4291821  89.0029812  18.6509001  89.0986347
  60.3000402  15.2615905  78.5272932  59.9301100  14.3929899  78.3694506
  60.2269840  15.7097721  77.6846647  69.9799967  41.6180325  90.3191376
  70.9092903  41.8334246  90.2400494  69.6192741  42.3123980  90.8704662
 107.0481235  81.9824387  30.6863472 106.1224777  81.8981744  30.9150669
 107.1398813  81.4867069  29.8726818 116.9833118  87.5486733  31.1560127
 117.5422222  87.9611804  31.8145630 116.8951780  86.6421749  31.4504978
  81.5375311  82.1282794   7.7951119  81.5284473  83.0795886   7.6894829
  80.6148941  81.8878843   7.8798649  79.1849422  26.7685223  85.5748749
  78.9143181  27.4027514  86.2387657  79.2577744  27.2809672  84.7696877
  40.6454008  99.6558244  75.1578331  40.6953924 100.2535219  75.9038162
  39.8315590  99.8943217  74.7139645  92.8486711  64.1186400  17.1323559
  93.1149847  64.4124349  18.0035564  92.2582084  63.3835961  17.2975800
 105.6714231 101.8766977  11.8790981 106.1914522 101.1658813  12.2539875
 105.6421119 102.5409462  12.5676796  88.7126667  65.0334783   2.6431152
  88.9284498  64.2521079   3.1521675  87.7562505  65.0703932   2.6548264
   5.9994637  56.0615147  38.8040897   6.6318356  55.7906914  38.1385204
   6.1745297  55.4863534  39.5489189   3.0130517  66.4701332  20.3775093
   2.3300778  67.0850970  20.1099369   2.8272282  65.6741949  19.8793289
  61.8497801  21.0399938  63.3299685  61.3622189  21.7345500  63.7728167
  62.0196915  21.3874507  62.4543905 105.8995849 109.3137218   5.5822250
 105.2540952 108.6908580   5.9163067 105.7823307 110.0939848   6.1241409
 109.8339397  71.5093793  22.0609734 109.1698868  71.0512270  21.5458366
 109.3430025  72.1662606  22.5546524   9.0616642 102.0822765  32.3345825
   9.3379818 102.7499296  32.9623768   9.7028767 101.3787653  32.4353573
 115.2948505  89.3675043   6.4313480 116.1697132  88.9791943   6.4236137
 115.1884681  89.7356941   5.5542252 112.1869833 107.7128269  21.4758179
 111.2471658 107.8478386  21.3543770 112.4742300 107.2875168  20.6678364
   4.0241181  60.0564404  10.9904739   3.4309422  59.3197514  11.1376450
   4.7584473  59.6795382  10.5057594  96.8086082  55.6637651   4.7844288
  96.2187750  56.2941932   5.1978180  97.1860248  55.1740574   5.5151627
  94.2997009  50.7124443  24.6558640  94.3295604  50.0562157  23.9596531
  93.9715511  50.2370955  25.4191372 108.5000974  38.8128032   6.0699722
 107.5637418  39.0103986   6.0905621 108.7472803  38.7279393   6.9908020
  15.0151747  90.7543511  88.4239292  15.5108422  90.1007218  87.9306602
  15.4548615  91.5828140  88.2327366  64.9789953   4.3529454  86.9333935
  64.4403696   4.4435108  87.7194691  65.2134275   5.2508855  86.6989231
 100.9206676  32.7650666  87.6870632 100.3922176  32.7848530  88.4849262
 100.8261490  31.8707156  87.3592949  95.6976730  32.5178839   8.6012146
  96.3334924  33.1913592   8.8428852  96.2006599  31.8877222   8.0853340
  13.3961331  63.7104423  35.9657356  13.8493382  64.5483036  35.8718082
  12.7667843  63.8564105  36.6720268  26.1808430  66.5271332  28.0478069
  26.0210454  66.7809393  27.1388027  25.3482090  66.6886510  28.4914944
  21.0630356  67.3743715  17.8430721  20.2590882  67.1103646  17.3956272
  20.9528958  68.3121707  18.0000183  77.0378351  28.3237433  93.8744259
  77.1727085  29.2507982  93.6779308  76.8680382  28.3007574  94.8161697
 102.0430547  87.6678588   9.9765942 102.5125009  88.3999969  10.3763744
 102.5388605  87.4707653   9.1818783  73.1029129  17.1131468  92.5324631
  73.2505274  18.0232596  92.7896309  72.1801996  16.9546068  92.7317047
  99.1123754  42.9877712  17.7529118  98.7306959  42.1409680  17.9841587
  99.6500093  42.8057040  16.9821713  98.0769426 102.1207859  12.2634861
  97.9687626 101.3825466  11.6638729  98.3719665 102.8408434  11.7060730
 110.8206541  62.2238405  16.0723087 110.0087196  62.4290730  16.5358612
 110.6055958  62.3448379  15.1474640 114.3406564  86.8576266   6.4977238
 114.5636780  87.7849867   6.4171288 115.1316673  86.4509155   6.8514416
 102.4803734  27.8325582  85.7189560 102.7440929  27.7497935  86.6353798
 103.2128143  28.2833004  85.2987194  19.2423886  76.7295761  84.1170120
  19.4380873  77.3422451  84.8259354  20.1005905  76.4543123  83.7945938
  73.4186316  10.4065406  85.7756615  74.3746090  10.4548645  85.7747841
  73.2086182   9.8039335  85.0622272  37.9197478  28.7938309  95.7436562
  37.8752136  28.2524443  94.9555302  37.0124650  28.8576388  96.0419846
 105.5649454 104.0600826  22.6935074 104.7660095 103.6853124  22.3227284
 105.9306080 103.3588125  23.2327148  16.2674176  89.7221591  22.8351280
  15.5793034  90.2138664  23.2834122  16.8472611  90.3941299  22.4767086
  90.4209614  40.8038092  93.8759708  90.4104805  39.8963428  94.1803169
  89.5566750  40.9357452  93.4863186 102.8579742  69.6887435  28.3405468
 103.7509376  69.3909754  28.5142777 102.8169615  70.5624952  28.7292740
   0.8201539  96.3423206  22.0372173   0.5463397  97.0044376  22.6719257
   1.5510022  95.8921959  22.4608585  68.6712408  29.2444158  89.3920803
  68.4348249  29.7142601  88.5923386  67.8338337  28.9653420  89.7623444
  99.2525512  98.2928135  35.3248283  99.7009880  97.4614860  35.1698181
  98.3344919  98.0506994  35.4464218  33.6609398  62.5346525  17.4775002
  33.2940232  63.2700874  16.9868538  32.8996312  62.0142503  17.7340481
 114.8048622  66.7458369   4.5841381 115.5535728  66.5308155   5.1403973
 115.1763517  67.2700299   3.8745949  16.2358986  71.4083935  12.8539631
  15.7227170  71.2048473  12.0720169  16.8562924  70.6833066  12.9287407
  11.3906150  53.0149460  94.6597004  12.2656970  52.9132557  94.2853832
  11.5471606  53.2507992  95.5740833  67.6664860 102.4805643  11.6060898
  68.0487401 101.6060449  11.6790745  67.2958857 102.5071098  10.7239410
  48.5688591  29.6837568  87.2904682  47.9914474  30.1086998  87.9246998
  49.3687725  29.4974518  87.7820587  33.1433903 104.1434385  30.4821274
  33.5301148 103.2791807  30.6226036  33.2502877 104.3041612  29.5445892
   0.9767853  85.3644087  26.9987556   0.8267724  86.0356094  27.6645062
   0.2779089  85.5010678  26.3591263 115.6744224 108.3244945  21.9691250
 116.2819845 107.9170944  22.5864765 115.4440672 107.6221277  21.3609669
   7.8434043  20.7009602  86.6622543   7.9202418  20.0345945  85.9794044
   8.7171511  21.0877395  86.7188644  90.3537781  96.5349390  11.1249706
  90.5085594  97.0163776  11.9376823  90.5447036  97.1670915  10.4320309
 108.4185869  69.5297493  21.0893318 109.0247614  69.0390219  20.5343792
 107.8227693  69.9569227  20.4738972  16.0706460 102.9057266   1.3559601
  15.7493626 102.8542091   0.4557678  15.8890568 102.0413591   1.7249176
  69.8825854   9.5326335  38.9634106  69.4774073   9.8489434  38.1559345
  70.2107352   8.6612946  38.7413380  37.2521817 104.3595888   2.6384804
  37.8892933 105.0179912   2.3613045  36.7587792 104.1544964   1.8442986
 117.2851402  98.0210544  17.3427937 118.1598646  97.7274706  17.0880482
 116.7018921  97.3232557  17.0442459  20.8406960  70.3017701  28.1574986
  20.3459965  69.4904257  28.2724735  20.5258404  70.6586398  27.3270008
  28.0080925  74.2946626   0.3145763  27.9728161  74.0315189  -0.6050613
  28.3969056  73.5441102   0.7637188 108.1901581  98.5154583   3.4947941
 109.0255148  98.5446026   3.0283615 108.4251959  98.6362364   4.4148037
  27.6590954  78.9742424  18.3923790  27.3464238  78.1356765  18.0528423
  28.3721100  79.2203809  17.8030941  98.1915188  42.5560856  72.8310919
  98.6861324  42.7563334  72.0364237  98.6625862  43.0129862  73.5279226
  33.7138878  83.8595368  14.2514393  34.2033898  83.0649854  14.4642994
  32.9549729  83.8366987  14.8343250  32.8975075   6.1219317   9.8636314
  32.9597014   5.2405459  10.2317688  32.6864355   6.6798360  10.6122467
 101.6943390  67.2985341  63.6078808 101.3326723  67.9617144  63.0199787
 101.9902498  67.7922095  64.3726894  92.9929638  34.4024348  89.6396828
  92.0495987  34.2929578  89.5200062  93.0724621  34.9906063  90.3906536
 117.7558595  96.2191107   3.1044266 117.4548322  95.4489233   3.5865280
 117.0042545  96.4762499   2.5703785  27.4887311  92.3204734  33.5316441
  27.1411549  91.4632298  33.2855579  26.8591343  92.9460766  33.1732342
  96.3808042  56.6607048  13.6805317  97.1851761  56.1452009  13.7394783
  95.8344061  56.1816113  13.0575153 105.3127003  46.3797760  94.3022060
 105.3906536  45.4494476  94.0909100 104.6477032  46.7079449  93.6969662
  26.4149891  58.2363550  13.2804653  26.2975441  57.3706837  12.8892490
  25.5979287  58.6976265  13.0910751 103.7616825  41.8323278  76.3503790
 103.5142040  42.0894146  77.2385788 103.0291271  41.2985754  76.0426426
   1.5510611   5.1213318  90.9695816   2.0732455   4.7438085  91.6774178
   0.8654170   4.4737226  90.8061123 103.2116014  74.4469573  24.4288704
 104.0211755  74.2707719  24.9082253 103.4077198  74.1945876  23.5266087
   5.2725159 104.0361931  17.7889702   6.0405098 104.3119241  17.2885868
   5.4460179 103.1209518  18.0091164  89.0969276  68.2499599  91.2691021
  89.1525841  67.3603773  91.6180801  89.6244144  68.2274628  90.4706764
  89.1681480  10.7867670  95.7242775  88.5448837  10.1445150  95.3847504
  88.8955879  10.9290206  96.6307545  55.3792715  28.6510062  94.4079018
  56.1660051  29.1069937  94.7068214  55.3662252  27.8388023  94.9142456
  18.7657582  35.8749582  20.1974937  18.3399807  35.1554515  19.7313759
  19.4369256  36.1889674  19.5915482  37.4135243  89.0265729  11.4444611
  36.6043984  89.5377018  11.4615223  38.0962883  89.6506383  11.6906712
  73.6822462  24.7920299  91.8155861  73.6785507  25.6780767  91.4534569
  74.5138216  24.7287631  92.2853851  71.7905807  12.4438262  75.1919985
  72.1985102  12.5472856  74.3322754  71.0053301  12.9897165  75.1517677
   1.6027980  43.9439011  93.0354691   2.4929766  44.1663027  93.3081436
   1.0598616  44.6454811  93.3949566  56.8282335   5.4452140  41.7144463
  57.4574583   5.5296571  42.4308178  56.7296904   4.5009715  41.5922806
  82.2671509  19.1436303  86.6134834  82.9942226  18.5539138  86.4138985
  81.5215302  18.5623980  86.7633247  86.5699577  56.1027384  92.6768303
  87.4762058  56.3527393  92.8569794  86.3184738  55.5592346  93.4235573
  99.2715740  29.5769978  74.9855185  99.2476940  30.4961300  74.7193336
  98.5647202  29.1652513  74.4884777  41.3004624  96.6679908   6.3516876
  41.7624127  96.3916303   7.1431801  41.5563332  96.0266687   5.6887600
  20.5028759  64.3558492   5.9143517  20.5466305  63.4099563   6.0543606
  21.2809407  64.5572640   5.3944752 111.5690214  98.7493278  11.7876026
 111.9282753  98.5886623  10.9150478 111.5723068  99.7024109  11.8762085
  95.7654554  69.1370119  50.7835266  96.3630373  69.4665004  50.1122829
  95.6881553  69.8569061  51.4096329  11.7262780  95.1360013   9.8068497
  12.6493012  94.9369718   9.9638531  11.5933548  95.9922554  10.2135345
  94.2739773   2.2926645  92.4450111  94.4132996   1.8272415  91.6202641
  95.1526546   2.5439867  92.7295971   1.1179530  82.6699163   2.6672337
   1.9217335  82.1804191   2.4924252   0.4237019  82.1364118   2.2804138
  93.3591062  79.8803069  -0.0015381  94.1871340  79.4370629   0.1832172
  92.9032308  79.8966815   0.8399746  68.6823463  43.3786583  92.1829700
  67.9913664  42.9205990  92.6614666  68.2139254  43.9513588  91.5756607
  73.9982063  75.8143903   3.9032719  73.3530099  75.3254165   4.4140121
  74.8442275  75.5048742   4.2268154 115.0788099  83.8297583   6.5461514
 114.7941286  83.1170942   5.9740517 116.0329468  83.8317253   6.4696571
   7.2712552 107.6833440   2.8741524   7.9488694 108.2865860   2.5688908
   6.5424191 107.8151561   2.2678062   6.4923321  58.0160482  21.6246101
   5.9561097  58.1020549  20.8363888   6.1743580  57.2168352  22.0445892
  36.3266962 105.1612807  81.9089794  35.4960840 105.1217980  81.4348888
  36.3702267 106.0577626  82.2416306 105.5738909  47.8641214  37.7370235
 104.6176512  47.9053362  37.7485439 105.7941610  47.6664747  36.8267223
  93.2595236  75.6640460  47.3270676  93.3990938  75.6615414  48.2740376
  93.8099367  76.3782026  47.0057365   8.5788189  69.7853984  31.5329620
   8.4136139  68.8434972  31.5749237   9.2580544  69.8799147  30.8651802
 115.2837879  99.8400499   2.3446438 114.6150381  99.4914533   2.9341194
 116.0435611  99.9910118   2.9069492  79.0540314  19.9159229  93.2202816
  79.3196058  19.1284955  93.6953259  78.1607866  20.0861549  93.5192204
  47.5819588   7.2829843  76.6548109  48.3141708   7.5002575  77.2317743
  46.8949604   7.9046643  76.8951941  16.0342347  76.4381553   8.5373756
  16.2422978  77.1643092   7.9494640  15.8280884  75.7084932   7.9531357
  56.1695480  31.8928409  94.1414070  55.4616165  32.3647761  94.5799732
  56.2914896  31.1019230  94.6665859  85.6439495  26.1639500  91.6027641
  86.3788795  26.3272905  92.1938896  84.8814774  26.5085292  92.0676613
   8.4193455 106.3613512  19.3658897   9.2756306 106.7438986  19.1744015
   8.4872281 105.4569294  19.0598843  59.7602844  36.8750644  89.4862747
  59.1402340  37.4163699  89.9748993  59.7992373  36.0537648  89.9763584
  54.7515631  13.9310873  93.6639404  54.0710497  13.4353209  94.1193008
  54.4898462  13.9073634  92.7435207  26.2293595 107.0147858  71.4959383
  25.5958479 107.4540285  70.9285164  27.0034521 106.8978209  70.9451818
 116.3103372  69.8545481  34.2217896 116.1253721  69.5808746  35.1201889
 116.5939218  69.0536012  33.7809917  80.9787208  97.5771000  12.4724934
  81.4110643  97.3670103  11.6447327  81.6730386  97.5132801  13.1282970
 109.1507417  94.8197414   4.4976112 109.6472770  94.9651362   3.6922905
 108.3122474  94.4656254   4.2013714 106.2877733  96.1096288  15.9075520
 106.2035066  95.6650926  16.7510674 106.2284977  97.0409252  16.1206314
  98.9584064  61.8602276  93.0295563  99.2597866  62.7476215  92.8347969
  98.1850910  61.7433882  92.4776840 103.7742550  91.5774967  12.6626083
 104.2896730  92.2750475  12.2576401 104.3978769  91.1112549  13.2193348
  99.2942142  22.6726556  87.1011257  99.7976780  22.8254318  86.3014889
  99.4327259  23.4612393  87.6257038  90.2878315  74.5198621   4.1741917
  90.3588468  73.5788001   4.0142128  90.5504543  74.9238946   3.3471367
  40.4113232  54.1750610  18.4473774  40.1709401  53.2709266  18.2449219
  40.3574502  54.6310280  17.6074860  35.7234066  14.9882800  41.4859364
  35.3338640  15.8162743  41.2050221  36.6136235  15.2200038  41.7506001
 104.1945297  89.4511415  17.1794006 104.8137838  89.9321248  17.7284119
 103.5350639  90.1009561  16.9363567  31.2561451  96.5810730  31.6095326
  30.4981266  96.0832693  31.3032219  31.0083806  97.4969150  31.4827320
   8.7874382   5.0664002  31.5225670   8.3250302   4.2810399  31.2299606
   9.7062605   4.8938996  31.3170406  57.6269484  29.6959424  82.3979855
  57.2791195  30.5664015  82.2042179  56.8775225  29.2095804  82.7415562
 101.9777185  73.8245632  46.4771530 102.7821619  74.3313863  46.3665268
 101.3110620  74.3284680  46.0103676  17.6809042   0.1837308  23.8923046
  17.9053801  -0.0074189  24.8029682  18.5096186   0.4457290  23.4912750
 115.0283987  86.5070154  20.9943745 114.0845329  86.4919092  20.8358929
 115.1275903  87.0107581  21.8022320 113.7776184  15.1622701  94.8884773
 114.2108345  14.4185650  94.4695950 113.7677765  14.9403894  95.8195591
  37.4719941  51.9084336  16.3364479  38.1224095  51.7807426  17.0270130
  37.8678452  51.5148659  15.5588600 108.9621050  81.5834095   4.4630882
 108.3445102  80.9401609   4.1151688 108.5170442  81.9552495   5.2245972
   3.5189204  13.0538511  69.8970556   4.3918280  13.1699228  70.2722692
   3.6568885  12.4819791  69.1419697  40.7795065  23.2695062  33.8084671
  40.6774538  23.5989672  34.7013733  40.5109280  22.3521764  33.8594887
  29.7216355  65.2919312  20.6024620  28.9841782  64.8504175  20.1812145
  29.3946778  66.1698403  20.7989475  11.3454758  54.7418230   1.3239071
  11.4050423  54.3860020   0.4372952  12.2534787  54.9093463   1.5762589
  11.3854157  71.1969949  14.4725201  11.0256135  71.2889554  13.5902950
  11.2887799  70.2664162  14.6747944  34.7676056  86.6553182  91.2609386
  35.5041855  87.1344085  91.6406155  34.1120308  86.6322775  91.9580269
  86.2856770  37.8142691  92.6971436  86.4573383  37.8178740  91.7554665
  85.3935337  37.4766517  92.7766705  96.8070394  88.4952571   4.2930100
  96.2902576  88.0160667   3.6452839  97.0700485  89.2981650   3.8431236
   8.6172043 105.6687977   1.0197136   9.4465291 105.2277471   0.8355400
   8.8585125 106.5847637   1.1575958   5.0571095  97.6274730  18.2532475
   5.1957642  98.4967519  18.6292240   4.2973935  97.2821380  18.7220737
  90.7688618   8.2288194  87.8465748  91.3899899   7.5030488  87.7858829
  91.2493134   8.9842236  87.5078201 111.5306646  85.2721836  33.3067677
 112.4413711  85.5297162  33.1635353 111.5872413  84.4742324  33.8324139
 113.5515959  99.7749235   4.4229767 113.9233238 100.1160051   5.2364323
 112.7104074 100.2236082   4.3374035  17.2257857  35.2228665  82.8919029
  18.0368476  35.7223248  82.7972984  17.2587924  34.8793530  83.7847233
 101.8703729 103.9667942   2.4424240 102.4086506 103.2013847   2.6440022
 102.3829729 104.4576694   1.8001530   2.7464234  98.5162880   4.9943993
   3.2464539  98.4139539   4.1846344   2.1637284  97.7571251   5.0136539
  88.1575108  30.2751303  82.1488190  88.6088657  29.6187067  82.6794910
  88.5173130  30.1607060  81.2692356  51.6792822  74.3680811  92.3081112
  50.9955978  74.8681259  91.8622780  52.4856520  74.6025372  91.8487358
  51.4365435  58.0536079  90.5207348  51.2382269  58.9205980  90.8746147
  52.3913240  57.9941177  90.5537033  69.4696379  16.7286468  82.5361347
  69.0465641  16.4945245  83.3622265  70.2965260  16.2465668  82.5454617
  34.1943966  92.8363396   1.7568466  35.1106583  92.8912045   1.4853737
  34.0839802  91.9304349   2.0455906  86.0978222  40.7347679  95.8848000
  85.6474495  40.4216385  96.6692448  86.0123348  40.0172424  95.2570438
  60.9799593  92.6453800  80.2535439  60.8187598  93.5723038  80.4297829
  61.8930643  92.5088103  80.5061722  13.6856781  65.0816818   4.4004032
  12.9788052  64.8131086   3.8135216  13.2841717  65.7314761   4.9772903
 115.3711683  86.4716055  10.2078507 116.0574657  86.6317059   9.5600864
 114.5954687  86.2612988   9.6879551  99.4260883  48.6949825  92.9448700
  99.4075584  49.2324829  92.1530533  99.2919540  47.8008509  92.6305962
  45.1468693 108.3848240  21.2810585  44.5859467 107.6130439  21.2038681
  45.9884488 108.0403377  21.5799114  86.1986953  88.2962395  14.4381401
  86.3586838  87.7526094  15.2095673  85.3919918  87.9452826  14.0609333
  84.9012214  65.4913946  38.2559368  85.1323301  64.5832594  38.4511635
  83.9462501  65.4868229  38.1908295   2.2531544  71.5430297  20.3682205
   1.7249714  71.3886537  19.5850060   2.4008786  72.4887385  20.3749153
   6.1356865  75.7391645   4.4328186   6.1063134  74.7877409   4.5336315
   6.2212407  76.0721447   5.3261444  34.9476754  55.1203212   5.9493038
  35.4082619  55.9581724   5.9034607  34.1494404  55.2575866   5.4391930
  87.6171780  33.3161497  91.2983990  87.7147770  33.4501338  90.3556633
  86.8323898  33.8124394  91.5308666  13.9061677  93.3365895   7.1351406
  13.2668149  92.6621534   7.3644898  13.9168297  93.3409263   6.1780140
  64.5686483  24.2114687  96.5773392  64.2632961  23.5411620  95.9660435
  65.2351332  24.6950030  96.0892487   8.4044301  93.6800172  17.4776909
   7.5255333  93.3030535  17.4368736   8.2685124  94.5698525  17.8031895
 100.5739862  94.8534466   1.6501782 101.0609752  94.6341135   2.4445126
  99.7640259  94.3479540   1.7185566  89.6033508  52.7663888  23.3676598
  89.9297744  53.6079097  23.6862919  90.3808529  52.3186647  23.0340931
   5.3463589  86.5605118   3.0727360   5.7197033  86.2869837   3.9106056
   4.6310269  87.1504523   3.3104488 100.9307098  57.7131081  91.8267727
 101.2249660  57.9756641  90.9545898 101.1311531  58.4653568  92.3837090
  51.7674971  28.5720992  88.8247204  51.4978218  27.6736712  89.0153313
  52.6866627  28.6075521  89.0894890  33.5238205  67.7481605   8.6687061
  33.5367810  67.2893526   7.8287289  33.6636864  68.6674644   8.4416649
  14.8839413  78.7059380  54.8055527  14.3265759  78.7158968  55.5836746
  15.2719056  79.5805456  54.7776291 109.8335743  27.1272039  86.0178661
 110.7182312  27.3241377  86.3258171 109.9502754  26.4060974  85.3993034
  47.3735636   0.4129273   6.3346359  46.6562765  -0.0869125   6.7243549
  47.7887266   0.8537967   7.0759174  92.1418381  26.5697956  93.5464668
  92.9714775  26.2658072  93.9145851  91.5090370  26.4555717  94.2555237
 102.4751884  71.1215140   1.1963245 101.6271145  71.2426402   0.7693359
 102.2999651  71.2748923   2.1247742 103.2485182  59.4771882   3.5074303
 103.6601049  60.3388311   3.4410927 102.3491890  59.6179108   3.2114002
 116.5548832  88.4453036  19.1214153 115.8777982  88.1601550  18.5078404
 116.6490251  87.7135445  19.7312519  30.0040947  91.5321209   5.6131336
  29.3770730  91.7875148   4.9364826  30.0143277  90.5755021   5.5814049
  70.2734392  12.2065980  43.2082150  70.4280871  11.2626035  43.1736633
  70.6191271  12.5364549  42.3788044  22.3233466  24.2152119  91.9335938
  21.6333442  24.8246956  92.1956158  23.1171088  24.5628929  92.3401546
  65.3407782   1.1829430  26.7217800  66.2119024   1.3493258  27.0819065
  65.2984827   1.7276389  25.9358093 114.7361261  99.9296476  15.9937737
 115.2400285 100.4521705  15.3698418 114.1360742  99.4197418  15.4495594
  64.4748705   2.6033122  14.0102741  65.3988093   2.6889998  13.7752602
  64.2273253   1.7338664  13.6955998   7.9859786  55.4422045  76.5789509
   7.3670344  55.4658842  75.8491611   8.8307719  55.2532387  76.1704874
  71.2221562 106.8966963  24.6220276  71.8811642 106.9752981  23.9322731
  71.0184800 107.8004505  24.8627922  75.7007122  34.0822721  85.5252457
  75.7525349  34.6360540  84.7462273  76.6054678  34.0119219  85.8297157
  96.2047291  54.6601820  85.3305054  96.1645699  54.7092962  86.2856007
  96.1882591  53.7226868  85.1379776  81.2946224  22.0421839  81.9136333
  82.1487045  22.4735618  81.8873692  81.4207268  21.2967682  82.5007248
   3.2022320  73.1005813   0.3562042   4.1442524  72.9805853   0.2360985
   2.8155076  72.2794582   0.0521824  69.7252863   4.2933852  22.8380844
  69.9658602   3.3742053  22.7220509  68.8147181   4.2673785  23.1320450
  48.5279291  21.3499028  29.9631092  47.9162710  21.3691813  29.2270920
  48.0986326  20.7981116  30.6169102 109.9120409 111.1013700  22.1959183
 109.6638519 111.4414455  21.3362762 110.4418785 111.7972042  22.5849125
 112.2838306  36.9437814  83.1629658 112.6023197  36.1957335  82.6577759
 112.3013973  36.6439462  84.0718269  15.6969695  26.2686205  82.8974342
  16.4717917  26.8161631  82.7706337  15.0605826  26.8476129  83.3169746
   8.9170586 108.2917024   0.4553768   9.7292458 108.0572082   0.0063870
   8.2792412 108.4084322  -0.2487591  66.6344166  89.6641541  96.2030602
  66.7017603  90.3676128  95.5574322  67.1147394  88.9339924  95.8127022
  10.0824105  90.0552084  14.6871540   9.8135220  89.7078301  15.5375931
  11.0021817  90.2924682  14.8053047  51.6134661   5.0642592  20.0363991
  52.2658365   5.3749902  20.6641647  51.6815108   4.1101748  20.0727341
  74.3629932  19.4828916  90.1256466  74.9765110  18.8215077  90.4456425
  74.8785973  20.2883530  90.0854111  34.1745888 109.1447450  34.1264221
  34.2044102 108.2888176  33.6989567  35.0871502 109.3364813  34.3425056
  75.2514666  17.4471862   7.3275158  76.1164206  17.8473908   7.4165604
  74.6899718  18.1571395   7.0162079  41.9241940  78.7547924  11.4584896
  41.7981183  77.8126480  11.5711758  42.7007996  78.9566352  11.9803879
  80.6778717  39.4849920  93.0260944  80.7566643  38.8293028  92.3332119
  81.5660286  39.5769024  93.3710003 110.2402050  68.3519139  19.5289681
 111.0278732  68.7545754  19.1633484 110.5355055  67.5023963  19.8566029
  96.5440464  51.8739367  90.9050465  95.8098412  51.4461279  91.3456726
  96.2712765  51.9350529  89.9895763  47.7582013 100.1799776  19.0006706
  48.5159337 100.2256920  18.4175942  48.1191765 100.3287603  19.8746178
  92.0339697  13.3292443   7.2126171  91.4057749  14.0505511   7.1762440
  91.9382494  12.8855521   6.3698837 114.2035580  35.2812338  88.1144238
 113.9174366  34.5098591  88.6036587 113.7854767  36.0171080  88.5615540
  32.7512299 101.9288685  13.2915756  32.7035176 102.8297521  13.6115047
  33.4307896 101.9496633  12.6177761  80.7622259   9.0915639  21.6430161
  80.8570116   8.1734902  21.8967602  81.5524119   9.2832763  21.1379597
 117.5611591  51.3544798  71.2093210 116.7660999  50.8673143  70.9930229
 117.3233032  51.8715620  71.9789219  58.6423891   6.7566449  40.5256531
  59.2949599   6.0824544  40.3363010  57.8091162   6.2858445  40.5409596
  21.7675053 102.6765682  31.8404362  20.8883320 102.3906948  31.5923187
  21.6902863 102.9139854  32.7644989 111.5018636  94.8010351   2.6208088
 111.9531423  95.2958729   3.3047077 111.7323095  95.2509548   1.8079826
  82.5456827  43.7080247  22.5677368  82.0590895  42.9511697  22.8942654
  83.3642405  43.6986977  23.0638287  80.6265848   4.5960290   0.7884190
  81.1024302   5.4063136   0.9707233  79.8778074   4.8717648   0.2597115
   6.2773263 105.3316786   7.8356049   5.3526818 105.3740026   7.5917599
   6.3206040 105.7666017   8.6871883  88.4980869  44.2325354  85.1356888
  89.3938637  44.2314816  84.7983360  88.5880566  44.4893789  86.0533905
 114.8896438  89.9950935   9.0200493 115.0380308  89.8030044   8.0941364
 115.7320387  89.8191549   9.4391605  61.0828339  99.9787523   2.5175163
  61.3172661  99.2317917   3.0682632  60.4588543  99.6232416   1.8846771
  98.6101151  49.9907637  90.7359219  98.1140614  49.5809317  90.0272655
  98.2180405  50.8586884  90.8319473  91.5917206  11.7908370  90.9168148
  91.7760181  12.5677454  91.4447117  91.1360550  11.1978555  91.5142918
   0.7561671 102.3337557  11.0693523   1.1510026 101.5453150  11.4417812
   0.4260193 102.0556547  10.2150223  10.5271756 104.3498565  15.8356640
  11.1179482 104.9697210  15.4078934  10.5019986 103.5966922  15.2454540
  57.6657521 102.8278114  35.2302620  57.9011380 102.3739769  34.4210312
  57.2752606 103.6514427  34.9380753 104.9722893  71.0825159  32.8395340
 104.9108202  71.9939424  32.5536129 105.8464462  71.0101499  33.2227394
  27.6554047  93.6892750  14.3000671  27.9513299  93.1297065  15.0180790
  27.3272835  94.4784667  14.7310516 103.2896900  35.1254964  85.1776123
 103.1781769  35.8984995  85.7310200 102.6436901  35.2352667  84.4798565
  94.7299480  57.7893257  91.9229221  93.8596058  57.6367474  91.5548801
  95.2433395  58.1301785  91.1904716 112.7867204  85.3562929  29.8004982
 112.3006851  86.1023595  30.1517555 112.3288233  84.5890404  30.1438496
  72.8326243   7.5082070  22.4744484  73.1228941   7.7553231  21.5964291
  71.9150274   7.2598607  22.3622963  47.7100294   6.4273364  43.0059502
  47.0573633   5.9239966  42.5192234  47.9438132   5.8653218  43.7446854
  20.5352532  88.1008388  35.1755306  19.9968945  88.6714913  35.7239506
  19.9870526  87.3318221  35.0195572  32.4487626 107.6630356   7.4350235
  32.4402939 108.0715038   6.5694019  32.2710930 106.7379476   7.2650883
  92.8705692  54.3540573  90.7470512  92.7899551  53.5251617  91.2189293
  91.9685078  54.6055317  90.5488396  20.3011548  50.7426076   1.8984005
  19.4729744  51.2096836   2.0087788  20.0863492  50.0061841   1.3258812
  87.2088623  47.8131437  89.7863388  87.6764107  48.2374096  89.0668774
  86.3000584  48.0942774  89.6801949  95.5479240  67.3529387  83.7333775
  96.0731983  68.1140041  83.4862041  96.1369610  66.6074324  83.6172295
  18.1541192 100.1400186  23.6143086  17.2721230 100.5077888  23.6695740
  18.6487042 100.7797291  23.1020710  24.6637475  91.8243458  24.5326302
  23.7158238  91.7950274  24.6623203  24.9619137  90.9397151  24.7441837
  90.8922880   9.3123109   3.4775993  90.5577296   8.4159715   3.5071823
  90.1846617   9.8190600   3.0792210  89.2303562  17.7992213  84.6572113
  89.2064667  17.6618016  83.7102318  89.9169922  18.4533691  84.7870636
  11.6024624  71.4789988  37.6055214  11.9443833  71.2603106  36.7386314
  10.6748711  71.2466873  37.5627300   1.9694840  92.9794122  44.5092747
   2.6394402  93.4374978  45.0167629   1.5286576  93.6707880  44.0154049
  72.3976057   8.5355622   9.8080418  72.7455824   7.7167851  10.1612446
  72.9794615   8.7480456   9.0782902  10.9598671  85.0436498  11.1406109
  10.0227105  85.2099945  11.2421581  11.2412106  85.6620886  10.4663536
  64.3436432  43.0793810  92.0434856  64.9379635  43.0930424  92.7937031
  63.7014675  43.7631035  92.2341728  26.0265481  79.5820071  27.4290249
  26.0802208  79.4497778  26.4825222  26.6200959  78.9270474  27.7964088
  38.7884652 102.3919775   0.7458469  38.4121739 102.0000269  -0.0421932
  38.0361592 102.5556709   1.3145897  25.4044693   5.4766614   9.4607613
  25.2627247   6.4227206   9.4273827  26.0773867   5.3118522   8.8002655
  62.6278227  11.3041646  40.6951878  63.0567377  10.4494483  40.7366344
  61.9666308  11.2741238  41.3866779  84.2030334  67.9525328  89.5719624
  85.1145840  68.2402706  89.5218945  83.7511635  68.4714937  88.9065838
  50.2424942 103.4854461   3.0833790  50.7502877 103.6908676   3.8683483
  49.3672883 103.8260795   3.2683537  31.8341958 110.9002592  12.2645828
  31.2279450 110.3126194  11.8136093  31.2690102 111.4965393  12.7557537
  28.3859019  34.0879226  94.4987106  29.2919497  33.8150263  94.6430588
  28.3472209  34.3071818  93.5677624  11.9072854 107.4504186  43.7885925
  12.0249878 107.7721979  42.8948185  12.7904927 107.4394180  44.1574547
 112.0843506  53.5537481  59.8355818 111.6083336  54.3730593  59.9711037
 111.6993427  53.1814623  59.0422344  58.0929774   4.5338685  24.6791145
  57.9370993   5.2277953  25.3197453  58.3567637   3.7781483  25.2040264
  20.9846722 104.4312860  19.1901657  20.0489365 104.2499115  19.2781326
  21.0678898 105.3634502  19.3910954  90.0654810  84.7862596  93.9825916
  90.1192492  83.9016790  93.6208439  90.2406138  84.6739979  94.9169064
  80.8244246   6.0396964  20.9184715  80.4870241   5.5855519  21.6905758
  81.7706412   5.8991296  20.9523460  72.9472178  14.3549592  19.3526718
  72.8748530  13.9753157  18.4769604  72.3007696  15.0608260  19.3618748
   7.9059540  61.9549848   7.1777699   7.3380887  62.4067052   7.8020355
   7.8406083  61.0311385   7.4195740  41.2656437  53.0282305   5.3624317
  41.8097149  53.0210529   6.1499378  40.6433140  52.3130860   5.4947540
  99.1207218  37.4316001  96.7668629  98.2191944  37.3324442  96.4608479
  99.6577454  37.1835542  96.0143280   5.9978806 107.2400715  42.0756123
   5.0681721 107.4301960  42.2010395   6.4493119 107.8742840  42.6325771
  19.5565640  86.4872648   5.4448769  19.7636353  86.5443565   4.5120880
  19.6462475  85.5574252   5.6536552  65.5041617   7.8294808  16.5607235
  65.7546252   8.7527282  16.5273735  64.7443598   7.7663810  15.9819767
  29.0605610   6.6731650  11.4537308  29.0201157   6.0530288  10.7257053
  29.7944325   7.2485167  11.2377903  13.4432160 101.0670044   8.3298466
  12.7452790 100.5046846   7.9938290  14.1965138 100.8730509   7.7720329
  39.0996968  76.9888975  10.6813023  38.9382588  76.5413572  11.5118954
  39.5113312  77.8161885  10.9310505  40.1329535   7.6490266  26.1891624
  40.2552241   8.1309230  25.3712055  40.2003592   8.3159644  26.8724415
  31.8419743  74.1549015  70.0892973  31.9034338  74.0013123  71.0320902
  31.3309622  73.4159517  69.7590590  71.7334509  41.6510487  85.0475311
  71.6637516  42.5942230  84.8999023  70.8313799  41.3341713  85.0019073
  16.1451756  81.3640906  43.8528893  16.9031083  80.7919003  43.9727470
  15.8465230  81.5554001  44.7419521  66.7175692  33.7536294   0.8873150
  66.9538229  33.3000905   0.0781700  66.0137194  34.3495900   0.6311008
  68.8136118  11.6887099  15.9730217  69.4560164  12.1430976  16.5180752
  69.3138808  11.3858945  15.2152226 104.1849995  14.4477844  77.9621983
 104.5676231  14.3277752  77.0930433 104.4438839  15.3331876  78.2176828
  13.5371052  98.3255865  19.6181175  12.8251778  98.9637567  19.5720837
  13.2298123  97.6685812  20.2427361 115.2556038  23.7073278  58.4340763
 114.6508217  23.3688474  59.0943098 114.7915363  23.5954714  57.6043987
  16.1926114 102.8260566  24.7475788  16.7389046 103.4894802  24.3260738
  15.3608071 103.2701112  24.9123356  94.9701977  25.6231833  83.1422043
  95.8836365  25.6507778  83.4269810  94.6821594  24.7336745  83.3472538
 111.3709450  26.5255785  95.9798527 111.8154812  26.4191842  95.1388359
 111.9573593  27.0824265  96.4919662 102.8356552  31.6067624  91.0314560
 103.6738586  31.8445253  90.6350708 102.4721527  32.4370575  91.3391972
   6.1470942  75.0766516  70.0282240   6.3057761  75.9937143  70.2519417
   6.6940741  74.5829582  70.6392193   2.6696162  19.2885232  82.6470375
   2.6365618  19.9433792  81.9496822   2.2955947  18.5002828  82.2533131
 116.4125473  85.8582546  14.3815300 115.7536775  85.8618190  13.6871979
 116.3465435  86.7266132  14.7788116  68.0318182   1.6304023  18.6646435
  67.1682566   1.4416606  18.2974026  67.8485411   2.0218760  19.5186874
  37.8779541  83.4199764   7.9043934  37.4664818  84.2288067   8.2088921
  38.5400521  83.2238104   8.5672447 109.0526009  31.9266033  86.8757057
 109.2352486  32.7343178  87.3557758 108.2676125  31.5720940  87.2932529
  21.1877381 108.7330248   0.1347515  21.2985455 108.1080152   0.8512089
  20.9123360 109.5430519   0.5639908  99.5328236  28.4525943  83.1535530
 100.0810719  29.2220259  83.3072758  99.1898823  28.2262635  84.0180683
   2.7386431  27.7043986  91.0360146   2.7100711  26.9842172  90.4061317
   2.9699282  28.4715557  90.5123615  66.4058018   9.8346204  83.6400986
  66.4351463  10.4084027  82.8744984  67.2886658   9.4696474  83.6998653
  24.5751606 109.4917680  29.7755024  25.2886521 108.8542654  29.8029301
  24.8528611 110.1878072  30.3710148  87.8570574   9.4180590  11.2183830
  87.6664656  10.2937800  10.8822128  88.8075464   9.4063432  11.3309643
  68.5945719  14.6430451  20.7344029  69.2067927  15.2445180  21.1582539
  68.9150542  14.5691306  19.8354790  44.8057764   7.4323136   8.9580223
  45.0304526   7.5284106   9.8835060  44.7705763   8.3292872   8.6257050
  67.7920550   0.0587041  40.5704567  66.8573683  -0.0316327  40.7559750
  67.9851073   0.9779126  40.7548973  12.0134770  99.8841383   1.9731590
  11.7254197  98.9719488   1.9390652  12.0675313 100.0834657   2.9078075
  94.9581909  44.1584015  91.2988186  95.6127357  44.8170042  91.5312862
  94.5631123  44.4878626  90.4916096 111.0340977  40.0904083  85.7760620
 110.9906769  39.1578913  85.9876251 111.7654514  40.1630783  85.1628208
 116.6544277  95.2923776  24.7608158 117.2915823  94.7728183  25.2510426
 117.1370918  96.0752584  24.4955513 107.7037907  60.0673866  91.1216068
 108.3897209  60.1282597  91.7864513 107.6680183  59.1371536  90.8988476
  41.2147253  13.9820964  17.3115990  41.9695299  14.5657069  17.3884365
  40.5354565  14.5211417  16.9063255 116.0398579  35.7437611  73.7704277
 116.8099022  36.0259771  73.2768488 116.3775539  35.1011825  74.3943548
  16.6021000  78.3212616  -0.2009323  15.9754979  77.5977208  -0.2107265
  16.6687714  78.5678937   0.7215378 100.9942436  50.3100729  81.2438774
 100.1463318  49.8784304  81.1391544 100.9152222  50.7975006  82.0638752
  28.3076416  80.2265956  20.7998726  29.2132508  80.1595523  20.4971859
  27.7854573  79.8992850  20.0674603   9.7367608  75.4195251  13.7451717
  10.4975640  75.6512262  13.2125256   9.7801339  76.0123707  14.4954273
   6.2797581 110.4836561   4.4849369   6.9830643 109.8766233   4.2545006
   6.7249333 111.3151790   4.6481010   1.1135344  49.9807405  67.9903460
   0.3851275  49.4882154  68.3685970   1.8718295  49.4063282  68.0965614
 117.5671226  94.5697715  16.1707184 118.2289297  95.0335743  15.6577560
 118.0067617  93.7712838  16.4628956   1.8324219  90.2777125  15.8889267
   1.5274178  89.5903327  15.2967236   1.1411225  90.3511001  16.5469238
  38.5668885 111.4545204  11.0256359  38.7378060 110.5689384  10.7050583
  37.7362954 111.7005111  10.6184074 105.6509972  50.2509737  89.2021465
 105.0765419  49.4906092  89.2919922 105.0657654  50.9646606  88.9484119
   3.8181548  73.3889246  71.1380625   4.3642382  73.2209206  70.3700781
   2.9490714  73.0759907  70.8870697   7.1518742  64.2358233  12.4961350
   8.0378186  63.9572932  12.2642490   7.0476853  65.0849570  12.0667717
  47.0906197 100.8332302  38.2528088  46.3157021 100.2720882  38.2822392
  46.8038594 101.6583254  38.6442444  30.8336102  96.2493087   7.4072239
  30.2059399  95.7465889   6.8880627  31.4269578  95.5910064   7.7689144
  43.6709057  99.0121223  25.5537483  43.5680806  99.2885830  26.4643642
  42.7874695  98.7704660  25.2755901  76.2640875  12.2202355   6.5589878
  75.9163206  11.3784129   6.2646648  77.1783179  12.0387179   6.7768547
  85.9786337  20.1621920  22.5935146  85.4275816  19.3895633  22.7185032
  85.5212801  20.6776292  21.9291374   8.9779889  78.7202837   7.1980927
   9.1385209  79.6602084   7.1143887   9.5433175  78.4440567   7.9194328
  32.4174820 105.6071521   3.4593174  31.7778718 105.4205324   2.7720711
  32.4451958 104.8072578   3.9843246  38.7044465  92.7645399  53.1882546
  39.6484505  92.7803566  53.0306694  38.6144768  92.3961260  54.0671227
   5.0670277  84.4267823  15.6074020   5.6190812  85.1828720  15.8069012
   4.3572556  84.4727732  16.2479851  87.0013905  31.9017458  79.9853277
  87.2882843  31.5397882  80.8237267  87.6563072  32.5674438  79.7751665
  88.2432764  20.7270772  50.8031342  87.7448767  21.1240012  50.0887939
  88.7248438  20.0104482  50.3898880 102.2247046  27.8968388   5.2173683
 102.0875853  27.7588517   6.1545918 101.3969439  28.2626015   4.9054977
  78.6512869  20.4726559  14.9938843  79.1229552  21.0365063  15.6069347
  78.0269354  19.9947745  15.5398247 103.5624808  16.3575990  32.8626320
 103.4778517  17.2192818  32.4544975 104.5060557  16.2316758  32.9628346
  80.3064078  11.9560677  25.9481594  80.3992575  11.7503554  25.0179550
  81.0760039  12.4866778  26.1540958 114.6272659  59.6194887  86.6737747
 115.4665470  59.7298908  86.2269402 114.0411091  59.2740059  86.0005093
  48.3755701  31.8181569  10.3866264  47.7158278  32.0300443   9.7262642
  49.1420286  32.3324544  10.1330921  28.4280240 106.5748693  23.5683701
  28.8922249 105.9350349  23.0285904  27.9246365 107.0958091  22.9427120
  27.2687184  92.3823477  11.9216225  28.1689679  92.3675276  11.5967056
  27.2837292  93.0148150  12.6399490  99.5287228  41.7319632  62.3057747
 100.4233551  41.4152718  62.4305964  99.3509388  42.2603464  63.0838728
 100.5540848  67.2630930  59.3107748  99.7567654  67.0379972  59.7901964
 100.7580662  66.4776945  58.8030577  70.6219691   7.0725447  38.0976173
  69.8555773   6.5374381  37.8913567  71.3643282   6.5628726  37.7730152
 102.0754337  37.6062346  64.2156458 101.3331985  37.7641892  63.6322355
 101.7211342  37.0487928  64.9084377  44.3214833 110.8016636  40.8009121
  43.3804451 110.9481336  40.7048389  44.4293534 109.8569967  40.6904861
  55.6560915  18.6481530  16.2498447  54.9761599  18.6037738  15.5775616
  55.4257124  19.4157893  16.7731926  90.8597868   0.5474049   3.7944862
  90.5526846   0.3493840   2.9097721  90.7432764   1.4934165   3.8823196
  45.6622063 104.0425016  21.9849846  45.4888951 104.8680879  22.4373123
  44.9990880 104.0032007  21.2958023  42.7552067 106.1355449  14.1017696
  42.1453511 105.6484415  14.6558830  43.2389199 105.4599716  13.6265251
  63.6342096  97.6253986  62.8746605  64.1067839  97.6733780  63.7056875
  64.1739082  98.1261826  62.2629642  18.5684829  47.9633808  88.2471466
  19.1257434  48.0346823  89.0221310  18.9392905  47.2330046  87.7518845
  54.3118494  12.7798516  23.3677170  53.7632769  13.5605723  23.2916519
  54.1459196  12.4558551  24.2529938  66.4811707  41.3794661  92.2181034
  65.7008028  40.8615208  92.4155617  66.2890291  41.7902279  91.3751411
  91.5472126  63.7241888  94.3778419  92.0180607  64.4773340  94.0210438
  91.4663982  63.9131927  95.3127098   3.1579451  73.4238243  87.2007751
   2.5848346  74.1672897  87.3879433   2.6610999  72.6591825  87.4918079
 101.5153998  20.0172860   9.9649593 100.6622904  20.2774531   9.6174595
 102.0926779  20.0092322   9.2014668   4.3944298 103.9375402  37.1512386
   4.7466408 103.7693788  38.0252525   5.1492249 104.2316772  36.6413471
  20.1861529  46.0730553  87.0468235  20.5219416  45.3217030  87.5356579
  20.9630637  46.4676380  86.6506577  37.3040520 103.2362081  21.0949776
  37.4241005 104.1773607  20.9682819  37.2635018 103.1256677  22.0449135
  81.9887274  21.0502297   0.2402565  82.2578638  20.5780560  -0.5476883
  82.7952212  21.4479071   0.5683682 101.0612791   6.6919667  12.4310562
 101.9190138   6.9930751  12.7308151 101.2223929   5.8129079  12.0882389
  69.6944063  27.1700436  12.0866653  70.3877753  27.0835931  11.4324448
  69.1241377  27.8571946  11.7419025   4.6671443  62.5018311  91.3241482
   5.5502848  62.2970295  91.0169792   4.1400103  61.7488480  91.0569859
   3.7871777  84.2823030  32.4260399   3.7772881  84.4800188  31.4895317
   3.3298813  85.0191380  32.8312370  19.8558001  30.5601335  90.7646561
  19.3508010  31.2203836  90.2900219  20.0761180  29.9052238  90.1022530
 104.0048599  46.4168167  89.3210602 103.5532093  46.3003969  88.4851837
 103.8602257  47.3360300  89.5454693  61.8366068  17.4152810   3.9773342
  61.6057890  16.5279061   4.2521355  61.4325445  17.9821832   4.6342918
  80.0825804  53.1376702  26.9827148  80.1875036  53.7806660  26.2814495
  80.9729880  52.9758889  27.2945282  74.3307036   9.9016625   5.1285145
  74.4243353   9.3503720   4.3516323  73.9134711  10.7006413   4.8063538
  91.8758314   8.4246737  23.9165566  91.8932265   7.5909335  23.4466621
  91.0590571   8.4016187  24.4151375  47.9948633   6.4557034  25.0714466
  48.3970755   5.6875426  25.4768917  47.9780024   6.2517793  24.1363689
 112.9126453  67.6502228  90.1437569 113.2590961  66.8288755  90.4924488
 112.1911526  67.8745079  90.7314491 116.1643345 103.7691070  32.6583740
 117.0451004 104.1420938  32.6213810 116.0939295 103.4083559  33.5421917
  16.0794007  98.2670213  58.1838390  15.4956376  98.5278036  57.4714920
  16.7095124  98.9843513  58.2519123  52.1654259 103.9433862   8.2540104
  51.7834221 103.8122513   9.1218349  52.2564541 103.0601598   7.8964397
  15.3541123 100.4535104   6.6197273  15.7248627 101.1794903   6.1179993
  16.0970818 100.0925543   7.1033928  26.1374526  44.5257425  92.6671124
  25.9970145  44.0247154  93.4705257  25.8244567  45.4058886  92.8759193
   4.4043307  36.7552996  89.9384117   5.0461345  36.5559697  90.6200218
   3.5601668  36.7275047  90.3887844  38.8619267 111.3682605  35.7021687
  39.1879593 110.9088470  36.4760372  39.6200024 111.4255335  35.1205418
  13.3661799  92.3208523  86.4128876  12.6282935  91.7436790  86.6094303
  13.6490302  92.0581913  85.5369663  75.8440226   3.1936032  11.7031643
  75.0127142   3.3820302  12.1386692  75.6736773   3.3657367  10.7771084
  45.2335011 102.6565744  54.6891186  44.5263325 102.0907976  54.9990246
  45.9260975 102.5535871  55.3417465  60.5990809   4.2397982  22.5209782
  60.4172629   4.1655833  21.5841362  60.1450747   3.4938056  22.9129002
   0.1883100  12.0006615   9.5845005   1.0622571  12.3238665   9.3654415
  -0.3978374  12.4786002   8.9977810  93.2561814  88.8689377  32.5531361
  93.4747635  89.4681670  31.8394348  92.9168450  88.0884196  32.1151039
  96.4308834  58.6233950  90.1482773  96.7859745  59.4661760  90.4308796
  96.5066814  58.6393356  89.1942215  53.3118933  32.0146329  21.6256878
  52.4413508  32.2362191  21.9562790  53.1645125  31.2689263  21.0439369
  40.4857766 108.5849573   3.6853096  40.6339299 107.6649191   3.4666321
  39.5336472 108.6828996   3.6765644  85.0186842   2.5642068  27.3712704
  85.1955336   1.9608695  28.0930397  85.6764239   3.2528502  27.4681160
  23.7626683 104.3078090  16.4044163  23.2585560 103.7324812  16.9798348
  24.2359101 103.7114002  15.8242771  27.9082064  67.2170782  86.5084267
  28.2249217  67.9870033  86.0360432  27.5502543  66.6483355  85.8267879
  65.4213351   7.4128587   9.5767376  65.7858484   7.0555503   8.7669823
  65.6154936   8.3491904   9.5340988  40.8700406  88.3697464  30.9286186
  40.7235848  88.3355285  29.9833080  41.7110192  87.9309227  31.0567352
  50.6871050  18.8016373  29.8926804  50.7281035  19.3812138  29.1320011
  51.6010302  18.6773974  30.1486752  60.1842325   2.9699046   4.0143845
  59.5186060   3.6122996   3.7684032  60.8414572   3.0284840   3.3209488
  31.6967999 111.4399625  20.5237076  32.0569550 112.2103597  20.0843784
  31.7390763 110.7468940  19.8648426 108.9839458  63.3651257  85.8016014
 108.1883717  63.3918190  85.2700138 109.6765614  63.1291866  85.1844692
  28.8130795 110.1082088  11.4561531  27.8616082 110.0841428  11.5578625
  28.9645611 110.7622291  10.7738468 106.2201214  55.1697540  77.6632118
 105.9204483  56.0601187  77.8467274 106.9666290  55.2847147  77.0752144
  31.8122040  84.8392941  17.3451969  31.2657868  84.6940185  16.5728256
  31.2358319  84.6495177  18.0854675  47.3455733   0.4710061   1.1493752
  47.2188681  -0.4616349   1.3236115  47.0840185   0.9041602   1.9618961
  86.0017603  39.2010552  14.7384617  85.7376879  38.8555199  15.5911705
  86.9497507  39.3133504  14.8086807   1.6576134 107.9973842  20.8319733
   1.8888604 108.8207294  21.2619373   2.4985348 107.6075460  20.5930111
   8.9901196  81.6965296  42.2327110   9.9028622  81.7666985  42.5123760
   8.7674271  80.7758834  42.3707268 106.5533733  51.6181946  74.5043325
 107.3397541  51.8323755  75.0062895 106.7522907  50.7759333  74.0953588
  38.6190926  84.0182568  15.5177662  38.2494103  84.8752333  15.7302830
  37.8978096  83.4048106  15.6580421 113.5309029  32.5515509  85.7616520
 114.4713879  32.4569678  85.9125805 113.1251431  32.2169375  86.5614128
  44.1690861  79.5249988  12.6816914  44.8402821  79.5913912  13.3609077
  44.5939385  79.8590233  11.8916580  43.8889139   8.7422282  12.0412037
  43.3321303   8.8969809  11.2781403  43.2863825   8.4367616  12.7193520
   9.6770053  59.8248768  89.0044689   9.6746306  60.5824566  89.5895290
   8.7604766  59.5520878  88.9621067 110.1455324  35.5576855  24.6707603
 109.4244307  35.2939278  24.0992043 109.8942869  35.2368981  25.5368969
  37.4200695  36.1672170   0.5527565  37.9009455  36.5787370   1.2708447
  37.4014538  36.8324239  -0.1352623  11.9690852  31.0162330  91.7173862
  12.3506884  30.5357361  92.4520493  11.0363059  31.0704136  91.9252682
  78.2032698   9.5495803  23.8892242  77.4749773  10.0423247  24.2674229
  78.9025801   9.6190888  24.5391247 113.8715380   7.9078681  22.6372692
 114.3926638   7.1893889  22.9956600 113.3359068   8.2053000  23.3727047
  40.7666527 102.0792820   2.7890083  40.1763283 102.1276571   2.0370743
  40.9956681 101.1521913   2.8544685  33.7777840 101.6598608  30.5037663
  34.0286767 100.7444812  30.6277344  32.8812062 101.6195060  30.1709625
   4.4230418  78.5445881  90.1863194   4.2646937  77.7667618  90.7212353
   3.5994391  79.0310860  90.2213383 112.6961517  47.5640345  87.8194141
 112.5140953  48.5032415  87.7880764 112.4988365  47.3117828  88.7214470
  64.9939745   3.7676532  25.2072498  64.1064471   4.1249282  25.1775238
  65.3699511   4.1268212  26.0109112 100.4633236  45.1314688  89.5189953
  99.6102810  45.0255728  89.0978718 101.0292339  45.4790115  88.8296604
  91.9480723  24.9988610   4.0713856  92.3801153  25.1367814   3.2284424
  91.8621462  25.8767945   4.4429657  90.7333374  50.8616114  89.9914837
  90.0653744  51.1026764  89.3496609  91.3001633  50.2455282  89.5273876
  39.4218003  88.0024387  34.7916100  38.6202847  88.3994271  34.4507191
  39.1158329  87.3258664  35.3956482 111.8264008  73.5414743  86.1275101
 112.2756290  73.0053997  85.4740238 112.0445919  74.4424915  85.8892059
  64.6569001  98.8186409  16.1736652  65.4237687  98.7728883  15.6026623
  64.7587716  98.0779411  16.7713425  15.6138646 106.7233659  20.1750156
  15.0170552 107.4518301  20.0035450  15.9927498 106.5178825  19.3203518
  51.4937150 105.4218246   1.7845223  50.9425770 106.0973884   2.1796104
  51.2449872 104.6153881   2.2362206  88.9926737  47.1651799  14.7838280
  88.3102625  46.6292817  15.1879952  89.7871416  46.9497353  15.2723476
  87.9316157  17.1683413  22.8741428  88.6654871  17.6371438  23.2714817
  87.1643751  17.6993281  23.0877468 114.4550627  16.6960818  14.3455193
 115.2917975  16.7803962  13.8883469 114.5715445  15.9399039  14.9207279
  24.9863404  12.0397336  35.4518482  24.5938128  11.1720378  35.5480549
  25.5019491  11.9815118  34.6474907  48.1977498  90.5402185  17.8102371
  47.2613369  90.3424765  17.8261349  48.6027371  89.7525789  17.4471447
  20.8769278 105.0001335  75.8357191  20.6522136 104.1443348  75.4705572
  21.0440116 104.8287106  76.7624998  68.8603228   2.0583588   6.9484589
  69.3002241   1.3778550   6.4389202  68.5718458   2.6970059   6.2964317
  43.4560030  13.2212455  50.7775280  43.1180781  13.9031941  50.1970169
  43.0160826  12.4215514  50.4890987  97.8864098  77.1523046  73.1339884
  97.8127384  77.2774553  72.1878719  98.8031387  77.3452759  73.3304501
  67.0398825  11.9595534  23.5705826  67.6905649  11.2654025  23.6754486
  67.5356787  12.7026326  23.2267067 100.8008116   5.0890166  28.5593483
 100.8516043   4.7658831  27.6597759 100.9622019   6.0296161  28.4854481
 118.0907184  36.2257363  41.9203636 117.5021822  36.1504556  41.1692402
 118.8245947  36.7490114  41.5981266  46.5744305   9.3352073  82.4597549
  46.4486361  10.2281964  82.7806568  45.7107019   8.9296329  82.5353622
  85.8928490  33.8486814  82.6648235  85.8385754  32.8996730  82.7773857
  86.6654015  34.1057754  83.1681061  87.7108366  53.9860714  27.5542995
  87.6239378  53.2621037  26.9341728  87.4398739  54.7592496  27.0593140
  73.9434290  37.7265310  92.8896904  74.0762901  38.1252265  92.0296764
  73.9015007  36.7865252  92.7140045 107.8996212  66.9991996   6.1727593
 108.0916292  66.4764919   5.3942081 108.1497032  67.8907766   5.9303162
  80.0970632 102.1046879   4.8450729  79.5212442 102.4042465   4.1415569
  80.0713379 102.8095724   5.4921505  59.1087866   3.2619989  91.8288231
  59.5345306   3.8695329  91.2239456  58.4278631   3.7841433  92.2530174
  76.5370512   6.7533261  69.4209051  77.1416140   6.2720072  68.8560438
  75.9650755   6.0796458  69.7886419 113.6331738  96.9196923  40.4019165
 113.6528505  96.2101931  41.0441446 113.6977781  96.4781077  39.5551229
  84.1998482  28.1716228  75.3840065  83.8673115  28.6329389  74.6140480
  84.5308304  28.8653541  75.9544611  11.4561402  68.7493779  22.1514008
  10.7868611  68.6798443  22.8321812  11.2317978  69.5491828  21.6757748
  58.0042094 102.7072443  73.3018494  58.7289637 102.9664851  73.8708496
  58.3626097 102.7648891  72.4161530  32.4014204  93.2284338  76.1980534
  31.7005461  92.6505227  76.4997530  33.2028883  92.8307373  76.5382338
  77.3215216  98.6563856  93.6705112  77.4460428  99.5121498  94.0808678
  78.0594748  98.5705311  93.0669403  81.8957155  81.2391968  70.0886822
  81.3833540  80.4345317  70.1676559  81.8215197  81.6556306  70.9473467
  50.8239477  91.8557293  57.7642012  50.1786440  91.8419440  58.4710407
  50.3117960  91.7066879  56.9693851 109.9394703  37.2198796  90.6754684
 109.6779633  37.2218037  89.7546864 109.6065331  36.3900900  91.0172749
  84.5213699  13.4011340  90.7086372  84.8998260  14.2295265  90.4140663
  84.0339851  13.6286044  91.5004349  25.6523627 101.1337907  75.2412748
  26.5665501 101.3573677  75.0666094  25.6940907 100.2915091  75.6941032
  16.9091927  78.6613061  16.6869995  16.0998570  78.1638219  16.5698692
  17.2493493  78.7776329  15.7998726  48.3999382  46.4763744   3.2370636
  47.6780354  46.3348092   3.8494751  47.9749810  46.5793307   2.3855660
   1.1660182  71.3034417  35.1371738   0.3904425  70.9049930  35.5320904
   1.8780743  71.0907306  35.7404587   1.8286740  95.7377698   1.7430279
   1.0672270  95.9787132   2.2706291   1.5194069  95.7892563   0.8386299
  55.0415087   9.1173136  71.2541771  54.1818571   9.4917369  71.0617208
  54.8514795   8.3344108  71.7710781 103.4583378   5.8174390  81.5722942
 104.2707729   5.9059274  81.0739422 103.5916615   6.3639826  82.3467255
 106.0710716  17.0412576  94.2187023 106.4405155  16.2395597  94.5888615
 105.4425049  16.7355990  93.5647106  26.3908421  38.4970094   0.9095737
  26.7353379  39.3326761   0.5945942  26.9498574  38.2725956   1.6534588
   0.3170096  66.2735464   7.8250763  -0.3471340  66.8617202   8.1845066
   0.7424008  66.7847873   7.1366665   7.1756016  69.7382511  22.3097012
   6.9266831  70.5367877  22.7751133   6.3667714  69.2289461  22.2583553
  63.7369936  95.3938420  72.5033188  64.4789141  94.8909802  72.8393412
  63.0144614  94.7665341  72.4775887 112.4543602  86.3334204  20.2923939
 112.1930534  86.7029096  19.4489357 112.2708637  85.3975012  20.2110645
  28.8653885  60.4049631   6.3126919  28.3656537  61.2195785   6.2589237
  28.2000290  59.7181226   6.3547489  21.4230095  55.0592308   2.3830006
  21.5240513  55.1655667   3.3289024  21.4711987  54.1137345   2.2417709
  30.1380127 107.7554999  88.3527184  31.0196036 107.8034855  87.9829502
  29.5602339 107.9856111  87.6250839  67.9131621 101.4299889  82.1223736
  67.3947638 101.6363914  82.9001236  68.6948221 100.9956903  82.4638557
  37.8715264  47.8503300   1.0799953  38.6385285  47.3321320   0.8362362
  37.2324978  47.2048386   1.3820049 116.3787634  60.0915100   7.4792740
 117.1792061  60.4497142   7.8629562 116.6866667  59.4774912   6.8126366
 103.1607038  62.6945938  10.7439968 102.4214250  62.0930924  10.8328507
 102.9876024  63.1683292   9.9304649  15.1015984  86.1746599  59.8405335
  15.8342682  86.3406445  59.2473385  15.3189312  85.3436352  60.2629063
  14.0904747  53.6170246   3.6155579  15.0457131  53.6419949   3.6715290
  13.8385808  54.5187323   3.4163067  23.2450932 109.8391823  59.4804668
  22.6227253 109.4285251  60.0806761  23.0155199 110.7683122  59.4961548
  86.3900948  38.1485963  90.0359726  85.5862808  38.0425477  89.5271778
  87.0712757  37.7516770  89.4931412  87.8357506  25.7028008  82.8565598
  87.5479889  25.7253623  83.7691975  88.7734890  25.8906865  82.8963757
  24.8085438  80.3337671   0.1123592  24.7014843  79.5297386   0.6206009
  24.7023713  81.0375954   0.7523510 102.8998566  38.5998297  76.5116310
 103.3265591  38.0400276  75.8629608 102.4801540  39.2878580  75.9952021
  68.8568609  98.1542952  88.9002800  68.8347357  99.0203376  89.3073559
  67.9359358  97.9220338  88.7811661  45.9869593  99.2947693  87.3377800
  45.6425970  98.8781340  88.1277561  45.7346648 100.2142258  87.4225140
  99.4147903  35.9431221  55.6102058  98.8071663  35.8667947  54.8745415
  98.9477474  35.5514433  56.3482353  58.3847445  95.4074199  84.4932556
  57.8682631  96.1663670  84.2221832  59.2863100  95.7279916  84.5187855
  29.0009629  37.4810304  18.5945580  28.6443268  36.6209962  18.3723328
  29.4511830  37.7663495  17.7994988  97.7642853  69.5296599   8.2188866
  97.5408441  69.7262682   7.3091290  96.9212753  69.3711688   8.6436817
  40.6166302  46.5319617   4.2429230  41.0432278  46.9376578   3.4881661
  40.0227963  45.8844675   3.8629887  90.6064129  24.0730643  90.7593536
  89.7389603  24.1035342  91.1628914  90.6643772  24.8842835  90.2545834
  69.5862215  98.0890520  55.9117794  68.9132136  98.7664230  55.8449459
  70.3328055  98.5321422  56.3148975 107.9807073 101.5101673  14.7053597
 108.5061914 100.9453298  15.2719757 108.5766584 102.2143509  14.4500229
  65.8143950  27.6597452  76.0680485  65.0766087  27.9716516  76.5920925
  66.0635233  28.4132171  75.5328465  30.3100239  82.3077704  17.6354382
  29.8199021  82.5323416  18.4263680  29.8357998  82.7442886  16.9277641
 106.3571548   0.2218060  83.5456371 106.2037182   0.8585862  82.8476429
 105.6502628   0.3778882  84.1718864 110.7434875  75.6792988  12.6702950
 110.0132353  75.3282084  13.1799004 110.4683096  75.5815126  11.7587254
  79.5624750 102.8318889  67.7165413  79.9061125 103.6184032  68.1402636
  78.6262053 102.8423734  67.9153299   3.3113038  77.1029402  15.0346157
   2.9966294  76.3025977  14.6143028   2.7399193  77.2150733  15.7943317
  67.3890972  31.3600159  79.8058605  67.5376177  30.4618669  79.5100546
  68.2658100  31.7036843  79.9776173  15.7321202 107.7786829  13.9913151
  15.2459847 107.9656269  14.7944042  15.4419743 108.4501363  13.3739063
  97.5172901  27.1658015  95.3105068  97.6307201  26.6214418  96.0896301
  98.1780720  26.8456984  94.6963978  46.4950388 106.3955850  94.3429470
  46.6567724 107.1834446  93.8239574  47.3332613 105.9334041  94.3442917
 108.0556328  63.1600590  25.7273171 107.6655275  64.0317358  25.7923386
 108.9036686  63.3077975  25.3086922  14.2160528   2.7592761   3.0427143
  14.7771662   2.2934825   3.6627361  14.1426104   3.6429269   3.4032700
 101.1498451  61.8119717  89.8739338 100.9149551  62.5275850  90.4646587
 100.3192711  61.3756990  89.6840763  44.6682488  57.5364751  14.5400593
  44.7238480  57.1106456  15.3955242  44.9339234  58.4411331  14.7051212
  85.5902672  31.4302540  92.4911785  85.8355522  30.9477448  93.2806396
  85.8735085  32.3285294  92.6617908  19.2884320  85.2950687  95.5273247
  20.2248638  85.4588361  95.6391621  19.0820187  84.6282072  96.1822414
  14.6106850  77.2246744  11.8548653  14.5657002  77.9083850  11.1864731
  15.2687966  77.5388052  12.4749062  47.0039654  20.4866910  37.5629902
  47.7303886  20.3787470  36.9490767  47.2473907  19.9517667  38.3185244
  33.8978325  70.2253153   7.4061176  34.1707264  71.1322655   7.5446865
  34.6456086  69.8137154   6.9729301  13.4087121  55.6859339  17.8841946
  14.0489041  55.1091132  18.3009312  13.2857071  56.3993140  18.5104534
 111.1284048  87.7790167  28.1407997 110.3826124  88.3435489  27.9374954
 111.3121731  87.9484393  29.0647862  38.1298273  87.4532766  72.9276466
  37.7648180  87.2492666  73.7886810  38.0920237  86.6251273  72.4491405
  15.2405774  74.4481625  25.4575035  15.4703270  75.2864958  25.8583042
  14.2835366  74.4328870  25.4660675  43.5365504 101.1289306  95.1873207
  43.6242979 101.1902494  96.1385155  44.0317076 100.3445251  94.9511909
  19.0075337  44.4516422  21.2198898  19.3704163  44.2349936  20.3610489
  19.5601307  45.1644267  21.5405247  23.7929934 109.8766784  71.9111872
  24.5150107 109.3942724  71.5084362  24.2175120 110.5925000  72.3840666
  25.1051365  86.5373518  20.4686996  24.8014676  87.4236013  20.2722809
  25.0970875  86.0885383  19.6232769 110.3073532  74.5803405  18.2890770
 110.6281358  74.5689525  19.1908524 109.6315796  75.2582277  18.2837936
  15.0537335  60.1736440  10.9631989  15.7408272  59.5917975  10.6382534
  15.5187642  60.8204074  11.4939377 101.5915871  40.8749962  72.1925640
 100.6829357  40.7490015  71.9192171 102.1064949  40.4064798  71.5356064
  27.2831696 103.1076808  80.1288414  26.7694395 102.9012514  79.3480110
  27.8321331 102.3355265  80.2654076  92.4394894  23.1308365  82.2681999
  92.9548645  23.5683584  81.5905666  91.6174698  22.9027343  81.8340588
  16.9448029  63.6905886   2.4915859  16.5744435  63.9210107   3.3436272
  17.8766953  63.8936301   2.5726769  48.1789034 105.1210822  81.2237549
  48.1759566 104.4130440  81.8678856  47.2877043 105.1309765  80.8746243
 112.2315598  20.5674791  92.7778530 111.3744354  20.9537005  92.9578876
 112.3956108  19.9903214  93.5236454  21.4672505  92.9787494  19.0311214
  21.5569245  93.2455255  18.1162331  20.5998265  93.2915761  19.2879078
  95.6585676  98.1566955  20.2929375  95.1409370  98.3164121  19.5037720
  95.8154184  99.0279915  20.6569073  59.0870779  95.7121963  64.0098619
  58.8172262  95.8633561  64.9157095  59.2641180  96.5868182  63.6635637
  96.6869164  29.7167754  94.6466637  96.9045830  29.7709560  93.7161064
  97.0055676  28.8557410  94.9174309  48.1020676  87.5017692  11.6966984
  47.8371846  86.6374923  11.3819096  47.6196515  87.6166774  12.5154278
  80.4778004  18.3288908  88.6532974  79.7236776  18.8254058  88.3354759
  80.1447296  17.8450608  89.4090748  57.2915285 110.6308816  86.3293934
  57.3064535 110.7240920  85.3768635  56.5079802 110.1105108  86.5068817
  99.5062160  24.7123313  88.6736107  98.8427734  25.2983832  88.3094406
  99.3678761  24.7525501  89.6199036  39.3049288  35.4556990  78.7335539
  39.7169638  35.1707029  77.9179382  39.5680404  34.7980428  79.3773651
 101.6966057  21.4322567  83.0048370 100.8086300  21.1284614  82.8165913
 101.9976521  21.8170190  82.1817017   2.2087609  76.4513137  19.7893974
   2.2022664  76.0311486  18.9293644   1.6681515  77.2333409  19.6779892
 113.5863876   3.2143605  91.4859962 113.3307076   3.8488111  92.1555710
 113.0413818   2.4474424  91.6621685   0.3340869   4.4332990  93.9333916
  -0.0680108   3.7588024  94.4807434   1.2222628   4.1141084  93.7736797
  29.6378964 109.0520326  65.0718784  28.7434881 108.7648733  65.2557373
  29.5317429 109.8688957  64.5843363  25.6005703  56.9552415   1.0101006
  26.0439908  57.4730359   0.3381607  24.9579846  57.5548464   1.3893005
  97.2523624  38.9268519  42.1500656  96.6643507  38.6329498  41.4542934
  97.2839243  38.1924226  42.7631256 116.4889843  80.0682189  36.6287109
 117.3346979  79.8256327  37.0057365 115.8465034  79.7836138  37.2786686
  15.8145176  89.0098550  27.2311756  16.1154686  88.6671473  28.0727264
  15.0883805  89.5918061  27.4554131 102.3470592  33.4473610  93.4063911
 101.4970589  33.7847829  93.6890316 102.9476261  33.6906552  94.1109276
  32.9921931  97.0755072  82.3432922  32.4849957  97.4259300  83.0755424
  32.5601929  96.2493462  82.1263409  16.2999015  18.0237150  82.6597118
  16.9162326  17.2915876  82.6408958  16.7746501  18.7250531  83.1057739
  17.3995053  81.9882991  14.8216793  17.3770367  82.9446985  14.8537228
  18.2300889  81.7542268  15.2358982  28.7702309  74.1017510  18.6125633
  29.2997395  73.3044388  18.6248180  28.8099514  74.4017090  17.7044460
 103.7361032 108.5805179  50.3676388 102.9097540 108.8657285  49.9777195
 103.7633211 107.6371385  50.2078793  64.4848841   5.6875855   3.4343884
  64.8815649   4.8220593   3.3356735  65.0494784   6.2692792   2.9253647
  84.1428107 109.7975204  92.7187347  83.3593958 109.4200854  92.3186684
  84.8211306 109.7062814  92.0495701  20.6691508  20.4498744  68.4342957
  21.5266471  20.7917237  68.1811857  20.7193236  19.5129836  68.2446861
  95.1912498  35.2511573  75.0384474  94.2524433  35.1006413  74.9278784
  95.3243256  36.1547375  74.7519779  22.0926909   4.7076601  76.8950033
  22.9533248   4.6368909  76.4820480  22.2762446   4.6978208  77.8343868
  19.7886120  60.9198894  24.7082684  19.1035973  61.4637508  25.0971100
  19.7877633  60.1206656  25.2350304  99.4541168  63.4770441  85.3910637
  98.5363388  63.2071781  85.3582478  99.8975945  62.8932142  84.7756767
  55.1046580   8.0964333   7.3777840  55.1339548   8.4614379   8.2621738
  54.1820544   7.8839261   7.2368214  99.3503380  27.6749635  85.6654644
  99.2771244  27.1527386  86.4643097  99.6125031  28.5436058  85.9703541
  19.9070298  74.7318567   3.6247131  19.6203553  73.8237693   3.7217876
  20.1223408  74.8170675   2.6959488  94.1854954  36.5227890  94.9462318
  94.8466778  36.7945957  94.3096924  94.4425488  36.9578385  95.7591724
  59.5542067   6.2525327   0.1173374  60.1801890   6.4761693   0.8060810
  59.8429888   6.7583854  -0.6422451  14.5019185 108.6967470   8.1990025
  13.9284455 109.4442846   8.0300209  15.3686177 109.0832426   8.3242008
  85.3090399  13.7900264  15.6752464  84.9870795  14.4400698  15.0507328
  85.6230753  13.0688531  15.1297924  47.4755478   4.8236528  90.1658726
  47.8108931   5.0644624  91.0294628  47.5914860   3.8746068  90.1200199
  78.1794470 111.3611807  76.6939831  78.0320566 110.4193215  76.7800522
  77.3163336 111.7209748  76.4894819  88.7466240  45.6423616  93.6867809
  89.4204140  46.0502005  93.1428051  89.2357922  45.1778603  94.3658829
   8.1185376 108.3578254  12.2285530   8.1025445 107.4039604  12.1503422
   7.4751126 108.6614706  11.5882179  22.9998337 101.6313411  17.9240772
  22.8771817 100.7815315  17.5009701  23.5019909 101.4348795  18.7149403
  10.5494439  75.8448722   7.1056816  10.9224640  75.4033627   6.3426849
   9.8512875  75.2612127   7.4025700  88.6987305   8.6435825  57.2344208
  88.4231281   8.6701709  58.1507015  87.8823566   8.6939347  56.7371988
   7.5060706  26.9935465  65.4798412   7.1392112  26.1102057  65.4429722
   6.9974284  27.4359608  66.1593866 103.0299377  39.6525240  92.6443291
 103.8884926  39.4973946  92.2505665 103.2212830  40.1070356  93.4647179
  34.8369729  55.2638950  15.3011486  34.8684155  54.3145262  15.4192230
  35.7543026  55.5370642  15.3115437  92.7789497  41.0448599  92.9674053
  92.7866745  40.0996542  92.8165436  91.8863487  41.2339163  93.2568264
 113.4717447  81.5420629  25.5671665 113.8636810  82.2694899  25.0839779
 113.3133442  80.8711340  24.9030849   4.4959580  94.2344166  25.4610893
   4.3200814  94.5661523  26.3415787   4.8873078  93.3725788  25.6035969
 103.7493038  56.2721300  56.3657141 104.0042019  57.1832180  56.2201881
 104.2436600  56.0060215  57.1409798   6.1335408  73.1904389   3.8032124
   5.2966820  73.5915531   3.5686752   6.1275517  72.3445119   3.3553288
  12.0077645  92.8665783   1.0426876  11.6974770  92.0952059   0.5684063
  12.1211087  92.5641729   1.9437668 106.1472225  30.5237675  92.6432896
 105.8626747  30.9466100  93.4535122 106.0744762  29.5865774  92.8238869
  90.1225376  17.3757339  73.7389088  89.2882824  17.2611451  73.2838011
  90.7124424  16.7497349  73.3189392  21.5408455  56.7601537   0.2239964
  22.4572884  56.9108778  -0.0076035  21.5623700  55.9985406   0.8034012
   0.2067714  39.7149134  91.0040092   0.8553557  39.2364240  90.4876614
   0.0679450  39.1699815  91.7786121 104.8615170  18.2002747  82.8958702
 104.1142559  17.9957342  82.3337460 104.5218468  18.1140757  83.7866211
  79.8586464  23.1183362  52.4724245  79.9472427  23.8300371  51.8384981
  80.5990887  23.2343769  53.0678368  75.8441830  31.1520696  95.3410244
  75.4889488  31.0316634  96.2216759  75.0834990  31.3745046  94.8042583
 108.8480598  82.5743629  36.8599197 108.2669193  82.0317651  37.3929188
 109.1509706  83.2587029  37.4567101  90.0363237  58.6068593   9.1282246
  90.7465011  58.1060641   8.7268803  89.2820055  58.4502255   8.5601589
  40.0364434  79.0894987  20.3766224  39.3281304  78.5700418  19.9962494
  39.6921002  79.9822737  20.4013607  24.4447743  70.0622393   0.5685303
  24.1029965  69.2992260   0.1024506  23.9059769  70.7914747   0.2617046
  49.2867106 107.9814247  87.3053074  48.7700480 107.7342315  88.0722427
  48.7109869 108.5596673  86.8049049  92.6879025   7.3610246  92.7615643
  93.0397129   8.2337874  92.5862217  93.3884144   6.7634237  92.5000381
   7.8633248  84.9918391  12.9096577   7.1812951  84.3301846  12.7943966
   8.0880486  84.9448110  13.8389179  26.8805365  45.4276800  58.6895609
  27.4658923  45.0461054  58.0353546  26.0742526  44.9169922  58.6164474
  19.0932976  78.5789301   1.8794415  18.8652741  78.1140401   2.6844952
  18.7744462  78.0121614   1.1770603 107.1571064   6.9356602  74.9343252
 107.0048428   7.8660643  74.7688150 108.1100368   6.8452901  74.9347878
  75.7112425   3.2539374   5.0212357  75.2919501   2.4782187   5.3936359
  75.3535097   3.3177287   4.1356918  75.2216959  12.8297651  76.8391418
  75.2719307  12.0310128  77.3642159  74.5985413  13.3853769  77.3073387
  86.5803146  14.5862031  68.7685299  86.5725327  14.2249739  67.8821421
  85.9158039  14.0823066  69.2383623   3.1372677  80.5684950   6.7489407
   3.1018483  79.6126105   6.7134449   2.4441849  80.8560850   6.1546585
  99.3541718   2.7887559  79.9892473  98.8426495   2.9369956  79.1938782
  99.6136379   3.6650306  80.2739429  17.2172772  93.2125713   0.4418156
  16.7081105  93.9502432   0.1059410  17.3326050  93.4050705   1.3723442
  53.1922852  53.9657551  17.3650620  53.8426816  54.6352036  17.5773403
  53.1838643  53.3892067  18.1290981 111.2819576  13.4436309  92.2205734
 111.6181469  12.5491822  92.2768593 111.3173676  13.6545348  91.2875652
  34.2417561 109.0297510  17.1193478  33.9356457 109.9344494  17.0557091
  34.8637425 109.0379717  17.8468773  23.4550398 111.2207158  68.9367199
  22.6572150 111.6594341  69.2320681  23.7639874 110.7421171  69.7059584
  88.8151836   7.1631622  51.1477709  87.9823971   6.9758928  50.7146025
  88.6250973   7.0728028  52.0815468  10.7274949  84.3957998   6.2606499
  10.2525937  84.0384294   7.0109722  11.6166531  84.5376779   6.5854618
  34.2248570  78.2042958  12.2016594  34.4446694  77.9193546  11.3146851
  34.9257599  78.8115575  12.4387428  69.3715000  18.9575696  96.0123539
  68.5866690  18.5486817  96.3771629  69.9777508  18.2300961  95.8727932
  85.7561493  41.0626316  89.7776031  84.8035622  41.1564350  89.7800922
  85.9171772  40.2673340  89.2698574  97.7515697  14.1653991  88.4015751
  97.9176235  15.0783682  88.6364079  96.7973232  14.0922797  88.3843136
   4.6219574 109.8242332  19.0754578   4.8399006 110.6956960  19.4060394
   3.7210022 109.6772529  19.3634007  77.0281363   5.7111877  74.2605543
  77.6974010   5.0269151  74.2512035  77.2304296   6.2544912  73.4988880
  71.8918848  20.5962324  86.6912079  72.6724815  20.6748486  87.2395897
  72.1415186  19.9753249  86.0068130 105.7303333   3.5867754  96.2774754
 106.3312626   3.6894935  95.5395317 104.9092770   3.9735729  95.9733772
 106.4082653  68.3214022   8.9520142 106.0127861  67.8224184   9.6667454
 106.9805938  67.6942195   8.5100719  50.7319962 106.7229749   8.0892441
  49.7833191 106.5991594   8.0590603  51.0907589 105.8366777   8.0445168
   9.3157058  13.0188549  54.9702597   9.1269831  12.2487009  54.4340897
   9.1755729  12.7243650  55.8701849 100.2700329   0.1968329  79.7493410
 101.1880875   0.4425937  79.8633766  99.7833824   1.0036870  79.9178457
  15.4121243  50.0337871   1.8893978  16.3138424  50.3134342   2.0472977
  15.1216923  50.5679174   1.1500904  22.9178177  95.9516479   7.3669216
  22.9090821  96.7046167   6.7759964  22.4443470  96.2508537   8.1431458
  31.0081343  33.2163191  80.8376312  30.8077388  32.9045486  79.9550962
  31.0918669  32.4187064  81.3601589 112.2363758  31.4441681  83.7001038
 112.4156952  32.1738720  83.1071377 112.5264931  31.7554402  84.5575237
  12.3370682  96.4438965   7.1998665  12.5011765  95.5785157   6.8251392
  12.1323716  96.2720014   8.1189892 104.0678293  64.6609809   0.5341503
 103.6596615  64.6801861  -0.3314522 104.6220333  63.8806619   0.5203602
  38.3760010  82.7288224   5.1561138  38.3338677  82.7551796   6.1120197
  37.6464879  83.2780077   4.8689816   2.0255141  43.7569046  61.0350370
   2.5591330  44.5503092  61.0796785   1.2869792  43.9961624  60.4750729
  36.5003430  49.6809484  11.4715550  36.0451352  49.8886062  10.6555340
  36.0013043  48.9550980  11.8461773  79.3257141  25.6618500  95.6833267
  79.4986820  25.8583450  94.7626114  79.2249584  24.7103500  95.7103348
  34.0135037  69.2346324  14.8100254  33.4617268  69.9604096  14.5184395
  33.5323845  68.8466074  15.5409119  27.8279435 107.3015119  26.1539433
  28.0301033 106.8976499  25.3099892  28.6832081 107.4878313  26.5412972
 109.9938661  83.4605409  31.1159393 109.5801098  83.1192614  31.9087669
 109.6774227  84.3614699  31.0494396  12.0661484  76.5707256  12.4744389
  12.8913723  76.7427828  12.0209667  12.1473633  77.0388152  13.3054134
  96.7849731   5.8552456  74.1092157  96.3725662   5.4851449  73.3287144
  97.4981499   5.2502000  74.3130159 111.0983467  60.1811743  86.2905979
 111.7104340  60.9025717  86.1451340 111.1964130  59.6244144  85.5181789
  83.0567360  43.4541416  90.7381344  82.1705437  43.6330795  91.0525608
  83.6164761  44.0302515  91.2587261  11.6884076  83.3753182  26.8193790
  11.2899815  83.3273007  25.9503719  12.6214825  83.5031797  26.6483376
 106.5864372  22.0834804  71.0017967 106.9295883  21.5234351  71.6980886
 105.6880188  21.7800903  70.8712864 104.2019922  96.0330679  20.6895897
 103.9701254  95.3029801  21.2635586 104.1614324  96.8044140  21.2549374
  96.2694454  24.1712070  93.8855457  95.7089138  23.7039733  94.5050049
  95.9070015  25.0566196  93.8553143 118.1214905  27.1015191  87.2156715
 117.3469067  26.5519953  87.0962429 118.8216019  26.4851618  87.4305630
 108.1337166  16.0336673  92.2841644 108.5881329  16.6579068  91.7184162
 107.2447014  16.3806629  92.3581982  66.3621634  98.4466751  73.5697651
  66.9611853  99.1912706  73.5151863  66.1634463  98.2318337  72.6584005
  97.5746536  25.7382035  84.3607616  97.0953274  26.5142226  84.6510506
  98.4241009  25.8042598  84.7970009  10.4762893  13.7305140  79.4342947
  10.0360827  14.3410826  80.0256062   9.7949557  13.1067598  79.1834164
  86.4583969  51.6114998  87.2673702  86.3237095  50.8005238  87.7576923
  87.4058914  51.7465019  87.2833633 118.2474518  13.3236718  77.8313875
 117.9389286  13.9304161  77.1584082 117.5597382  12.6604009  77.8893423
  97.8095913  32.3257399  95.1640224  96.8972778  32.5459647  95.3522491
  97.8119659  31.3729453  95.0723267 115.9306431  44.3652439  55.6765461
 116.8465424  44.1742706  55.4743433 115.4464722  43.6198997  55.3211975
 104.5993519  28.6243057  76.2490082 104.1588116  29.4735932  76.2196684
 103.9539528  28.0329537  76.6362953 102.5477600   3.1890264  82.8133869
 102.7419090   4.1247296  82.7586269 102.5415325   2.8920528  81.9034481
   7.6983582  94.8606374   5.5705139   7.6035534  94.3606426   6.3812229
   7.6549374  94.2025520   4.8767826 106.6585541  39.3572855  69.1201925
 106.4687634  39.3117738  68.1831026 106.9115162  38.4649944  69.3569469
 115.1132202  27.8627801  75.5963135 114.5964241  27.4912596  74.8813820
 114.9237061  27.2995210  76.3466835  15.8401047  78.5468342   2.5026962
  15.8765160  77.6069190   2.6800701  16.5119587  78.9239647   3.0706951
  56.2618290  79.6117570   5.5665943  56.6789376  80.3708245   5.9741089
  56.9267117  79.2632105   4.9727222   8.7988793  84.8625304   4.4125530
   9.4797169  84.7453071   5.0750992   8.1006657  84.2640282   4.6781227
 114.2611217  55.9123135  89.7313976 114.5986748  56.1532688  90.5940819
 113.7108421  55.1463509  89.8948956  71.4523458  18.7722373  79.7911358
  72.1929455  19.1192365  80.2884579  70.9844637  19.5491004  79.4848633
  13.2874459   8.9281375  24.4576904  13.1252592   9.8687608  24.5294735
  12.7236527   8.6420352  23.7390015  13.7541043 104.9599745   4.8291657
  13.6774956 104.9577429   5.7832977  14.5198952 105.5061247   4.6516487
  70.1246851   8.4617669   5.9532520  69.6420019   7.7284247   6.3346455
  71.0457438   8.2277352   6.0678265  25.7994591  73.4363260   1.7321083
  26.4436280  73.8052620   1.1278126  25.1835476  72.9677178   1.1688301
 105.9906769  39.3947029  86.2131214 105.5353451  40.1843357  85.9209061
 106.9063663  39.5456243  85.9786892  64.6811884  99.3358726  83.0633831
  64.4906729 100.0815947  83.6324501  63.8330096  99.0970881  82.6894665
 110.9296703  42.0343256  70.9984159 111.2258339  42.1456194  71.9018173
 110.3915119  41.2429857  71.0185575   9.4195609  23.9437580  88.6577988
   9.7356086  23.0576921  88.4810734  10.1199393  24.5151401  88.3428097
  42.1631371  55.1098631  22.9005310  41.9214379  54.3565376  22.3617241
  42.9459988  54.8255982  23.3722946  25.8892476  84.2044546   5.7058975
  25.2150856  83.5250832   5.7195446  26.7120396  83.7236287   5.6161282
  17.4966942  80.3598954   3.8003609  18.4484898  80.2868511   3.8709518
  17.3399769  81.2879612   3.6261055  42.7924382 105.8387663  19.8487732
  42.6519047 105.8597805  20.7953713  42.1364724 106.4399149  19.4958469
  11.2715184 103.2249834  13.1519863  11.5068375 103.0886032  12.2342464
  11.6432320 104.0796663  13.3701012  18.1215893  82.3744966   7.9286263
  18.5856663  82.7726771   7.1921989  18.8158452  82.0446159   8.4990761
  97.1156311   7.2917658  82.3843575  98.0041981   7.1808827  82.7225685
  97.2366905   7.5128317  81.4609337  90.7462883  33.1645012  89.5572567
  90.4042435  32.2716713  89.5114899  89.9754143  33.7082934  89.7193432
  92.0852184   3.4386331  93.5452461  92.2511292   3.0868492  94.4198608
  92.6249313   2.9019013  92.9648495  14.6954571  90.8375622   2.4298927
  15.0450932  89.9478056   2.4780342  14.3284832  90.9033276   1.5482780
  78.3294296  16.1084604  85.1608658  77.7122355  15.3788114  85.2148438
  78.1474066  16.6342545  85.9397411  21.7831742  77.1372248  22.5809738
  22.3520028  77.1320893  23.3507988  20.9821736  76.7014791  22.8721211
  24.7870766  93.4366109  14.2546436  24.7550427  92.7487232  14.9194881
  25.7185685  93.5368730  14.0584251  81.9331455  20.5216289  84.1807175
  81.0815430  20.9050369  84.3904781  82.2815037  20.2354550  85.0251007
  61.9285488  21.1390948  75.1245308  62.3203707  21.6085243  74.3880892
  62.6731014  20.8837247  75.6691933  56.7216240 101.9390108  27.5157997
  55.9890687 101.3937809  27.8027222  56.4515339 102.2720005  26.6599915
  17.5671439  15.5843103  60.7840586  18.4940772  15.7764208  60.6422186
  17.4196772  15.7848489  61.7083263  63.6842299  33.2007027  90.1287365
  63.1622553  34.0030408  90.1232624  63.3119297  32.6776028  90.8386612
  41.4598214  62.9331292   3.9787647  41.1377656  63.0977310   4.8650047
  40.8543908  62.2839631   3.6206314  92.1099472  32.9227924  46.9063473
  91.4399338  32.3177838  47.2245932  91.9135952  33.0295992  45.9756136
  48.9821928   0.9649760  13.7636444  49.1655939   1.2776238  12.8777287
  48.6761015   1.7410523  14.2329475  56.1855429 108.1600405  68.3899879
  56.3030546 107.3880578  67.8363943  56.5924662 108.8724957  67.8969812
  15.1404225  95.2141644  -0.0535896  14.1860138  95.1413943  -0.0593307
  15.3520619  95.5193474   0.8286259  97.6044637  59.3649493  16.6152069
  97.1663505  59.5092525  17.4539349  98.3964807  58.8765021  16.8396160
  13.3948855  26.8012786  92.2737312  13.7408881  26.8798089  93.1627464
  12.6149230  27.3561430  92.2704029  46.9843995  68.8479711   1.0930130
  47.6177155  68.5386433   0.4453537  47.4245678  68.7283768   1.9345448
  14.5042758  33.2134295  91.9066429  14.1335826  32.8363132  91.1087704
  14.4443469  32.5108147  92.5539207  87.6898289  36.0364461  88.8324165
  87.3719406  35.1966619  88.5008430  88.3513641  35.8020353  89.4833088
  91.5511417  39.9719334  60.7600212  92.0431614  39.7020888  59.9845600
  90.7029533  40.2554655  60.4188395  97.3347282  33.7135530  91.8448734
  97.4610329  34.5465446  91.3905525  96.4584637  33.7782955  92.2245979
  31.5431820  76.9187357  17.3985741  32.4104630  76.6039850  17.6534721
  31.0388505  76.9163205  18.2121250  16.3466220  13.7141120  72.5136757
  16.1837535  13.0189157  73.1511736  17.2609381  13.5942948  72.2569752
  14.1785006  23.0336428  88.1466198  14.7432093  22.4171853  87.6804447
  14.7391276  23.4032941  88.8287354  23.2826571  38.7598252  93.3137131
  23.4019046  38.2957220  92.4850845  22.6347976  39.4367433  93.1180191
  27.5549941  16.0968196  89.8455620  27.3150115  15.2587843  90.2409649
  27.7520137  15.8836210  88.9334488 103.1657219  41.9045115  83.4234715
 104.1057777  41.9020557  83.6037922 103.0126667  41.0933065  82.9389572
 103.6388588  38.3478785  83.9971638 104.4169617  38.8785577  83.8263702
 103.6635971  38.1829500  84.9397278  16.3592278  87.1397855  12.0041248
  16.6026722  87.2039916  11.0806343  15.7673394  86.3885857  12.0441219
 105.1931763  59.0031958  82.2079182 105.3750229  59.6963787  82.8424740
 105.9466934  58.4163618  82.2717381  96.7569160  33.1501842  86.2728977
  97.3009014  33.2771468  87.0501995  96.6148186  34.0336823  85.9330845
  29.8637633  51.5555048  83.8956642  30.7190852  51.5912485  84.3238926
  29.6562342  52.4689150  83.6985683 109.5559692  45.2902222  94.3217373
 109.0371132  45.0191307  93.5644245 109.2736053  46.1879635  94.4965649
  83.6773318  95.3900785  82.2479248  83.7675780  96.2344117  81.8061161
  83.5748404  94.7574670  81.5369129 107.6639843  20.7473588  73.2814789
 107.9719734  20.6614661  74.1836929 107.6684952  19.8528969  72.9406738
  82.0110260 101.6212942   1.8805286  81.5505539 100.8061887   2.0800564
  81.5030800 102.0159771   1.1716816  96.3040083   8.4030396  28.9357445
  95.3916090   8.3880193  28.6467239  96.7380923   7.7449710  28.3928368
  12.3277812  13.1420934  81.4691830  11.8566661  13.5571182  80.7466602
  12.2846942  12.2054636  81.2765694  33.9137398  84.9114730  10.5716583
  34.0358960  85.7294871  11.0534927  34.6180474  84.9078466   9.9234459
   0.9691893  65.9119047  28.7498543   0.6910311  66.8157472  28.8979408
   1.7148530  65.9853245  28.1541798  96.8927097  11.7968059  83.6341095
  96.9986629  12.1053374  84.5340061  96.3732529  10.9968734  83.7147617
  26.9660048  48.0526638  83.3411121  27.8268199  48.3727837  83.0713654
  26.4888339  47.9283047  82.5207043   7.1941428  44.8016977  70.2777624
   7.3624759  45.7385778  70.1770020   6.3997321  44.7569513  70.8098602
  36.4958893  91.6767885   0.4671452  36.6883313  90.8787681  -0.0251606
  36.4389454  92.3614909  -0.1993206  24.9684863  76.5186739  84.6158886
  25.7113223  76.2892294  84.0575218  24.8736052  77.4653959  84.5112324
  17.2230278 110.3838731  18.0140278  17.9057728 109.8294975  17.6362106
  17.1403061 110.0796034  18.9178059  96.0482502  41.0549450  95.2076340
  95.8216572  41.5018654  94.3920612  95.2690887  40.5430794  95.4247284
 105.0276566  64.7239017  88.9012814 104.9222660  63.8636160  88.4950447
 104.5940685  64.6423864  89.7507477  82.8596401  20.1814342  93.7621307
  82.4412727  19.6031284  93.1243515  83.0297565  20.9891987  93.2775593
 107.1744633  28.1507564  77.2321081 106.2331486  28.2585859  77.0960188
 107.2674561  28.0288434  78.1769466   4.9032645  13.3693004  82.5759315
   5.1322989  12.7893615  83.3021832   5.6731086  13.3564794  82.0072365
  28.1732707  21.3220096  89.0619564  29.0304045  20.9329319  89.2356396
  27.6180892  21.0064983  89.7750187   2.3561053  47.4204588  76.8324471
   2.3117785  46.7075491  76.1952448   3.0185179  48.0152225  76.4807367
 112.4618530  18.0955911  94.3182373 112.6312923  17.4988401  95.0472164
 112.2829056  17.5203216  93.5744095  82.1943474  23.9919114  93.8782024
  81.3284969  23.6543536  93.6488914  82.8003407  23.4816098  93.3409882
  21.6204695  38.1012964  87.4232578  21.7629103  37.1683049  87.5828552
  20.6697898  38.1904125  87.3562145   5.6812911   8.3504051  89.0299988
   4.9464850   8.4208661  88.4206295   5.3531794   8.7289399  89.8456478
  45.0006234  48.4407784   3.7725994  45.7913720  48.6805643   3.2894394
  44.9744450  49.0528794   4.5080444 115.2320480  20.4796815  74.5814323
 115.3898144  19.8547208  73.8737822 115.9780407  20.3676534  75.1706553
 109.9969673  19.3283057  94.4561577 110.7916832  18.7989450  94.3895626
 110.1113701  19.8317349  95.2622032  41.0561102   5.4900176   6.1370155
  41.8898981   5.6529767   5.6960175  41.0361498   6.1243731   6.8535587
 113.3266354  31.5469837  61.8922138 112.5840473  32.1238756  62.0710564
 113.9931583  32.1234155  61.5184355   1.0542731  45.0315237  90.5044937
   0.9887652  44.4589806  91.2687874   0.2325110  45.5223608  90.5017853
 101.8718737 109.6414591  86.0654831 101.2982481 110.3286337  86.4045525
 102.6595419 110.1054063  85.7816315  42.6416146 106.6728927  22.5149319
  41.8706738 106.3534595  22.9838059  42.8689038 107.4909164  22.9569790
  33.2194745  70.9465303  18.0007622  32.5514256  71.5261687  17.6347611
  33.7110745  71.5004803  18.6071465   6.0581355  21.2226367  74.2180586
   7.0106368  21.1710215  74.2974997   5.8420329  20.6034136  73.5208511
 103.1250095  49.1521931  69.4330311 103.1448555  48.4436798  70.0763416
 103.8279629  48.9384222  68.8195324  36.9444214  73.0439510  18.2850906
  37.7409970  72.8556456  17.7888653  37.2044026  73.7242212  18.9062855
 114.0062458  88.9044954  11.7608902 113.8589985  89.8247744  11.5426323
 114.5384199  88.5693814  11.0392830 108.1273174  69.1870117  65.7586908
 107.5382900  69.6684837  66.3396072 107.5469494  68.7658930  65.1246071
 115.3448772  10.8105016  66.6259146 116.0150719  10.1500809  66.8017435
 114.8468971  10.4561651  65.8892345  10.5869727  40.3380823  59.1600609
  11.1618476  40.6380987  59.8641443  10.4976611  41.0972166  58.5838938
  55.3225647 102.9279281   2.6071999  55.6307351 102.1976282   2.0706150
  54.9051796 103.5232021   1.9845745  24.3076663  25.4535365  93.3507442
  25.0157695  26.0973239  93.3317757  24.6501975  24.7363877  93.8842201
  96.6633034  62.1926260  62.4470282  97.2216225  61.4799643  62.1361828
  95.8062267  61.7864943  62.5762606 100.3145218  48.4669065  86.4452171
 100.5402470  47.5389051  86.5091705  99.3901443  48.5060215  86.6906357
  11.7939811  23.7566948  72.6672697  11.9808535  23.6657381  73.6016369
  11.1170344  24.4319773  72.6230288  81.2235451  31.2372541  80.9931087
  81.3837242  30.6588054  80.2474689  81.4451885  30.7076669  81.7590332
  25.6270920  73.9749707  22.9898903  24.9068295  73.5672833  22.5090096
  25.2399003  74.7567393  23.3837959 116.6509819  69.7538328  76.6326094
 116.9813728  70.2203798  75.8648777 115.7057858  69.6996403  76.4915371
  34.6277558  73.4923770  11.1474869  35.3723084  74.0508260  10.9238693
  33.9507901  74.1020264  11.4412186  91.1002541  34.6297789  83.4369183
  91.1648655  33.8069701  83.9217281  91.9192886  35.0862050  83.6295128
 101.2716675  66.3484716  80.3943729 101.4873981  67.2807217  80.4189777
 100.3372478  66.3242197  80.1882267 108.9019299  85.5794144  91.4434147
 109.5710278  85.4884148  92.1218491 109.3838215  85.5026340  90.6199360
  20.4548125  44.9998999  90.5812454  20.1096587  45.8796644  90.4292011
  21.1798816  44.9167252  89.9619007  77.4555731  14.6650314  81.8270683
  78.2520628  15.1484346  82.0465279  77.5621414  14.4341207  80.9042740
  15.5306279  80.0722863   5.5214569  16.3691651  80.0717856   5.0598404
  14.8761879  80.1656295   4.8291847  69.7883719 105.4332925  89.7505760
  69.7927874 105.8781553  90.5981064  68.9803427 105.7272543  89.3299770
  99.1921329  54.5280600  86.5371799  98.4133720  54.6935225  87.0685673
  98.9383125  53.8100243  85.9573364  50.0811326 103.3950760  20.2372238
  50.3533207 104.2905761  20.0366661  49.1884457 103.3342363  19.8971817
 114.9033165  63.9336157  82.7743626 114.6924305  64.6453333  83.3786964
 114.0608025  63.6844158  82.3944950 116.6270351  32.8987646  70.3422070
 115.7698345  32.9069853  70.7680988 117.1976471  33.3778477  70.9431314
  63.9778852  20.1592016  91.7474174  64.7848272  20.6202507  91.5182590
  64.2661381  19.4309080  92.2976303  47.7105748  59.1747145   4.8375961
  47.1919190  58.4406622   5.1668140  47.3269402  59.3752031   3.9838669
  35.8812462  66.4689006   9.2415783  35.0954377  66.8323411   8.8333389
  36.6065537  66.9135441   8.8028881  84.8796844  94.6135998  88.4220791
  85.0786781  93.7281322  88.7263393  83.9237118  94.6610737  88.4319401
  97.4835318   8.0601746  18.2456944  98.2215803   7.6083237  18.6547825
  96.9472521   7.3580844  17.8773186  14.2187552  69.3021822  72.9853868
  13.8676219  68.4276247  73.1529951  14.9088244  69.1629648  72.3368025
  33.0540232  66.0614395  92.9146385  32.8732638  66.7157030  93.5895443
  32.6011710  66.3879585  92.1371174 112.5253677  19.7290683  71.2369490
 112.6631165  19.8993397  72.1687603 113.3285141  19.2933178  70.9518099
  94.8142242  85.9663773  47.2845221  94.9731064  85.8451939  48.2206345
  95.2455711  86.7944336  47.0735979 110.3508854   7.4043971  82.6358795
 111.0270596   6.9661033  83.1525135 110.3678131   8.3118916  82.9398537
  27.6612525  32.2196364  77.8586292  26.9528537  31.8412757  78.3794498
  28.4598689  31.8538070  78.2389116  18.6775546  45.2509308  72.4260950
  19.0537410  45.6142950  73.2277679  19.1212802  44.4103861  72.3128796
   3.0974726  21.0480690  78.2226133   3.9692549  20.8966994  78.5877228
   3.0759959  20.5176830  77.4260807  98.5153216  21.7281300  31.3918278
  98.0764788  22.5579459  31.5790531  97.8016203  21.1027915  31.2660572
  46.4799820  96.4742519  21.0348198  46.6622197  97.2280981  21.5958378
  47.2286545  96.4318802  20.4399082  25.7576214  40.0441946  18.0142853
  26.0662209  39.9616696  17.1119663  24.8530232  39.7324099  17.9874966
 115.3316116  28.9754319  85.3634548 115.3758144  29.9270582  85.2702427
 115.3802681  28.8247180  86.3074589  79.9184435 102.7866377  96.5217876
  80.3363055 103.4108992  97.1150208  80.2192896 103.0456872  95.6508064
   6.7249636  43.8080454  95.5564690   7.1895938  44.5794010  95.2318859
   7.3087840  43.0758142  95.3584290  73.8774716  87.2669841  31.8051693
  74.0418946  86.6323139  32.5025818  73.0535161  86.9812061  31.4106247
  64.9432486   6.9652087  12.8466103  64.3437021   6.7590911  13.5637543
  64.6883982   7.8443248  12.5665352  36.2386643  87.7029826   2.1994659
  37.0449196  87.2012235   2.3195431  36.5332924  88.6070897   2.0898411
  81.5628242  48.7474489  88.1503296  81.0184860  48.6512995  87.3688698
  81.1199093  48.2222509  88.8168335  10.6844937  90.1742365   9.1164848
  11.0381352  89.2887189   9.2002842   9.7523629  90.0443484   8.9418385
  85.1639462  65.5536652  89.5942020  84.5530415  64.8169231  89.5786572
  84.6048641  66.3268137  89.6710491  16.1733471  98.6616804  21.6515610
  15.6275403  98.6786129  20.8654091  15.7514321  99.2787792  22.2494003
 100.6643677  10.1678813  95.3062057 100.7927418  11.0944760  95.1032925
  99.7564507  10.1114821  95.6041050 104.6978855  29.3633842  38.2540917
 105.3828812  29.1120577  38.8736439 104.4300461  30.2383256  38.5351110
   3.7454276  21.3361859  64.7131491   4.1976504  20.4930615  64.7425652
   4.1971354  21.8730998  65.3642416   2.0093571  91.4016511  19.4743702
   1.1206900  91.3995554  19.1187069   2.0638024  92.2137286  19.9781487
 112.9012585  43.0046606  89.5162964 112.9934502  43.8156843  89.0163231
 113.5076427  42.3943710  89.0966892 104.7634220  27.0272088  83.2828903
 105.2804661  27.8157806  83.1184196 105.3887463  26.4034081  83.6517715
   4.3233351  63.2287502  79.4728279   3.8916163  62.9483414  80.2798080
   4.9451213  63.8997602  79.7545338  99.6206379  44.0555763  74.7615623
  98.8192272  44.2824602  75.2332497 100.2918625  44.0017319  75.4418468
 106.7225266  30.6862497  40.0308657 106.8070412  31.4647722  39.4804168
 106.3325500  31.0086083  40.8434105  27.0977835  18.1466103  96.3452244
  26.6960768  17.2778237  96.3368034  26.5599684  18.6532795  96.9537163
  41.2522542  50.7977052   2.7586815  40.9308564  50.8365034   3.6594841
  40.5068718  51.0755064   2.2262737  99.0210629   7.8631669  49.1576290
  98.9011860   8.7889212  49.3693876  99.6124935   7.5369579  49.8358870
  12.3807483  34.7777128  93.1489658  12.6127009  35.7015896  93.2431984
  13.1144004  34.3943977  92.6682758  67.7393645   6.5135390  15.5867931
  66.9611757   6.9959409  15.8659527  67.4561709   6.0308081  14.8102638
  97.8708553  30.4834604  79.9481106  97.8367043  29.6013379  80.3181458
  97.4710178  30.3958702  79.0828371  26.9983517  96.2788107  19.7102329
  27.3620450  96.8989851  20.3421757  27.6789414  95.6134392  19.6087334
  26.0337578 105.0320627  45.1397678  26.0025536 105.6103994  44.3776772
  25.2995621 105.3145982  45.6850693 106.5382385  56.6998434  85.5625534
 106.5674782  57.1232033  86.4205360 105.6232357  56.4403391  85.4545689
  18.9143502  89.5559408  11.5019867  18.8105713  90.4983832  11.3705990
  18.3405339  89.1582014  10.8471748  87.2935200  20.7079268  84.8400402
  87.9047394  21.4371085  84.7354603  86.5494633  21.0845900  85.3098774
   0.9635501  40.9261799  57.5883055   0.1155810  40.8455944  58.0249739
   1.5622191  41.2115908  58.2785034  99.7619534  44.5432377  86.2671280
  99.8915958  44.1894197  85.3872204  98.8168144  44.6793365  86.3337040
   7.1882682  38.7135816  62.8938770   7.3923163  37.9429173  62.3640919
   6.9510703  39.3867350  62.2560406  78.8903475  27.7529907  91.3536835
  79.1869259  28.1992364  90.5604935  78.2934666  28.3751011  91.7695427
  15.8560328  67.4460936  87.2948360  16.2898402  66.6026211  87.4236679
  15.3376155  67.3296642  86.4986515  25.0004535   2.0506650  90.3061771
  25.2124553   1.6339096  89.4709492  25.1232581   1.3593788  90.9567738
 110.3659851  87.9162432  20.8858177 111.1547453  87.4227263  21.1105988
 109.9563009  87.4073579  20.1862213  97.2638988  30.5798936  85.3680229
  97.2300816  30.5872893  84.4114494  97.0413876  31.4754200  85.6224823
 102.7112133  81.4444162   9.1560623 102.3618490  81.8438651   8.3594391
 103.6445219  81.6563822   9.1408321   4.2279582  34.1297364  77.9866982
   5.0064235  34.1045904  77.4302816   4.1730456  33.2507372  78.3616352
 102.4852848  23.5951233  90.6592941 102.4323940  24.2827988  91.3230228
 102.4356174  24.0626574  89.8255253 112.0524788  18.9526522  67.7243614
 111.4585972  18.3113658  67.3341227 111.6121864  19.2287540  68.5281897
 104.9929810  41.5150928  55.7108879 104.3382835  42.1503782  56.0007572
 104.6301174  41.1481094  54.9047279  27.0105111  88.8551189  10.6404755
  26.9097172  88.9558722  11.5870068  26.1897980  88.4547354  10.3534863
  74.8033571  69.7481871  95.4432869  74.4157505  70.1568031  94.6693230
  75.2774286  70.4578400  95.8767509   2.1715312  15.1882911  85.2289581
   2.2149329  14.2389476  85.3433990   3.0076937  15.4192340  84.8243237
  17.2681557 103.6265566  11.1188385  16.9508683 104.4423629  10.7315132
  16.4745938 103.1229116  11.3000176 105.1988411  52.7319956  94.4201851
 104.2704010  52.6512480  94.6385860 105.3424072  52.0758772  93.7381840
   5.0184779  51.7560673  87.9852009   4.7710852  51.4373112  88.8531971
   4.2636065  52.2673750  87.6937008  29.4771134  98.2837822   2.6035282
  28.6775910  98.5863020   3.0341980  29.5520054  97.3636677   2.8565571
  26.3279568 109.1234447  15.2261231  26.1365353 109.7279741  14.5090839
  26.9579255 108.5049440  14.8562214 112.8864288  33.4265184  89.3995762
 112.7856445  33.7321472  90.3010559 112.1621513  32.8138375  89.2720032
 112.1619034  64.6888018  78.7433481 112.3452950  64.5729351  77.8110552
 113.0255890  64.7377682  79.1530704  10.3166996  93.7400319  40.5859348
   9.7592675  94.4669844  40.8634922   9.7656189  93.2281162  39.9939224
   5.7364802  21.9640589  88.4008694   5.6696181  22.3043346  87.5086975
   6.5548472  21.4676023  88.4071636  64.4042527  86.2639620  42.8915379
  65.1906907  86.6111852  42.4706051  64.7292840  85.8102872  43.6692116
  62.8508126  59.2498352   1.0024521  62.5577008  59.7883235   0.2673695
  62.9491078  58.3725228   0.6324646  86.7422693  10.4938227  16.3712284
  86.4395159  10.9756285  15.6015179  87.3941153   9.8817784  16.0295746
  37.2960524  59.2777157  96.3510132  37.7589373  59.3260527  95.5145741
  36.7346244  60.0529385  96.3592148  39.0347342  38.7789822  92.8573608
  38.1201415  38.9955044  93.0386639  39.3513922  39.5062876  92.3216534
  68.1862944  15.1803166   6.3966820  67.2848147  15.3175170   6.1055920
  68.6640185  14.9547440   5.5984757  35.1496159  64.3618120  10.6634209
  35.5007493  65.1421948  10.2345345  34.2842804  64.6281190  10.9740803
  52.2248780 107.8041555  20.4486725  52.0494973 108.3769466  19.7020886
  53.1026589 108.0515863  20.7393906  65.5859297   0.4720933  17.9863712
  65.0218409  -0.2334350  18.3030197  64.9785441   1.1554772  17.7029964
  96.5466135   9.4141204   6.5636608  96.6867369   8.8655478   5.7918713
  95.8192652   9.9872262   6.3213036  79.7832870  73.1437826  50.1974154
  79.4159889  73.9140606  49.7638321  79.0653896  72.5107718  50.2097607
   1.9486575  68.7713242  63.4287214   1.0614924  68.8823843  63.0868912
   2.3932128  68.2357502  62.7716303  41.1226802  65.9237766  81.9991207
  40.8172183  66.1701822  82.8721714  41.8654208  65.3419828  82.1606064
  66.2661665   9.9708850   9.8729107  66.3541048  10.7926137  10.3558800
  67.1414011   9.8037297   9.5232651 111.4377689  70.6803322  95.3100491
 110.7956886  70.2243233  95.8541203 111.1534977  71.5942955  95.3192139
  93.9242762   6.7171151  11.1787197  94.2545241   6.1901862  10.4510376
  94.6733206   7.2481782  11.4491531  51.3451134 102.5423910  16.2842438
  51.3146721 102.1053030  15.4332039  50.6815373 103.2296468  16.2244007
  12.1087889  24.7081327  87.7010632  12.4168925  25.5144644  88.1147480
  12.8314261  24.0904212  87.8126717  15.4937320  27.8269410  79.5320368
  15.3525214  27.5890827  80.4483986  15.4139380  28.7806940  79.5171213
   1.2604003  58.8667488  74.1643143   1.5187125  58.5396051  73.3026361
   0.4296641  58.4281063  74.3478775  49.4591540  14.7969491  22.2935459
  48.9626044  14.7904212  23.1118557  48.8803404  15.2292735  21.6656086
  12.9220347  73.9475298  83.5705376  12.8227477  72.9976082  83.6339760
  12.0556121  74.2622137  83.3126354 104.7404575  70.3403950  77.0106363
 104.8783970  70.3212404  77.9576492 105.3381157  69.6758080  76.6680527
  92.9951399  29.1464478  12.9108974  92.7487772  29.4764287  13.7749836
  93.1029909  28.2036549  13.0363628  61.9617688  94.8599984  32.1697113
  61.3085782  94.1650535  32.0883629  62.1604477  94.8936202  33.1054661
  97.1459770  62.5498199  83.9061737  97.4264812  61.9511461  83.2139683
  96.2516117  62.2770166  84.1108894  81.5873736  12.0532138   0.8604500
  80.6937330  11.9712312   1.1935112  82.1315020  12.1095473   1.6459248
  80.1499098  14.8185450  15.1693604  79.5389574  14.1840751  15.5440685
  80.9235495  14.3018634  14.9440739  75.7944697  14.2901809  15.1627800
  75.2059000  13.9000708  14.5165417  76.5519636  13.7052781  15.1807282
  13.4086071 108.8149740   2.7270863  13.7468945 108.8109256   1.8316719
  12.6527726 109.4014122   2.6949284  32.6994567  51.4229441  77.1688557
  32.7194075  50.8677101  77.9483080  32.2183757  50.9085608  76.5206242
  33.3323149  48.8200283  83.4035301  33.0408339  48.4940577  84.2550087
  33.6929183  48.0504656  82.9631042  78.8454836   5.7054908  47.7595970
  78.2033461   5.2906615  47.1835587  79.6225851   5.8159787  47.2117493
  18.7111985 106.5042307   2.0664951  18.6350953 107.3995830   2.3963234
  18.4351479 106.5616657   1.1517689  70.0598257   7.2807223  17.0104858
  69.2958945   7.0770461  16.4709065  70.1499766   6.5262038  17.5925610
  41.4944397  79.8195173  16.0291264  40.7502400  79.8771288  16.6283581
  41.3708340  80.5498125  15.4228088   6.0341506  10.9465539  80.4178047
   5.7603984  11.2919271  79.5680952   5.3069548  10.3894854  80.6954670
  47.4691539  82.3434639  95.0051403  47.3301081  81.8304348  94.2090797
  48.1598811  81.8753338  95.4741764  27.5703084 102.1845581  37.5431511
  27.4241292 101.6116430  36.7904064  27.9399239 102.9837181  37.1676991
  91.9592953  69.4331074  77.4688959  91.1910534  70.0031614  77.4360418
  91.9299412  68.9439821  76.6466236   8.5298877  59.0120459  79.6059227
   7.9528765  58.4537935  79.0847301   8.0518870  59.8369312  79.6914434
 117.8083515  89.8398209  59.9258661 118.1102657  90.6929016  59.6139002
 116.8535423  89.8943233  59.8857689  42.8326832  99.3439104   6.0058090
  43.1806408  98.9744522   6.8173859  42.1631848  98.7195780   5.7261440
   8.1141047  77.9217863  77.6825714   8.5749678  77.2237968  77.2171116
   7.7560096  77.4948168  78.4608316  24.3929534 107.4947834  63.2722235
  23.4966521 107.5732517  63.5988808  24.5735888 106.5549850  63.2917833
 101.5002537  92.6305580  54.2083025 100.7715321  92.4826908  53.6055231
 101.6921043  93.5648537  54.1275072  19.8644786  63.1679630  94.5134640
  20.6755023  63.1280088  95.0202942  20.1524691  63.1721640  93.6006260
 109.6216106  68.5554647  80.3469849 110.0280857  67.6888800  80.3407955
 110.2772141  69.1303539  79.9521303  97.8326321  80.1616001  83.5944176
  97.6566124  79.2478991  83.3699131  97.0266438  80.6241608  83.3649635
   5.4388671  46.0326385  85.0371742   5.8108382  46.1713123  85.9081745
   6.1907630  46.0739994  84.4462681 106.0659885  44.4916964  53.8526058
 106.3438320  43.8365078  54.4927359 106.6566849  45.2312994  53.9950800
  13.3916907  26.3610244  85.6315804  12.7195124  26.9231915  85.2463818
  13.0113368  25.4829264  85.6089497  70.9013479  11.5836198  13.0861828
  71.2898176  12.2995526  12.5834248  70.1850813  11.2659509  12.5363800
 104.1234589  49.8947239  94.4079971 104.9477100  50.0027704  93.9334774
 103.7594414  49.0755606  94.0722942   7.1619563  79.5930719  67.0714474
   6.5271144  78.8769388  67.0904016   7.9668288  79.2089033  67.4190378
  57.1627175  74.1403164   3.3473560  56.9429528  74.8157551   3.9890072
  56.6252553  73.3886863   3.5971901 107.9535675   9.4824147  86.7003632
 107.9240799   8.8125759  87.3834991 108.8611507   9.4746131  86.3962936
   3.7564807  27.8105545  85.5422020   4.0533786  26.9058347  85.4444122
   2.8011660  27.7518415  85.5293941  32.6395165 106.6946127  22.7088902
  31.8124424 106.2227012  22.6115868  32.7050435 107.2288133  21.9173309
 109.3977356  57.5577021  63.3646870 110.2722645  57.9445314  63.3223772
 108.9461613  57.9016495  62.5939703  93.3874911  10.0372607   7.3026726
  93.3875292   9.8216779   8.2352802  93.2948511  10.9896190   7.2769997
   4.5497756  66.6085148  65.1993513   4.5119052  67.1731806  64.4273710
   4.2599635  65.7523680  64.8843098   1.8007235  37.4100137  76.6094685
   1.1992507  36.6666675  76.6530085   1.4630084  38.0295730  77.2562504
  13.4728389  36.9514847  91.0236549  13.3134036  37.7576017  90.5327415
  12.8451972  36.3242888  90.6645870  15.3463797  28.1705713  67.2411013
  14.5568614  28.5242105  67.6507759  15.6636386  27.5132155  67.8603411
  60.0789946  10.0883538  18.8860771  60.7971209  10.4678399  18.3795902
  60.4007166  10.0785500  19.7875378  65.3708189  21.8204505  16.3859722
  65.5437868  21.0391480  15.8607266  64.4390124  21.9958216  16.2547371
 117.0057869  85.5309486  43.7119055 116.6943264  85.2413082  44.5694208
 116.5728951  84.9462605  43.0898333  10.3730922   9.4604695  68.6937809
  11.2885146   9.7218984  68.7932444   9.9042086   9.9755621  69.3503332
  23.1644397  41.6775751  94.8881435  23.6878543  42.1333456  94.2289448
  23.7896590  41.1117983  95.3411770  37.7339112 103.4949638  26.2627480
  37.6994263 104.4118406  26.5354797  37.0934330 103.0546476  26.8214485
  15.6098513  26.3368917  87.6755333  14.9732070  26.5146756  86.9832134
  16.0030036  25.4993844  87.4300861  15.8332591  27.7877378  94.9232674
  16.7793898  27.7413321  95.0608540  15.7003550  28.6076021  94.4474602
  66.1312788  10.5810124  16.1145851  65.7828730  10.9154612  15.2881500
  67.0625513  10.8007294  16.0883019 106.4027596  69.8634100  91.5303230
 105.6332779  70.2959538  91.9005108 106.8255711  69.4441366  92.2797775
  39.0260636  73.2821955   2.5733063  39.2361294  73.6292638   1.7063305
  38.8149487  72.3615672   2.4180481   1.1879973  37.7041554  96.5196991
   0.7106643  36.9037080  96.7380524   0.5072455  38.3270836  96.2651825
  52.4840771  84.5171477  15.4830143  53.4383046  84.5723201  15.4316780
  52.1893631  84.6167375  14.5777771  64.8194825 109.3504192  25.8563587
  65.7733571 109.4020464  25.9171078  64.6013009 108.4978534  26.2328693
  22.5403838  37.0455408  95.1699829  22.5778346  36.2760472  94.6019077
  22.7497153  37.7798271  94.5927238 102.1738243  67.1513319  77.5834322
 101.4288521  66.8126965  78.0799913 102.8879356  67.1902561  78.2196379
  20.4333340 107.3352625   7.6720974  19.6657597 107.8585531   7.4413845
  20.1315247 106.7668153   8.3806202  94.7644520  57.5635099  72.9154253
  94.6801090  57.0990324  72.0827293  93.9395714  58.0401039  73.0084610
  88.5999966  67.6492882  63.3366203  88.9664745  67.1551371  64.0699244
  88.2558918  66.9800997  62.7450037  83.4938353  23.6514146   6.5442345
  84.2279928  23.4132153   5.9780952  82.9801005  24.2686135   6.0233089
  34.9914776  96.4733078   2.3797771  34.1248452  96.1338760   2.6033089
  35.3841435  96.7011501   3.2224724  19.2967086  79.8151922  59.2672062
  20.0470595  80.1255417  58.7603712  19.3951945  78.8631964  59.2824268
  52.0940339  90.5588700   0.5318996  51.4560734  90.0736691   0.0086185
  51.5759980  90.9597828   1.2298462  90.1656723  10.6149340  92.8690815
  89.7192574  10.8432353  93.6844444  89.5707703  10.0048709  92.4330139
 105.1857298   2.2446353   4.9391624 104.6968001   1.7416817   5.5904743
 105.9925860   2.4972541   5.3879425   9.3896441  35.1071501  78.5990381
   9.3501525  34.1601825  78.7329197   9.1719394  35.2276492  77.6747417
   0.5341773  46.7909479  50.6988096   1.4811568  46.9245911  50.6587029
   0.4065375  45.8904171  50.4005098  98.6361408  60.2913189  89.2417431
  99.1362476  59.5644617  88.8705063  98.2144165  60.7020521  88.4869766
  44.3149012  16.1564261   6.4031384  45.0938147  16.2079150   6.9570992
  44.0532702  17.0678527   6.2724373  97.8095453   4.9780185   6.9130203
  97.7823752   5.5856568   7.6521179  97.7610415   4.1103799   7.3143646
 100.7584000  14.3344879  92.4971104 100.2280903  15.0987029  92.7228928
 100.1910877  13.8069057  91.9349384  51.2242811  29.9579961   6.4736721
  51.4256590  30.7003552   5.9039566  51.5328234  29.1929013   5.9882137
   9.7317939  45.6507826  91.7657471   9.5739703  45.8401871  90.8408451
  10.6820731  45.5571747  91.8323135  66.9194144   5.0703818  13.6142036
  66.6979235   4.1556413  13.4397766  66.3226431   5.5714995  13.0583450
  80.0279539  22.9123694   9.5650169  80.9296911  22.6422269   9.3914387
  80.0878733  23.8526780   9.7337124  14.3751387  59.0977621  60.4083014
  13.6589198  59.6645260  60.1218653  14.0016513  58.5827255  61.1234760
  57.8903138  88.5377599   8.7070629  57.6396023  88.8162853   9.5878574
  57.8159176  89.3300225   8.1750748  89.9783993  70.9445143  92.7126408
  90.6475544  70.2841902  92.5325394  89.5343304  71.0704136  91.8740749
   8.1065802  52.6411438  68.0125141   8.8168769  52.8054619  67.3922634
   7.5223403  52.0378304  67.5532579  74.3208712   7.1117980  24.8197338
  73.7798804   7.6481253  24.2401478  74.8252791   6.5536076  24.2279408
  98.5541456  36.6010243  11.8026802  98.8459223  37.5117547  11.8433830
  97.6619929  36.6504533  11.4593956 110.6610394  35.0972676  85.5385208
 110.3814411  34.6616554  84.7333527 111.6038227  34.9376488  85.5822277
 109.6687508  22.4868250  93.1720352 108.7161732  22.4467564  93.2570744
 109.9547005  23.0059004  93.9237118 100.3521633   8.0312228  45.6865644
 100.4996395   8.6658990  46.3877535 100.0849342   7.2315174  46.1396551
 103.5424900  28.0162835  88.0386829 104.4437695  28.1771779  87.7593231
 103.5400295  28.2264948  88.9725113  12.1052205  73.8775565   3.0667278
  11.5362202  74.5712771   2.7332279  12.7988659  74.3414463   3.5356495
  91.4407665  46.4567055   2.1583340  91.2644464  47.2380634   2.6823685
  90.9199506  46.5781947   1.3644669  80.7441616   4.1842726  96.7208862
  80.4317188   3.3708140  96.3247776  80.2608681   4.8735648  96.2653255
  54.4824921  49.0372570  16.4646217  54.9854790  49.6720947  15.9545109
  54.0258729  48.5107078  15.8085129   8.4831004  10.3487194  75.4591656
   9.1256766  10.5056834  74.7672892   9.0016989  10.0400448  76.2021399
  79.3818968 108.7892972  60.3861713  79.5548266 109.7307472  60.3858519
  80.2421969 108.3877991  60.5083418  54.2845678  36.8826962  93.8707924
  54.5987749  37.7342153  94.1748047  54.5429611  36.8469214  92.9498196
  39.7154670  33.7273121  86.0854435  40.3574614  33.2561016  86.6165161
  39.9853949  34.6439934  86.1407948  91.5505409  24.9763107  49.9102354
  91.4954185  24.8401999  50.8561039  91.4072800  24.1076708  49.5345068
  64.2610091 109.2051191  92.0054817  63.6765402 108.5018129  91.7226601
  64.8821181 109.3050362  91.2840462  52.5297278 102.5600881  75.5472374
  53.1013220 102.7087505  74.7939730  51.7492789 102.1469624  75.1778364
  10.3726916  37.9214454  69.6656418   9.4330363  37.8409028  69.5019484
  10.7844310  37.5330758  68.8937187  14.9287545  54.4759908   0.3158638
  15.0688874  55.2115202  -0.2804497  14.5780312  54.8761782   1.1115238
   4.9222712  33.6496234  91.9848537   4.4593768  33.3329940  92.7605534
   5.2576690  34.5089984  92.2402287  57.3763501  95.8882286  11.4244530
  57.6083218  96.3462736  10.6166050  57.9307591  96.2883808  12.0943329
 102.5842779  93.8146658  47.4893141 102.6647204  93.7567050  48.4413671
 102.3762816  94.7338982  47.3220444   0.5118136  14.0657425  82.8557968
   0.9923129  13.2381082  82.8751183   0.8328490  14.5469391  83.6184311
  36.4643513  75.4598893  11.0124180  37.1504151  75.7456924  11.6156265
  36.5535580  76.0397889  10.2561161  43.7963789  94.8734529  69.8230076
  42.8656023  94.7016699  69.6802664  44.1533106  95.0040288  68.9444971
  27.2609650  90.2088548   1.5245125  28.1218659  90.6255080   1.4860127
  26.6752755  90.8285786   1.0895989  31.3884562 102.4807508  50.2371550
  30.8868140 102.4242027  51.0504150  30.8675736 103.0530126  49.6737480
   2.0623450  49.7542381  87.0070934   1.9809680  50.1907349  87.8550816
   2.9974990  49.5685625  86.9220543  65.8973598  17.7539170  72.4908924
  65.4796028  17.2131574  71.8206024  66.7852783  17.4035621  72.5621748
  23.5441546  20.7610488  79.5887852  24.1323905  20.7360363  80.3434944
  22.9587130  21.4973760  79.7657251  60.2806204 105.1747216  82.1583843
  59.5603197 104.7748185  81.6710758  60.5445402 105.9237654  81.6240597
  96.8498802  30.8948588  82.6136875  95.9661007  31.2612319  82.6443291
  97.0054913  30.7221103  81.6851521   2.2259669  40.1791000  89.0163231
   3.1451564  40.4201365  88.9014053   1.9768767  39.7803068  88.1825638
  55.3746163  56.2542167  20.1477787  55.4220234  56.1553674  19.1968796
  55.5161892  55.3707067  20.4877827  24.7650008  40.0738239  82.2983932
  25.1780371  40.1688528  83.1566525  24.0543704  40.7150888  82.3022652
  45.5758034  73.7198080   3.3685562  45.3913533  72.7829982   3.3007595
  46.5280472  73.7824287   3.2941124  23.8381802  60.9015675   4.2281410
  22.8983628  60.7324208   4.2940781  24.1041409  61.1267693   5.1196453
 104.9103451  46.5833664  81.0020065 104.7657967  45.8515501  81.6018200
 104.0345287  46.9300222  80.8316708   1.2522559  45.3641796  75.3200388
   0.6220870  44.8547125  75.8295059   1.8577819  44.7122526  74.9671078
   3.5274844  60.1895142  90.5186462   3.7027507  59.2529821  90.4268932
   3.4899096  60.5153799  89.6194077  18.1252705  76.5882565   4.6385166
  18.5651242  75.8015467   4.3162605  17.2925602  76.2709476   4.9879906
 118.3187485  26.7776132  92.1288395 117.6863003  26.1692834  92.5111675
 118.1848907  26.6999722  91.1842346 105.8211136  20.6518674  55.0702715
 106.3747787  19.9202836  54.7973776 106.3963032  21.2023401  55.6016493
  94.4578934  13.9384949  70.8897829  95.4042625  13.8080156  70.9497070
  94.3478966  14.5721471  70.1808262  62.5301188 101.8599338  61.7300558
  63.3684080 101.7738147  62.1840143  61.9010657 101.4222855  62.3036289
  39.8314702  80.4338314  10.7804176  40.6708657  80.0148513  10.9704086
  39.5354783  80.0203039   9.9694893 105.9868622  14.1493440  82.3435879
 106.8117428  14.0888000  82.8253841 105.4250622  14.6911788  82.8976917
  42.5855195  65.1812638  15.2071831  43.1363331  64.8198690  14.5127556
  41.6939770  65.1134844  14.8654339  60.2346468  19.1463077  85.2810383
  60.3021955  18.4212065  84.6598244  60.9663725  19.0142286  85.8838272
 103.0333900  40.3175783  58.1382895 102.4228096  40.2998018  57.4013281
 103.0759335  39.4088626  58.4360456  18.4756713  38.5276508  75.2633572
  18.0760245  37.7620316  75.6760740  18.2701068  39.2525983  75.8536291
 112.0277977   0.7946375  72.9834890 112.6093483   0.8768234  72.2276640
 112.0388508   1.6613626  73.3895636  54.8469101  40.5289020   9.4119904
  55.0666272  41.3710608   9.0135834  54.6530377  39.9561991   8.6699268
  75.6071966   0.3461606   1.8450329  76.5122240   0.4177052   2.1483967
  75.6561964  -0.2236694   1.0774872   1.5935664  81.7476368  68.4637070
   0.6732802  81.7620468  68.2008553   1.7049174  80.9028149  68.8997269
  23.0104958  77.4958541   7.8708145  22.3874127  76.7972256   7.6710007
  22.7670514  78.2096960   7.2814056  90.3577232  32.0658541  84.3429470
  89.5032501  32.3577356  84.6606064  90.3805733  31.1299872  84.5426083
  71.1581039  45.2815485  90.7127762  71.1144590  46.2254381  90.5598259
  70.4090309  45.0957727  91.2790012  78.2441330  24.7930288  88.7432861
  78.4681606  24.6818495  89.6672344  78.6702919  24.0574741  88.3033085
  51.2628113  58.2630636  13.9498493  52.1909939  58.1961893  13.7256977
  50.8551442  58.6425163  13.1713459 100.6779003  10.4788744  80.0160885
 100.0470257  11.1193395  80.3447819 101.3320732  10.4085028  80.7113075
 115.3673840  41.1603451  83.9571095 115.7820988  41.7749929  84.5624542
 116.0918045  40.6385183  83.6119366  35.6606423  79.3781711   6.5029976
  35.0396382  79.5937492   7.1987793  35.4744851  78.4635593   6.2907192
  91.3146687  31.0753489  59.5436478  91.0367393  31.8514729  59.0572166
  92.0928001  30.7673931  59.0789986   7.7233462  11.4413464  83.3072662
   7.4872832  11.7266989  82.4246120   8.0805926  10.5614924  83.1870174
  10.3177600  54.2107582  60.0124788   9.8779349  54.4755030  59.2045832
   9.7009902  53.6140919  60.4365110 104.9454594  15.1805007  73.5245180
 105.4624557  14.8265839  74.2481852 104.4369793  15.8897150  73.9178276
 116.2010098  11.6841936  80.6885624 116.1902714  12.5080752  81.1757278
 115.4204559  11.7225730  80.1358509 106.6916180   7.9483604  66.3311577
 106.1603546   8.2172281  67.0806265 106.4098167   8.5229695  65.6193686
   2.8219657  35.0177908  68.7721205   3.2588057  35.5877709  68.1392527
   2.8033881  34.1595745  68.3486176  70.7213818 100.9568168   4.3603966
  70.7972371 100.0389625   4.6212074  69.7789322 101.1087944   4.2903206
  65.1633870  86.5501477  16.6883156  65.9309136  86.6457106  16.1243889
  64.7135197  87.3926927  16.6253445   9.9936347  90.2881527  79.7351599
  10.8387332  90.7223797  79.6190643  10.2150588  89.3686676  79.8826551
 112.3358250  30.3138375  74.1797733 113.2794952  30.2430558  74.0358496
 112.1276855  29.5862103  74.7658300  69.2833060  93.8169069  89.1323566
  69.4028872  94.6062536  89.6604347  68.5452002  94.0221817  88.5585213
  58.8900887  48.6737998   6.3768932  58.8293396  48.9136125   5.4522202
  58.0362832  48.9070077   6.7414066 114.8744392  59.9416780  95.3832626
 114.5147324  59.1872358  94.9167252 114.9024105  60.6380033  94.7270775
 104.7162628  15.6431222  86.0777473 105.6515026  15.4740906  85.9637356
 104.6651840  16.5758359  86.2867165  64.1745888  86.9722010  10.2231571
  65.1119839  86.9635917  10.0296471  63.9980351  86.1063935  10.5911800
 106.6538239  13.3466458  79.6410513 106.4032269  13.6231184  80.5225277
 106.5113544  14.1215050  79.0974236  13.5872416  55.3313112  77.0209551
  13.0926661  55.0697041  77.7976084  12.9414515  55.7590294  76.4586020
   9.4546942  19.6146274  65.5210257  10.2543120  19.1426933  65.2884054
   9.3356280  19.4386458  66.4543438  84.4197178  28.1560254  89.8397064
  84.8477268  27.3555374  90.1434517  83.5853767  27.8586364  89.4768524
 103.0119801  40.3659582  69.4711447 103.6490440  40.8723545  68.9672089
 103.4716225  40.1396036  70.2796841   7.2878396  99.2514755  13.7531826
   6.5331685  99.0116598  13.2154247   8.0002152  99.3731214  13.1255314
  28.3281092  45.9486341  86.6107559  28.7027125  46.5865231  86.0033035
  28.5626082  45.0980616  86.2395954 114.3129253  44.4013834  92.3275566
 113.8812447  43.9625120  93.0605412 114.1768837  43.8148308  91.5834522
 112.7211285  39.6034980  83.7019539 112.4733067  38.6939669  83.5359192
 113.6782551  39.5934963  83.7089729   8.1065976  71.2533058   8.2385895
   7.3848187  71.5691890   7.6949951   8.2742344  71.9678940   8.8529942
 104.7426319   3.3661401  74.4660234 104.8571873   3.8269165  73.6348867
 105.1941013   3.9142001  75.1079273   4.4259791  15.3009164  77.7342033
   4.0657000  15.2528131  76.8487024   5.2438788  14.8058760  77.6872253
   7.1325718  87.3080923   0.8670017   6.5026604  87.0594026   1.5434620
   7.4697720  88.1566955   1.1540577 118.0241680   9.6812743  95.1894569
 117.2523499  10.2361000  95.0767708 118.7592888  10.2940953  95.2062416
  68.8257998 106.9382687  34.4734168  69.4591921 107.4747003  34.9501586
  68.3085936 107.5679390  33.9711833  98.4300423  36.8972468  50.8056641
  98.3558846  36.5908194  51.7094517  97.6608086  36.5349627  50.3660440
  91.1107063   5.2897644  73.5914469  91.2531757   6.1239803  73.1442118
  91.9689941   5.0588399  73.9467478   6.5532528  94.3804027  23.6451027
   7.0931756  95.1593878  23.7788746   6.0042130  94.3322422  24.4277069
  12.8984486  50.9133946  32.6542732  12.3646294  50.8113282  33.4422085
  13.1727540  51.8303462  32.6679298  61.6298311 100.0297184  67.5004911
  61.5424650 100.7162912  66.8392658  62.0293062 100.4694481  68.2510185
  78.1828594   8.0398810  93.5387421  78.7778044   8.2042336  92.8071308
  78.0890274   7.0875722  93.5618687  83.1276798  11.9185531  59.8979998
  82.4293613  12.2093236  59.3114519  83.3607864  12.7002442  60.3988504
 109.2325497  33.0131340  80.7574844 109.6345329  32.1659446  80.5653477
 109.7882748  33.6494780  80.3075314 113.2451344  23.3010054  60.3870344
 113.3392525  22.3546672  60.4957294 112.3086452  23.4331894  60.2395725
  25.7191996  13.3139515  79.7667599  26.1423640  12.7661097  79.1056728
  25.7205920  14.1923761  79.3864965  95.6010056  37.7263021  74.0946054
  95.2233696  38.2939982  74.7664261  95.0444984  37.8601956  73.3273983
  35.4884963  22.7265429  76.3454676  35.6480365  21.8122101  76.1114264
  34.7843509  23.0043793  75.7596111  56.9071536  19.5819807  69.6738577
  57.3203807  20.4413223  69.5901346  56.0946994  19.7523093  70.1504421
 106.3653088   1.2625550  87.6680565 106.1969471   0.3251648  87.5722218
 105.8649158   1.6693227  86.9606781  44.5540177  52.0465694   0.4816601
  45.2688157  52.6831423   0.4725430  44.7112977  51.5210585   1.2660954
  26.7690902  75.0703096  82.1382427  27.6020770  75.5365992  82.0679665
  26.1352782  75.6465054  81.7110348  32.4568229  18.3242381  77.5684071
  31.7607550  18.9710486  77.6840067  32.7591758  18.4557784  76.6697884
  24.2257153  48.5269036   1.5741131  23.9002835  47.6429631   1.4039013
  24.7445714  48.4412374   2.3739121  24.7794966  47.0941305  44.2498302
  24.7478347  48.0504608  44.2241240  25.7087760  46.8827629  44.1604567
  96.9081020  34.1624403  80.9829044  97.1328068  35.0893617  80.9019375
  95.9630680  34.1311979  80.8340073 111.8013954  49.9438047  93.9663124
 112.2343540  50.0893450  94.8075008 110.9042549  50.2483273  94.1028309
  44.1129433  80.2862574   7.1997711  43.7269055  79.8507287   7.9597160
  43.5681378  80.0097992   6.4628956  24.5591389  92.0003463   7.4459335
  25.3040635  92.1713759   8.0221912  23.9534890  91.4891864   7.9827187
   4.2696147  69.7188616  80.1806927   4.0762763  69.2070627  79.3952560
   5.0294738  69.2846966  80.5684471 111.7808723  53.6324739  74.2384291
 111.3925457  53.3170033  75.0544643 111.0508060  54.0296936  73.7636185
  41.7122303  92.5548436   6.1924240  41.3098275  92.6040389   5.3253052
  42.6228558  92.3150899   6.0206196  97.0345497  43.8300848  93.8358593
  96.3375664  43.2442188  93.5405540  97.8441334  43.3780766  93.5981750
   4.9315982  39.9531007  65.6216002   5.3695731  39.3540311  65.0170135
   5.6349807  40.2899170  66.1766148 104.2490959  21.9915462  93.3512115
 103.5323334  21.4220023  93.0717564 103.8747692  22.8723931  93.3364868
  17.4336200  83.4827995  58.2871819  17.6656680  83.5360146  57.3600626
  18.1457095  82.9810333  58.6838961  40.9531914  81.0610558   3.0428097
  40.9341275  82.0019390   3.2177422  41.3068139  80.6755163   3.8443920
  21.1270749  96.4219476  11.9226906  21.1871182  97.3574115  11.7289612
  21.0546814  96.0038282  11.0646889 101.6577816  50.8294201  74.6310711
 102.4198723  51.2476873  75.0316954 100.9152222  51.1355257  75.1517725
  60.8604180  95.5277683  23.2757542  60.6534230  96.4535524  23.1480381
  60.0092923  95.1061966  23.3944389   7.2034507  24.1773653  90.2861691
   8.0403571  24.2043161  89.8223972   6.6439490  23.6263657  89.7388172
  95.0671213  26.9967610   7.5214550  95.8027380  27.2586209   8.0751202
  95.4210489  26.3026482   6.9654247   7.4759917  50.7790565  89.5319843
   8.4316401  50.7574129  89.4819927   7.1841197  50.4072571  88.6996365
   3.2933001   3.7378162  65.2719879   3.0334334   3.1779656  64.5403719
   3.6803965   3.1363586  65.9080982  95.0856876  67.0367336  72.3603868
  95.3715611  66.4781284  73.0832100  94.4849300  67.6627636  72.7646160
  23.8154845  33.4255028  83.3029461  22.9827647  33.8869309  83.2035255
  24.1158919  33.6599827  84.1810226 112.9170227  24.9897146  87.3438358
 113.0071926  24.8570681  86.4001656 112.6877117  25.9145713  87.4348640
 101.1629200  39.1371536  68.0093098 101.1205006  38.3800530  68.5934591
 101.5397644  39.8336840  68.5469580  43.7189232  77.6991655   3.1554958
  44.2799984  76.9687988   2.8947517  42.9278599  77.5940658   2.6269218
  95.9351254  11.6540086  91.8134403  96.4387703  10.8507097  91.6819382
  96.5834427  12.3556769  91.7535496  25.8491646 101.3040353   8.6595985
  26.5926205 101.7602684   8.2654450  25.3976952 100.8979608   7.9196522
  16.3468413  21.3097835  71.7338037  16.9909911  22.0163703  71.7790031
  15.5662970  21.6699648  72.1548080   8.4586291  29.3304563  62.0254898
   8.0301242  28.4750485  62.0554590   8.6723189  29.5234060  62.9383612
  37.0274691  30.0772119  58.1835222  37.2108512  29.1509485  58.0265665
  36.4865451  30.0838161  58.9731979   7.6175360  24.8340106  74.3995953
   7.3356776  25.6951499  74.7081804   7.9410033  24.3922949  75.1847601
 105.7840919  44.0729952  68.2996750 105.6667995  44.5327711  69.1309881
 106.7329311  44.0328598  68.1799603  16.7394786  35.3552723  88.2777882
  16.1778312  34.5812726  88.2364655  16.6375499  35.6776214  89.1732979
 116.8782616  55.5785322  45.9843445 115.9422207  55.7132387  46.1323833
 117.1883392  56.4143467  45.6357718  22.8414475 111.1768057  15.5407879
  22.6929223 111.1719276  16.4863750  22.2525536 110.5023481  15.2023480
  84.6989744  21.8928963  20.6712887  84.1150683  21.9028098  19.9128696
  85.5575674  22.1220166  20.3155396  29.5970570  64.6495624   3.3979675
  30.4054295  65.1288916   3.2162735  29.6961056  63.8242836   2.9232666
  43.5835396  42.2476412   7.4270222  43.5673844  42.7094127   6.5887329
  42.7788006  41.7293562   7.4305222   1.4314990  17.3963773  80.8870316
   0.6386142  17.2016644  81.3866901   1.6146235  16.5901685  80.4046154
   2.1383702  67.7871598   5.2978680   2.5688492  66.9344546   5.3596088
   1.5191494  67.6910211   4.5743057 113.4112740   9.6318859  71.4659357
 113.9015198   8.8707119  71.1552906 113.8790035  10.3831780  71.1012220
  16.5768771  39.2616630  92.9815865  17.4554496  39.0864754  93.3187199
  16.0185199  39.2662525  93.7590504  19.6641974  11.7796838  94.0432167
  19.7361045  11.3255262  94.8827362  20.5349307  12.1486330  93.8951397
  11.8971192  99.1274168   7.1271011  11.5798699  99.3926288   6.2638256
  12.1883618  98.2234194   7.0079205  93.2576102  15.6015069   5.7102844
  93.4337729  16.4510066   6.1146996  93.0110472  15.0347907   6.4412186
   8.7020736  47.5338984  48.5076904   7.8965430  47.2518778  48.0743170
   8.6284117  48.4871769  48.5532475   9.8394732  44.2772818  76.1349344
   9.0321879  43.8311577  75.8790159   9.5549636  45.1496172  76.4075565
  94.0180588  34.1940355  79.9845076  93.8366222  33.2688212  79.8193026
  93.1536102  34.5960855  80.0699806 107.9908085  28.3318329  82.6289749
 108.4849358  29.1167307  82.8656483 108.1384468  27.7274609  83.3564186
 110.2700901  39.7371101  59.1667843 109.3822575  40.0236988  59.3809414
 110.8385944  40.3610134  59.6181917  33.6643635  67.6065685   0.6179211
  33.2654320  68.4192790   0.9287045  32.9431759  67.1257831   0.2117607
   0.9471659  27.2388291  84.2832565   0.5522685  26.6489768  83.6411095
   0.4976420  27.0354748  85.1035118  96.2719440  19.3013144  61.7847061
  95.8316708  19.9062169  61.1876440  96.2277126  19.7324944  62.6381445
  14.5481543   1.2020192  81.9327831  15.1876216   0.7033679  81.4241982
  14.5952945   0.8258178  82.8116894 102.9591179  13.4872663  58.4624243
 102.8582859  13.9804256  59.2765856 103.0126572  14.1577184  57.7813530
 114.1589642  70.7145357  95.7976723 114.2782211  71.6627026  95.7429695
 113.2717133  70.5654812  95.4708958  99.3952370  45.2887011  79.2916250
  99.2743206  44.5599127  79.9002981  99.7048855  46.0097218  79.8397923
  93.1561852  14.4899249  89.8647881  93.7906265  15.0758481  89.4519806
  93.3261299  13.6353755  89.4684315   8.2396655  62.3281193  80.4665470
   9.1101413  62.0510101  80.1806831   7.6463084  61.9758940  79.8031473
  26.7352919  35.9078455  74.5485830  26.1849646  35.5529642  73.8504219
  27.4582820  35.2850389  74.6236420   6.2911849  20.6458354  59.7031879
   7.0450835  21.1971116  59.4935179   5.6236224  21.2595010  60.0098038
 113.3220577  41.9643784  86.7842007 114.0537930  42.5071526  86.4906406
 112.5471783  42.5064182  86.6358948 113.5370827  42.8034830  82.5568008
 114.2114162  42.4177217  83.1159973 113.5186386  42.2420597  81.7817593
  19.6443402  88.6205103   7.3425362  19.2694031  88.2011081   6.5680954
  20.1286637  89.3707253   6.9978115  86.9224358  18.9162707  78.2888699
  87.0780373  18.4306729  77.4787998  86.0767555  18.5952222  78.6018944
 117.1188259  16.8311858  82.0091820 116.2836552  17.0892525  81.6191483
 117.1879959  15.8937228  81.8285942   0.2100901  18.3442903  88.8272762
   0.2499156  19.2810142  89.0201283   0.5926089  17.9246294  89.5978546
 107.0040131  53.5042810  91.6836452 107.6598740  53.4592438  90.9879017
 106.3599968  54.1367531  91.3651180  86.9090843  37.9099274  59.5866346
  87.2188473  37.1269822  59.1313553  86.3066959  38.3238339  58.9685488
 102.8559416  88.3981986  90.7817650 103.3755797  89.1943259  90.8930683
 103.2714098  87.9412980  90.0504208  90.3288174  26.5166283  83.3668327
  90.8371162  26.3789463  82.5675201  90.8029938  26.0277390  84.0394115
  19.3780761   3.8898057  80.6001282  20.3009944   3.7404600  80.3948593
  19.0530066   4.4181061  79.8711109   2.3626111 110.0714813  88.3572006
   1.6654466 109.7419445  87.7901173   2.7673886 110.7776443  87.8534985
  15.5070452  66.0015631  80.6515408  15.6399493  66.7762852  80.1052952
  14.6629100  66.1507607  81.0774612 112.1756935  65.4872894  85.9804630
 111.5511131  65.7919693  86.6387177 111.9774342  66.0088015  85.2026749
   4.0318255  34.2777634  83.6926556   4.5370631  34.4328904  82.8946018
   3.7206511  33.3765435  83.6077595  94.2643929  59.0173483  60.0881147
  93.4564495  58.8022089  59.6221113  94.3762016  59.9581861  59.9518919
 101.8147945   8.5088080  58.5946417 102.5749397   8.9892489  58.9226389
 101.3786983   9.1240597  58.0051327   8.4592186  78.9392735  33.9838764
   8.4331070  79.3095280  33.1015751   7.6367413  79.2192818  34.3855736
 100.1895714  31.1111021  47.6596928 100.7201672  31.2092233  48.4503031
  99.5501518  30.4346347  47.8827953 113.3205223  46.5702915  79.8958778
 114.1700363  46.5752745  79.4548178 113.4940434  46.9567251  80.7542419
  19.6276127  84.2741610  16.7103455  19.3336998  85.0665476  17.1597549
  19.1951500  83.5594084  17.1776077  18.8154082  56.4168501  39.4597197
  18.0928759  56.8069410  38.9677811  19.3867450  57.1549463  39.6719074
   1.5154986   7.5173837  94.1361332   0.9892802   8.3104205  94.0340233
   0.8828692   6.8388975  94.3720818  89.1051674  33.0776930  81.3704395
  88.9228249  33.9352846  81.7545223  89.2294788  32.4996567  82.1232033
  11.6102938  18.1955290  64.9543810  11.7305617  17.2529221  64.8392439
  12.3523764  18.5894620  64.4957352  10.4915099  42.0796967  53.5650444
   9.8764853  41.5110731  53.1017399   9.9942450  42.4116516  54.3125534
   6.3082557  11.6740727  50.7323074   6.7508368  12.5109172  50.8738756
   5.4234175  11.9145536  50.4575872  98.7850857   8.8908225  69.4336128
  98.4585667   9.6761316  69.8728228  99.1253185   8.3442104  70.1419067
  80.2042294  14.0617537  69.9683380  80.6447220  14.9013293  70.0999165
  79.5773697  14.2279124  69.2642975  51.8041819 107.7619864  93.1625175
  52.0441454 108.6807419  93.2830811  52.6394861 107.2945590  93.1604099
 118.1255531  21.5410352  90.8570957 117.4018955  20.9171486  90.7995129
 118.6323452  21.2506747  91.6154385  30.8638989 109.3475963   0.7641289
  29.9160706 109.2191030   0.8008644  31.2254082 108.4613849   0.7511589
 111.3106728  28.1281877  71.3742113 110.8693027  27.2810483  71.4357185
 110.7472610  28.7278676  71.8632793  97.4120045  30.1360679  77.4270916
  96.7691612  29.5132899  77.0877790  98.2443237  29.8501635  77.0506287
 106.2930202  10.6001210  80.3103256 106.3680840  11.5241730  80.0721550
 107.0298004  10.1782334  79.8682928 117.7409172  65.1463747  76.0387278
 118.2039833  65.1946115  75.2023840 118.4259415  65.2549601  76.6984034
 104.4281292  53.4370899  71.3747311 103.5572433  53.5161591  70.9854412
 104.9452496  52.9772377  70.7134008  88.9914799  17.2900629  81.9607067
  88.4966660  16.5469503  81.6154766  89.8885441  17.1397901  81.6625023
   5.1952414  78.1490135  83.6304760   4.8468833  77.5146008  84.2568874
   5.1164965  78.9928865  84.0753365 116.0663795  51.0499191  60.7331324
 116.0367775  50.1171398  60.5203342 116.0386086  51.0784006  61.6895056
  39.1859662  92.5296427   4.6278832  39.1213070  91.6521169   4.2510578
  38.3007466  92.8867580   4.5565388  38.8969552  86.1379863  10.2972099
  38.4028279  86.1696579  11.1163971  38.9048420  85.2112104  10.0579330
  61.4018648 106.9656093  47.4616909  60.8731859 107.2240008  46.7067337
  61.9042509 106.2106974  47.1551800  53.1966530 101.8752720   6.6519615
  52.6755272 101.8516733   5.8494064  54.0577446 102.1833851   6.3694260
   4.1808848  31.9338512  41.2281513   4.4536738  32.7735448  41.5979290
   3.4329753  32.1491814  40.6709337  17.4084430  42.0535326  67.6006413
  16.4893775  41.7860460  67.6001310  17.3878913  42.9808092  67.8372002
 105.0987434   3.1539765  89.6063423 104.5799732   3.8060623  89.1352844
 105.1068401   2.3911703  89.0281677  90.0353354 111.1544561  57.3766375
  90.1462954 112.1051666  57.3849964  90.1659983 110.8900499  58.2872677
  61.6719263  92.8569074  75.2563810  62.3751562  93.0673416  75.8707190
  60.8854693  92.8088887  75.7999039  12.3469023  36.3468719  47.8590441
  11.8432669  36.2013483  48.6599255  13.0090194  35.6556344  47.8635550
  92.0559216   5.8917940  90.3572273  92.2305202   6.6262025  90.9457779
  91.4004993   6.2261152  89.7449493 107.2557640  48.9918756  84.8713112
 107.6060104  49.8479128  85.1177979 106.3059044  49.0971947  84.9251556
  97.2304249  21.1601973  71.8981504  97.3987293  20.6159592  72.6673746
  96.6484737  21.8505645  72.2158813 118.1827354  42.3957396  24.4596219
 118.4384537  43.1527424  24.9866796 118.1047630  41.6800308  25.0904250
  38.6008900  25.6953484  47.9805443  37.6937693  25.9657819  47.8383038
  38.6019343  25.3125531  48.8578770  74.7336203  70.9579720  22.9652664
  74.4338733  71.2570907  22.1068356  74.3005687  71.5426220  23.5872719
  50.6797743  85.9196949  79.1985798  51.4464712  85.9891987  79.7674179
  49.9809551  86.3583374  79.6838379 112.2222675  22.3547370  43.0609104
 113.0380834  22.8529746  43.1102726 111.7173351  22.6461512  43.8200829
 113.5973013  33.0356366  19.3136951 113.5504569  33.9428288  19.0119812
 114.3473853  32.6665742  18.8474342   1.8539732   3.7336213  33.2285378
   1.8742388   3.5729653  34.1719410   2.7491730   3.5609967  32.9368946
  14.8092573  30.7006795  20.8523533  14.2919415  30.0816495  20.3371689
  14.3819922  30.7153470  21.7087719   2.3795098   0.8330685  12.6981232
   2.7924603   1.6859633  12.8332874   3.0110234   0.3417641  12.1727249
  98.8508255  80.2136018   2.3915360  98.3700163  79.8314597   3.1257221
  98.3364517  80.9813167   2.1420071  91.0754186  80.8371426  37.3476288
  90.7093746  81.6402318  37.7181599  90.8782989  80.1621772  37.9970810
  12.9140537  14.3663937   5.0098869  13.6976879  14.1906554   4.4890568
  12.8931111  15.3193957   5.0969955 115.6604780   9.0929515  25.3678391
 115.0983871   9.6443517  24.8235485 115.6869734   9.5394952  26.2140724
  91.2081081  66.4295913  23.1894753  92.0305855  66.9052805  23.3055756
  90.8801443  66.7222192  22.3391602 106.9839842 111.8004610  14.3702004
 107.5925237 111.3656236  13.7728474 106.5927917 111.0872270  14.8746750
  78.2269437  96.4651634   8.5131332  77.5315577  96.9631054   8.0833408
  77.8204400  95.6269623   8.7331459  86.0860140  77.6742365  80.7904026
  86.6905815  78.3206655  81.1549160  86.5637094  76.8461110  80.8377621
  51.2397957  68.0713797  93.8374519  50.4442835  67.6309061  93.5384941
  50.9860134  68.4929371  94.6584988  70.6844146 108.7670185  35.5509827
  71.2904698 108.6309435  36.2792751  71.2412221 109.0503599  34.8257801
  63.8008410 106.7564584  15.7453033  63.1835109 106.0261633  15.7877705
  64.4236714 106.5849735  16.4516327 101.6431743 101.9399454  17.7638504
 101.2904340 102.0771887  18.6430428 101.1369783 101.2064983  17.4144909
  34.5419901   5.9434850   7.4055836  34.3226689   5.1411778   6.9318363
  34.0109890   5.9046847   8.2010529  51.4929873 104.7489406   5.2015564
  51.9081182 104.5828249   6.0479137  52.1048922 105.3252413   4.7436497
  77.8225500 110.6422712  17.5772640  77.1157033 110.6679823  18.2221958
  78.1702668 109.7525551  17.6383469  79.8458606  89.9465634  53.2824394
  80.7610399  90.0484182  53.0210754  79.8695118  89.9385525  54.2393086
  79.1194088  85.3675248  21.9735596  78.3796007  85.7861687  21.5334961
  78.7201363  84.8471429  22.6707146  49.0235901  49.4549513  94.0366745
  48.4158468  49.5114326  94.7740269  49.7172213  50.0792503  94.2496395
  84.7914106  98.8969661  38.4341976  84.5709640  99.7698166  38.1089756
  83.9474565  98.4540273  38.5224030  82.0541269  91.5818598  24.1577217
  82.0921451  90.6302001  24.0621731  82.0684034  91.9134738  23.2599136
  59.5253498  81.9625284  14.4106743  58.7578434  81.3937427  14.4710991
  59.9048430  81.7626120  13.5549614  85.0106127  83.8386275  36.2647221
  85.5158884  84.3939544  35.6709740  85.0053913  82.9794409  35.8428261
  50.2995128  77.7334048  19.4757721  49.4103802  77.4845244  19.7282288
  50.8318145  76.9661380  19.6859810 109.2521793 111.4780094   9.9400970
 108.4949762 111.0125591  10.2953884 109.9640114 111.2760688  10.5473396
  49.8892069  81.4667320  79.9561405  49.0637398  81.9351673  80.0802708
  50.0452518  81.5023613  79.0124178   2.6479184 100.6066467  37.9333756
   3.0269467 101.0266639  38.7054894   3.1465851 100.9626724  37.1979782
  38.0881041   6.9408757  22.9922554  37.6852005   6.1186272  23.2711956
  37.3508852   7.5383574  22.8667328  71.9458961  41.8334818  92.6298714
  71.8689871  42.5926590  93.2077694  72.7039766  42.0278406  92.0787239
 112.9503614  98.9119865  14.4381401 112.9380209  98.2289507  15.1086113
 112.2231561  98.6899854  13.8566563  81.3123972  75.2719845  36.2530586
  81.0818798  75.5471303  35.3657028  81.5501243  76.0836269  36.7013332
  40.5765503  16.2196643  36.7609283  41.0657137  16.9606931  36.4033958
  39.6798056  16.3543612  36.4544365   4.8797768  17.9372889  35.1585552
   4.2244833  18.3144004  34.5715210   5.4407233  17.4135596  34.5864746
  77.1856624 101.2455751  30.5102608  77.1623093 102.1716882  30.2694199
  78.1039697 101.0758068  30.7203171  79.8093285   0.8515841  13.0435822
  79.3792433   1.5493686  13.5379097  79.1797266   0.6182486  12.3613903
  65.5399377  91.5312602  25.4331467  65.4773146  90.5894138  25.5920002
  65.4394919  91.9273450  26.2987492  56.3187212 103.5821296  21.6801998
  56.4586670 102.7256061  21.2764427  55.9337432 104.1148950  20.9843609
 103.1162990  10.8680112  29.8363659 103.2549656  10.9905392  30.7755062
 103.7948311  10.2462727  29.5731804   1.1902493  23.3824927  33.2530758
   1.2043255  24.0205342  33.9664719   1.5388458  22.5804288  33.6421749
   2.4315297 107.9946138  48.6575386   1.6835057 108.5594417  48.4634850
   2.0425450 107.1963073  49.0147945  74.0114958  83.9586450   6.2379047
  73.2719499  84.5615889   6.3138172  74.4011528  83.9462806   7.1121189
  40.1184576   8.6381680  23.5232517  39.5204705   7.9264123  23.2951138
  40.8584612   8.5300452  22.9258034  55.9008169  52.1581745  87.6211929
  56.8234110  52.2490501  87.8595161  55.6550646  53.0189991  87.2823334
  47.1763754  50.5851412  90.8870983  47.8124762  49.9520445  91.2199497
  47.5574255  51.4386272  91.0934830 103.3660204 110.1236965   3.7950680
 104.0915949 110.6513025   4.1288445 103.1158811 109.5667745   4.5322964
  67.4988747  24.5646262  90.7138824  67.5734949  24.5018840  89.7616577
  67.1831179  25.4544353  90.8712769  22.3662615  47.1780491  69.8912954
  22.2542334  46.3369942  70.3343582  21.4824533  47.5422812  69.8417950
  23.0426138  29.6223504  37.4429390  23.7172478  29.8653275  38.0770275
  22.7684468  30.4532105  37.0546982 104.8498852  84.2459251  28.7526581
 105.7991964  84.1343023  28.8034126 104.6930153  84.5609643  27.8625080
  46.9623756  39.2431355  90.1819801  47.2822285  38.6042881  90.8190060
  46.0099840  39.2171144  90.2741909 117.7206672   2.3525006  22.2619793
 118.2366003   3.1586272  22.2476837 118.3480705   1.6627175  22.0456574
   9.0211903  88.6499502  25.4148266   9.2097889  88.1787540  26.2263939
   9.4560944  89.4958355  25.5223915  23.3355015  15.3646571  20.6104919
  22.4927634  15.1351125  20.2189133  23.8412731  15.7379681  19.8886463
   3.2851475   0.4469687   9.1525147   2.4525803   0.6529862   8.7275192
   3.9241665   1.0067803   8.7114880  23.2458340 108.9210464  21.5112278
  23.6731183 108.0672027  21.5791485  22.7139412 108.9864685  22.3043510
 101.4043361  99.7503521  29.4026253 102.3048860  99.4326450  29.3369839
 101.3641960 100.4847576  28.7900326 113.2420791  13.3848054  13.6706230
 113.1208957  12.9564435  14.5180008 112.6630557  14.1463620  13.7022373
  86.8231518  67.1242906  15.0401089  87.3094875  66.2998451  15.0409195
  87.4558384  67.7758838  15.3423759  17.1783703   1.4130170  10.4562542
  18.0682533   1.4336449  10.1042435  17.2740048   1.0263974  11.3266537
  84.9613888 102.2626020  45.7874653  85.3177959 102.5437881  46.6301701
  85.3424389 102.8686334  45.1520416  87.5976307 111.1628916   7.9051945
  87.4887830 111.2428238   6.9575665  88.3748562 110.6144096   8.0115864
  51.0322046  60.8327055  90.5324841  51.3051128  61.1154556  89.6596718
  50.2489567  61.3506985  90.7180595   1.6628968 106.3500072  16.2526295
   2.1225010 106.5910007  17.0569489   0.9119927 105.8365537  16.5505192
  99.6098263  69.3739440  42.5057003 100.4412967  69.7273280  42.8219387
  99.0141041  69.4609071  43.2498714 116.2734092  22.0383603  48.9112732
 117.0031012  21.4806563  48.6415550 116.6079105  22.9306704  48.8211891
  91.4210207  81.4208509  14.7226879  90.6270296  81.0934331  15.1453087
  91.4876348  82.3312594  15.0106880  38.2611006  26.9612271  40.8334133
  38.4904688  26.4062745  40.0879929  38.1642168  26.3516099  41.5649960
   5.6631153  18.1337411  17.6433346   5.7587164  17.3569018  17.0923302
   5.8718985  18.8659818  17.0632813  82.3826694  21.0651875  88.5934258
  82.7310562  20.5911779  89.3485165  82.3677158  20.4166412  87.8895760
  30.8142543  22.8225231  85.2911091  30.3662920  22.0164609  85.0345421
  30.1528144  23.3222008  85.7697010  51.0375595  54.5045137  89.6667004
  51.9453526  54.3898249  89.3856621  51.1007166  54.9947929  90.4863834
 100.2051384 100.0126363  16.4303371 100.9587700  99.4437410  16.2733814
  99.5876533  99.4641496  16.9141743  12.6477593  18.8262278  40.9978172
  12.9770392  19.6779734  40.7108757  11.7269152  18.8250262  40.7365200
  18.7433975  23.0633647  25.8274433  19.0105265  23.6413962  25.1127789
  19.4394463  22.4082810  25.8785698  94.5112306  93.2389452   8.4529182
  94.7127992  93.4087516   9.3731186  93.9212448  93.9496662   8.2018635
  46.7520189  64.3826723  89.0141392  47.6530409  64.7038603  88.9791393
  46.8101740  63.5583830  89.4972515  80.0610286  94.6781184  37.4954674
  80.1182253  95.2987529  38.2219479  80.0380117  95.2277590  36.7121479
  94.0747864  74.8244228  38.6633942  94.6115333  74.2076291  38.1657002
  93.1809122  74.4958283  38.5672543  23.4194964   3.7727172   8.5343525
  22.7527588   4.3416793   8.1496784  24.2004936   4.3232352   8.5909340
  85.1116640  70.4853000  59.5312378  85.8203346  69.8485662  59.6239254
  85.1963979  71.0513391  60.2984783  78.4431698   8.5008771  11.3400051
  78.1519809   7.8006226  11.9240353  77.9246652   8.3803994  10.5444786
  78.1097442  92.9839613   8.2765553  78.7539632  93.2875635   7.6369926
  78.5692794  92.3106696   8.7782929  11.5438193   9.2704875  22.3349258
  10.7543820   9.5763213  22.7815601  11.3979643   8.3333594  22.2055122
  22.6899147  47.7214098  89.6144676  23.2823324  46.9708872  89.6590805
  22.4865484  47.8109980  88.6834145  60.8333475 100.0251009  20.3466770
  61.5524465 100.2673103  20.9301636  60.0465566 100.3364660  20.7941601
 101.4767582 105.7951738  10.5766747 101.8701727 106.2039663   9.8057339
 102.2170908 105.6137897  11.1556694 113.3256036  90.0816776  50.7331440
 114.2643959  90.1973488  50.8798382 112.9113132  90.5178334  51.4776966
  59.6663839  97.0353891  12.8233215  58.8822383  96.9958212  13.3708450
  60.2846033  96.4399339  13.2469627  10.0175589   4.0962464  38.5933563
  10.4551285   3.8136870  39.3964264  10.4986542   3.6578662  37.8914997
 103.2771570 105.4027988  44.1436550 103.4834511 105.3952409  43.2089779
 104.0533859 105.7805301  44.5572063  18.8180178  30.4821069  18.7900230
  19.1083830  30.8185727  19.6377918  19.6254557  30.2237756  18.3455631
  88.7601120 107.6805879  24.8405525  88.3373672 106.9288112  24.4253990
  89.6961242 107.5353719  24.7026226 110.6100971 108.0422785  27.5795147
 111.0928518 108.6851551  27.0600006 110.6885702 107.2267534  27.0845482
  20.4763430  49.3736512   8.1003258  20.8412998  48.7000901   8.6742279
  21.2407320  49.7812230   7.6931068  50.4375792  43.0551052  85.4780865
  50.3141069  43.0475426  84.5289135  50.8085775  43.9175701  85.6644917
 108.3536876  35.5787904  32.3732922 107.9414500  36.3018853  32.8459808
 108.2150901  34.8158604  32.9345104 103.4412557 102.5526191  20.9171745
 103.9392597 101.7408468  20.8210156 102.5252849 102.2753860  20.8979198
   3.7828511   3.0839736  13.1441757   4.1731518   2.7540309  13.9535114
   3.6142653   4.0097339  13.3196137  70.0585014  84.2316176  21.5475628
  70.7846576  83.6462833  21.7627689  69.4115073  84.0733959  22.2350189
  49.7327423  78.4275627  93.3041573  50.3578138  78.2024527  93.9932442
  49.6918344  77.6458883  92.7532005  78.6020524 100.2585603  26.1811516
  78.6983830 101.0852434  26.6539642  78.0028111  99.7425844  26.7205116
  16.7049902  16.9774396  21.4088127  16.9572275  17.8933532  21.5258953
  16.8923777  16.5675694  22.2532723 114.5404512  93.2455780  53.4884808
 113.8650257  92.6139595  53.2413075 114.1533691  93.7396743  54.2111656
  50.0708216  16.1542899  43.7883446  50.9381598  16.4645869  44.0484974
  50.2288264  15.2875811  43.4140656  77.3763960   3.6534793  38.2869885
  77.5392264   4.2400557  39.0256664  76.8471068   4.1723306  37.6812813
 118.1051189  99.6033718  63.9287922 118.8135607  99.1137697  63.5108921
 117.3047764  99.1914512  63.6032078   0.5464738  10.2249247  41.6389248
   0.7772177  11.0053498  42.1428368   0.0748461  10.5623299  40.8773777
  10.3161877  14.2577178   4.1371128   9.7277611  13.9922244   4.8438713
  11.1940973  14.1480786   4.5024750  97.0418293 104.5479395  40.6765244
  96.2211305 105.0337507  40.7582256  97.0995361 104.0376617  41.4843056
  10.6622427  34.8153264   1.4514420  10.5003327  35.7528741   1.3464901
  10.4646557  34.4405801   0.5930969 110.7213575 100.5367567   0.6522438
 110.1003439 100.9283306   0.0380394 111.5682728 100.9090473   0.4065392
  13.7686669 108.4204818  24.3144962  13.1408249 108.4235002  23.5919735
  14.5284592 107.9514457  23.9695999 109.5509702  55.2595291   2.8704521
 108.7863189  55.0069958   3.3879158 109.1952879  55.8019173   2.1665070
  43.6542979  85.4872514  15.3738281  43.1566313  84.9325778  15.9745762
  43.3743898  85.2076937  14.5022080  26.4988249  22.3454339   2.8349564
  25.8459585  21.6662747   2.6654408  26.0995930  23.1496150   2.5030872
   9.7885531  11.2176329  14.8245594   9.9936026  11.3690574  15.7471916
  10.4361981  11.7360694  14.3470547 110.0931865  94.3693425   7.3072216
 109.3283827  94.3719699   7.8828022 109.7277195  94.4021465   6.4231464
  11.9430416   1.1370141  10.7610199  12.3314398   1.1145455  11.6355869
  12.5400179   1.6814477  10.2477428  30.7043188   5.6857259   6.0103390
  30.5628079   5.3777987   5.1151440  31.2886494   6.4379031   5.9153435
  37.9053593  52.6836109  90.2387047  37.1042562  52.7783394  89.7234440
  38.2832527  51.8550825  89.9437904 102.8010643  17.4609238   1.4541885
 103.3445133  17.7407843   0.7175991 102.6599134  16.5258557   1.3060257
 100.5348951 107.9464103  12.7605221 101.2319690 107.2939254  12.8282520
  99.8968965 107.6851036  13.4245369   9.0877360  33.5304505  34.3522427
   9.6498602  33.5887677  35.1248047   9.2025345  32.6330239  34.0397045
  73.5237724 108.4379913  14.0290138  74.3654353 108.6360933  13.6184094
  73.1921989 107.6827528  13.5433075  62.7799422 100.3027202  22.3232338
  62.8210456 100.6516744  23.2136128  63.6601693  99.9651910  22.1573994
  58.5887194  98.8537407  92.8426552  58.6008072  97.9273891  92.6019287
  59.4236088  98.9962387  93.2886124 111.1078704  37.5076253  27.4436733
 111.6937912  38.0004460  26.8691704 111.3949908  36.5987260  27.3558971
  17.1710747  13.2707555  20.3478500  17.5637739  13.2995421  21.2203095
  16.3478296  13.7503821  20.4397938  19.8264569  22.7971417  33.8163158
  20.4060572  22.2281844  34.3228600  20.4168766  23.4038455  33.3696148
   0.8061379  25.2346570  11.6370079  -0.0176794  25.6362397  11.9132111
   1.4295309  25.9605557  11.6109154  47.9164904  25.6435830  29.0985462
  48.0071276  25.7034642  28.1475327  48.5522764  24.9768216  29.3582222
  23.6877125  12.5134713  27.5353691  23.2812756  13.3744103  27.6344845
  24.5920580  12.6411254  27.8218815 100.2448112  98.2958461  12.3698589
  99.4175846  98.7451030  12.5433418 100.6113989  98.7528469  11.6128990
  40.5940008  89.6008015  87.6777077  40.8946419  88.7985420  87.2508240
  41.3941860  90.1008987  87.8384495  37.8538626  43.2763917   7.3422024
  38.7968415  43.2545239   7.5051376  37.6567476  44.2022473   7.2001621
 100.0179559 110.5871488  11.9393036 100.0579006 109.7093202  12.3188469
  99.8495704 111.1631014  12.6850578  70.1065857  98.7400963  52.9718182
  69.9293668  97.8547622  53.2896492  70.9268195  98.6600782  52.4849484
 108.3215267 103.7996580   4.2140743 108.2282812 104.1319277   3.3212444
 107.6756794 104.2914011   4.7213146  89.1601372  78.7381649  94.7679710
  88.4832287  79.1315222  94.2172527  89.0206909  77.7950811  94.6820450
   7.0749872  21.6583020  12.2670910   6.3075131  21.4019400  12.7784512
   7.0729130  22.6150805  12.2953102  23.6938732  41.3393266  33.8124821
  22.7405470  41.3389832  33.8984558  23.9358490  42.2652203  33.8327381
  54.5958233  32.9074907  91.4324760  53.8790607  33.0068779  92.0590591
  54.1609812  32.7842784  90.5886936  -0.1860155  96.2222482  33.6210510
  -0.0833047  95.4154469  34.1257832   0.6943642  96.5962984  33.5855839
  42.0829317  92.5486495   3.1941387  42.3843670  91.9890739   2.4784252
  41.1280472  92.4959852   3.1534645  27.9417914  41.1863763  44.6907684
  28.1220024  40.4606683  45.2883598  27.0416897  41.0394532  44.4001457
  34.9720782  27.6944405  22.4282620  34.1185921  27.2989041  22.2512028
  35.3772991  27.7857167  21.5658829  17.6726692  29.4759709  14.3792316
  18.5055130  29.9421269  14.4520351  17.9089850  28.5510308  14.4490788
  72.5155741 109.4822981  18.5186264  72.2126180 109.0730383  17.7080986
  72.8179676 108.7513067  19.0575478  31.0058134  46.6690404   5.3088162
  31.5239447  47.4730450   5.3456566  31.1987704  46.2990147   4.4473812
  19.6713656   0.2994162  22.0649311  19.5810240   0.3044421  21.1120102
  20.4656428   0.8065087  22.2328922  40.6362456  14.4033629  11.5563271
  40.8989924  14.8598630  10.7570812  40.4221218  15.1036507  12.1727631
 105.3460676  79.4728018  44.9952862 104.5486242  78.9623596  45.1358482
 105.5948145  79.2841555  44.0904209 112.2217018  99.9407198  37.7393696
 112.1924097  99.7203495  36.8083355 112.0738441 100.8860399  37.7665112
  65.6215715  31.2017751  95.5823421  65.8824110  31.9848442  96.0671043
  64.6843576  31.1137581  95.7558823  12.9003941 108.6960365  41.1083862
  12.6717030 109.4956400  41.5822670  12.0579659 108.3167936  40.8579609
  77.5753641  78.9345169  91.9207382  77.7061892  78.7754536  92.8555202
  77.7809572  79.8621321  91.8045521  89.4188291 103.8435222  71.4551327
  89.4629032 104.7411586  71.1256763  89.9863703 103.3446075  70.8675739
  31.8260210  13.6972958  15.5093548  31.7032974  13.9358384  14.5905182
  30.9403294  13.5390956  15.8360931  48.0491924  98.1490421  82.3244286
  47.7558947  97.2949982  82.6419544  47.4145842  98.7690258  82.6837635
  22.5993746   0.2979094   9.8019669  23.3780449   0.4897935  10.3245422
  22.0434874  -0.2219575  10.3824493  31.9269913  15.1815659  20.5987999
  31.8153542  15.1243789  19.6498463  31.0754364  14.9292571  20.9557697
  37.9799336  17.4806220  53.5711548  37.1757858  17.0497615  53.2814285
  38.6795490  16.8804318  53.3131954  91.2514002 105.4174377  36.2946770
  90.3889019 105.0362970  36.1301872  91.1334068 106.3541176  36.1367390
  41.7670840  16.7540557  14.4113800  42.2153872  17.4607283  14.8760006
  42.4263590  16.0648639  14.3300697   2.7340352  92.7831198   3.3152744
   2.2884976  92.1984936   2.7021286   2.1131360  92.8931977   4.0354034
  73.3184450   6.6030127  44.8801872  72.8590983   6.1621339  45.5949375
  72.6678580   7.1989114  44.5088837  20.6092041   9.3141515  11.9408104
  20.0908154   9.7536427  11.2667534  20.0367373   8.6208159  12.2691319
  16.0774725   2.4014003  14.1566250  16.5723437   3.2205684  14.1738388
  16.7002886   1.7389972  14.4558975  91.9268448  98.3539774   6.0154030
  91.1773569  97.9677774   5.5622456  92.1331007  99.1403009   5.5100414
  18.5487765  32.0473439  10.2661488  18.0538243  32.3278577  11.0359356
  18.3268088  32.6892621   9.5916817  47.7235621   8.8665158  13.5570309
  46.8670481   9.2211730  13.7954399  48.2370871   8.9184005  14.3631527
  44.3633097  26.2689072  34.9711391  43.9344424  26.3392884  35.8239910
  43.8138598  25.6611592  34.4761822 116.7134202   1.9795472   8.0544254
 116.3883222   2.7409751   8.5348103 116.4739383   1.2312562   8.6011860
 118.4629089 108.9594127  67.9844830 117.9079468 108.9820053  67.2049114
 118.1116993 108.2389070  68.5077068  96.0526544  99.5474197  15.7486698
  95.9176714 100.3872825  16.1875793  96.4437134  99.7777225  14.9058983
  98.7944061  90.0503971  14.1771099  99.4069797  89.6879269  14.8171112
  99.3499977  90.3551103  13.4596798  25.7170742   6.5959508  22.9790375
  25.3761070   5.8113200  22.5497028  26.4239376   6.2746722  23.5388157
  45.7939070  16.2848670  30.5081818  46.5988940  16.0478694  30.9686920
  45.3839033  15.4464585  30.2955601  97.0437622  61.1475849  87.1563435
  96.1031818  61.3064051  87.2358799  97.1210861  60.5232954  86.4348793
  41.2607496  22.0078666  30.2938911  40.9047907  22.8243214  30.6445000
  42.0197600  21.8207700  30.8462879  16.0882920   4.1814143  34.2219040
  16.4717692   4.3150384  33.3551189  15.8627718   5.0618131  34.5223496
  92.2151071  72.0689549   5.6707737  91.8511230  72.0641233   6.5560505
  91.4746029  71.8474604   5.1061317  98.6695368  93.4279968   4.2020962
  99.4737322  93.8970901   3.9797184  98.7974674  93.1498815   5.1090214
  26.0935181  48.7630326   9.9662468  26.2235277  47.9922253  10.5186913
  26.8332594  49.3339593  10.1737473  40.7846754   2.5992019  45.9344170
  41.2011641   1.7388398  45.9849426  40.1023596   2.5747687  46.6052982
  75.0903899  95.2978207  26.5372917  76.0027630  95.0481297  26.6837952
  74.6220094  94.9496891  27.2960064  14.0594309  11.8445737  15.2632210
  14.5232838  11.4670140  14.5158836  14.7175616  12.3777587  15.7091019
  89.5625526 100.1272775  33.6597702  90.4385120 100.2231600  33.2859680
  89.3451816 100.9999468  33.9875385 108.9832629  29.2630345  39.6583626
 109.3282021  29.9316842  39.0666267 108.0542506  29.4765240  39.7454903
  90.5741531 102.3498871  30.0346062  90.4673797 101.4128067  30.1980564
  89.8571331 102.7605249  30.5178043  86.0930252  86.0446930  95.2178001
  86.5517712  85.7974529  94.4148922  85.4383183  86.6822243  94.9329472
  93.3229364   3.3038718  49.0419075  93.8122047   4.0632111  48.7252781
  92.4128986   3.5994298  49.0685436  67.2827465 101.1329176  32.8969833
  66.4095456 100.8559849  32.6193783  67.8588254 100.4194500  32.6225349
 103.1633360 102.9521324  40.7971069 102.7700311 102.8269436  41.6607449
 102.4578506 102.7532007  40.1815197  11.8958491  12.4910027  14.0848419
  12.2555941  12.8324134  13.2661507  12.6584404  12.1698958  14.5660660
  88.4105331 110.0585701  39.8318741  89.3090278 110.3748466  39.9262878
  87.9904920 110.6985094  39.2571804  70.0532371  94.1618230   4.8039314
  69.1462142  94.4676115   4.8096630  70.3885133  94.4226481   3.9461491
  35.2132392  61.2038136  95.5762768  36.0216451  61.3270426  95.0787544
  35.0291681  62.0650387  95.9512997  58.8810349  96.1418533  92.4772072
  58.1542587  95.5813217  92.2054958  59.2345285  95.7143784  93.2572937
  87.3682815 106.4387228  31.1770222  88.2484180 106.7521574  30.9688160
  87.5037510 105.7781364  31.8563625 100.9620172  88.6996247  53.1227753
 100.6416780  87.9658415  52.5982067 100.2838594  89.3696453  53.0367062
  44.8453569  44.8082209  94.8441124  45.4882669  44.3166971  95.3552914
  44.8505497  45.6837559  95.2309513  32.0231032  79.4575930  78.1626606
  31.7881513  79.3564939  79.0850544  32.9225302  79.1347075  78.1078196
  33.7103772  56.5759420  94.2981243  33.9800549  57.3131990  93.7504387
  34.2196178  56.6761732  95.1024055  39.2475432   9.6104390  14.9134132
  39.6921414   9.8646313  14.1047451  39.2075365  10.4163987  15.4282639
  47.9385012  36.1371953  35.9034035  47.4859637  36.5972096  35.1964161
  47.8588408  35.2108342  35.6759045 115.0116123  31.2590272  25.6750271
 114.9358953  32.1782357  25.4189846 114.9341572  31.2689740  26.6290352
  55.6701183  55.0489140  87.3827934  55.5263853  55.7286119  86.7243195
  56.4942884  55.2935934  87.8036308  61.7189425  32.7742822  31.3317940
  62.3014181  32.2612054  30.7716915  60.9254950  32.8908307  30.8092091
 110.4752863   4.3236071  22.6357529 111.0379399   3.5888583  22.3912117
 110.9239067   4.7329242  23.3756420  46.1110037  17.1936757   1.5446255
  45.6958693  16.3311822   1.5451119  45.4706114  17.7674825   1.1240646
   5.9322422  37.9519231  40.3127739   6.0920161  38.8950116  40.3487179
   6.8008393  37.5659901  40.1995346  19.4332045  12.4436957  13.5549805
  19.2519921  12.2282559  14.4698402  19.8239105  11.6477544  13.1943390
 112.7850164  11.6215283  48.0317566 113.5250152  11.0304124  47.8931210
 112.6375736  12.0253712  47.1765301  23.6092108  32.2751767  14.6965954
  23.8221281  31.4527089  14.2556355  23.1495207  32.7903611  14.0336391
 109.1226042  25.4983575   7.1325562 109.8672284  26.0855443   7.0022842
 109.2830265  24.7710854   6.5312454  48.9668274  76.9183731  59.5945311
  49.4872141  77.4402189  60.2053595  48.8754177  77.4752188  58.8213587
  33.4189957  11.2520129  39.1784164  32.6126211  10.7763154  39.3776772
  34.0810507  10.8460862  39.7380039 104.9578172  79.0344836  35.7023308
 104.9185306  78.1622888  35.3099415 104.9525911  79.6334626  34.9557182
  35.7665795  12.7179629  62.7663490  35.0307339  12.1489484  62.5405380
  35.4120224  13.6047704  62.7023670  63.1685942   6.6698319  48.0533764
  63.2503241   7.5118453  47.6055309  63.6116331   6.8004615  48.8917515
  98.0612642  84.3187763  46.3956520  97.7796346  85.1485421  46.0104153
  99.0127880  84.3171026  46.2915585  39.5849102  33.0006463  15.6616947
  39.6531456  33.5625035  14.8897430  40.0681561  33.4690720  16.3423416
  14.9573200   0.4812486  23.6533806  15.9038418   0.3814847  23.5515282
  14.7793024   1.3784272  23.3712265  50.2400606  19.4409043  11.8411896
  50.8368128  20.1488311  12.0840046  49.3678492  19.8296696  11.9071266
  25.4547423  21.9065196  42.6369259  26.2370985  22.1913058  43.1091950
  25.5740231  22.2452361  41.7496368   4.7704380  30.1281411  18.7624714
   5.3426617  30.6817681  18.2311604   3.8908880  30.4708344  18.6037800
  55.3618544  46.0317189  55.5465004  55.3390043  45.6100613  56.4055225
  56.0726279  45.5900819  55.0817463   5.3692406  41.9802529  13.7294838
   6.3052481  41.8383939  13.8708851   5.1196163  41.3125760  13.0906460
  42.1141833  43.6532933  53.6830780  41.3859289  44.0781075  53.2298443
  42.8294485  43.6611897  53.0470249 105.3163517  25.4489095  28.6789105
 105.3018130  25.5147797  29.6337292 105.1001275  24.5340497  28.4986279
 112.7068168 107.6861383   7.8744576 113.4316665 107.4877741   8.4673092
 112.7817804 108.6262323   7.7106354  91.3075430  93.1157901   3.3278439
  91.6645939  93.6867167   4.0081284  90.3639538  93.1126978   3.4886810
  44.6927565  32.1355302  46.3653252  45.3765314  32.0128304  45.7068321
  45.0279539  32.8302533  46.9321034  46.9558811  61.7032719  88.8766861
  46.4789867  61.6056681  88.0525017  47.8767204  61.6081095  88.6332989
  59.8889858 108.2486393  27.7424309  60.4721982 107.5650980  28.0723831
  59.0459723 108.0648185  28.1568882 100.4733354 107.9040624  31.1032936
 100.8859903 107.8767397  31.9665501 101.1991102 108.0445577  30.4952309
  62.9433745  12.1198279  38.0604145  63.8807982  12.3133618  38.0575153
  62.7679270  11.7982728  38.9447472  31.2551993  10.6454284  13.6432621
  32.0428913  10.6570632  14.1869900  31.5086144  11.1081750  12.8445885
  97.6097275  29.6728474  10.4109642  98.0129326  30.4796368  10.7315037
  97.0797075  29.3619782  11.1449120  47.2479552  22.1228272  45.7943890
  48.0600756  22.1109254  46.3009045  47.2763746  21.3178260  45.2772877
  10.9277600  12.4649102  37.5773308  11.5812510  12.8271014  36.9790051
  10.8422392  11.5490109  37.3126766  65.6297493  56.6768789  93.6634731
  64.6975517  56.4599800  93.6773968  65.7779121  57.1496773  94.4824600
   4.9412381 108.6135866  23.4092590   5.6125962 108.5561945  22.7293942
   5.2312504 109.3313219  23.9722702  54.8226971  92.7423407  10.4173252
  54.2131848  93.3864690  10.0570175  55.6340176  93.2312180  10.5551216
 100.5098421  90.5769469  42.2411797 101.1127884  90.9385659  41.5916321
  99.7617132  90.2701761  41.7289040  23.2431483  35.4679942  72.0594501
  23.0263305  35.0670457  71.2177467  23.1776047  34.7510290  72.6902390
  60.6787205  49.6417189  91.9244862  61.0778189  48.7767649  92.0183277
  60.3467321  49.6562052  91.0268211  41.7669439  44.4872904  94.8342419
  42.6788330  44.7401857  94.9782467  41.7986965  43.8932276  94.0843678
   2.3631266  51.5882587  81.3247490   2.2891380  50.8326864  80.7417679
   2.9575145  51.2992430  82.0171452  66.2170011  76.6711928  40.6770203
  66.3834745  76.2863542  41.5374920  65.2668936  76.7828109  40.6443188
  32.0258999  14.9508226  84.8528385  32.2852468  15.1882041  83.9625454
  31.7468023  14.0376890  84.7855759  43.5555601  26.5865183  93.6089230
  43.9856958  25.8015442  93.9480782  42.8934383  26.2539411  93.0029392
  60.8916003  82.2106077  21.1133358  61.3158948  81.3806988  21.3311836
  60.0017888  81.9653632  20.8597157  52.6751947  50.9752178  86.8423367
  51.7839384  50.6524372  86.7092705  52.5991869  51.9264126  86.7669868
  88.5798675  65.2398802  35.9387657  88.8837225  65.1966252  36.8454239
  87.8412563  64.6320070  35.9044430  89.2299110  59.4787021  24.8004791
  89.2334873  60.3886233  25.0975678  89.3723232  58.9663296  25.5963585
  43.1926823  38.6452770  72.8737307  42.5397110  39.2975116  73.1275988
  43.9952803  38.9262223  73.3132076   1.7778527  93.1315400  15.9895870
   1.9220864  92.2018410  15.8132717   2.0250737  93.5708143  15.1758644
  72.6578552  58.0277646  25.4043362  72.7339393  57.8078610  26.3328239
  72.5178344  57.1865301  24.9696514   0.0091588  34.8554422  35.3540680
   0.8713376  35.2308680  35.5327866  -0.6012500  35.5789210  35.4962322
  73.9151955  25.9325075  85.9088326  73.5708189  25.6432486  85.0638676
  74.8439312  25.7025719  85.8803558   5.6543225   6.3460118   4.4919083
   4.9242228   6.2397010   3.8820812   5.4661244   7.1649033   4.9504063
  13.0672598  77.3984671  94.8972893  13.6608982  77.8269053  95.5139446
  13.6440754  76.9129801  94.3075275  82.7290327  85.0666691   2.2459957
  82.1200735  84.7897889   2.9306480  82.5567037  84.4708730   1.5169117
 117.5608093  98.2149603  20.0460789 117.3241598  97.2906877  20.1232025
 117.4557001  98.4122564  19.1153500 103.9945347  82.5288011   2.5396606
 103.1830198  82.0297815   2.4466202 103.9327127  83.2130243   1.8731377
 102.6951629  99.7092439  20.0529739 102.5758821  99.5860006  20.9946796
 101.8449957  99.4879486  19.6728680 106.2321884 102.1559622  24.3346951
 106.7739374 102.1089794  25.1224300 106.3396341 101.3005830  23.9187500
  94.7753334  24.6290779  70.6338167  94.2713356  25.2354360  71.1765385
  95.0201321  25.1431441  69.8643732  74.5367718  42.0314693  85.0987148
  74.6249914  42.9636526  84.9000072  73.6447668  41.8125057  84.8292446
  55.8291156  77.2042181   7.5709126  54.9176020  77.3382737   7.3112843
  56.3311393  77.3572685   6.7704269  75.1054955  30.3281140  87.3087406
  74.3828583  30.7491970  86.8432140  75.6830454  31.0497832  87.5574589
  27.7842140  38.7906122  74.8493290  27.5918865  37.8620052  74.7192144
  28.3210969  39.0320587  74.0945482  67.2908336  87.1979500   8.9775726
  67.2441513  86.6220857   9.7407505  68.1338054  86.9921948   8.5734722
  48.8963270  62.5063324  83.7632084  48.1672096  62.1108484  83.2854939
  48.5222006  63.2904339  84.1650009   0.6091517 105.4766281  91.4060974
   1.1544626 105.1594133  90.6862068  -0.2889473 105.3394569  91.1047077
  97.4698526  81.8272616  29.1392586  97.5220472  82.6952531  28.7391254
  97.9770214  81.9051339  29.9473068  91.5087778  95.2476551  27.0581696
  91.4411957  96.0499860  27.5757954  90.6270534  95.1113226  26.7114613
  44.2233562  26.4878726  88.1036568  44.5188046  25.8794022  88.7809372
  43.5074520  26.9733310  88.5135937 106.1479933  77.0087077  11.8428108
 105.6214411  76.4338209  11.2874100 105.8715803  76.7988350  12.7348778
  43.5268736  45.0266695  64.1307688  43.1784725  44.1942072  63.8116217
  43.9023066  44.8170805  64.9859619   1.9168030 106.2776043  34.2641708
   2.8095376 106.3843490  33.9357540   1.8571221 106.8885805  34.9985954
 101.4775259  77.4821974  49.9176476 102.4145347  77.6394726  50.0338718
 101.2896139  77.7973439  49.0335629 105.5367643  77.0556809  17.8415844
 105.6320268  77.8200509  18.4098217 104.6013815  77.0211961  17.6413319
  86.5127451  94.5645262   5.8248875  85.5931026  94.7540738   6.0107872
  86.9103605  94.4391085   6.6865131 108.2208616  64.9776508   8.3948109
 108.9360267  64.3593843   8.5448811 108.6146194  65.6774821   7.8738377
 115.0556356 105.1444008  23.8276360 115.8436805 105.3607799  24.3260357
 114.5909721 104.5127489  24.3765804 106.7854530  99.9599554  37.6715538
 107.7257282  99.9447252  37.4930069 106.6007597 100.8696033  37.9053471
  93.4315616  85.3343727  14.4233486  93.9348060  86.1367323  14.2847988
  93.1522114  85.0723650  13.5461113 117.5560934 111.5383197  19.6790669
 118.2011301 111.6869356  18.9876339 117.3100216 110.6182577  19.5833180
  48.8466740  36.1709189  78.2929564  49.6239853  35.6832671  78.5653734
  48.1244326  35.7505941  78.7597847   0.0405966  60.1834987  10.5092594
  -0.1457180  60.9589537  11.0385868   0.3488909  60.5327185   9.6730587
  71.5782499  34.5356846  84.4428635  71.0944653  34.8759699  85.1954556
  72.2058249  35.2262115  84.2294312 112.5879318  67.0844461  24.7719452
 112.1093256  66.3662948  25.1859829 113.2634575  66.6522111  24.2493794
  89.5097191 103.3641531  19.3249294  90.3203089 103.3102609  18.8187000
  88.8140089 103.3023788  18.6704037  45.2518511  31.4488983  78.2559299
  45.6679916  31.6919160  79.0829754  45.3822899  30.5028486  78.1910753
  85.8946354 101.3501693  14.1233227  86.3407308 100.5746271  13.7830803
  85.9706432 101.9971801  13.4220097  70.4517657  97.2557165   2.4250385
  69.7688324  96.5850259   2.4280521  70.6516439  97.3898555   1.4986012
  76.0361481  13.5098851  89.7707367  75.3870106  13.6896873  89.0906429
  76.1798239  14.3560994  90.1944160  32.2603679  31.7097449  71.9466496
  32.8689146  32.1166134  71.3299179  32.3856997  30.7690763  71.8214798
  27.4072682  92.6996590  25.5440018  27.9292428  91.9897129  25.1701614
  26.5069520  92.4925758  25.2934715  93.8388426  80.1798083  15.7575390
  93.0162365  80.4605033  15.3565952  94.5180399  80.6009175  15.2306721
  83.4923393  76.4799263  30.9889767  83.2020981  75.6200065  31.2931702
  83.2434160  77.0794012  31.6924641  97.6035911  63.8678749  34.8939678
  98.2332498  63.1551077  34.7857067  98.0051262  64.4456752  35.5429241
 107.8769196 106.0868729  80.7080936 108.4634770 106.8305756  80.5699444
 108.2272614 105.3974916  80.1439667 108.9449102  99.0647556   9.5579216
 109.1473228  99.5555212   8.7614224 109.5597774  98.3311989   9.5500252
  36.6184611  93.4242536   3.9396641  36.4130751  93.8297369   3.0972645
  35.7924909  93.0338217   4.2252705 116.3533003  90.6599929  39.4912025
 115.6904632  90.1009561  39.0857956 116.0933239  90.7113172  40.4109928
  92.4722767  33.5517669  86.9564152  92.5707340  33.5365415  87.9084110
  92.1030045  34.4144440  86.7675781 104.6010429  94.3196394   2.3597691
 105.3541881  94.7137334   2.7998802 104.1683227  95.0530483   1.9226238
   3.2935177  62.3357834  20.4724953   4.2130314  62.4769236  20.6979153
   3.3202206  61.7707379  19.7003338  25.1599002  36.4486814  96.2900925
  24.8001742  36.9934273  95.5900383  24.6429944  36.6787028  97.0621872
  14.1270291  74.1676821   5.3753826  14.1020619  73.2683255   5.7021400
  14.9712502  74.5071246   5.6725285  99.0634186 102.7906419  14.8479054
  99.6198875 102.1219589  14.4486115  98.3853609 102.9598238  14.1938088
  53.2629890 108.0228855  30.7613251  53.7816257 108.4658100  30.0897095
  52.3577446 108.2600500  30.5600426  51.9935989  41.2765789  86.7216492
  52.4866629  41.7708349  87.3764992  51.2052870  41.7983103  86.5713215
  31.7245579  27.7277493  66.6360998  31.9274616  27.4765730  65.7350063
  32.5515223  27.6216340  67.1063137   9.9617516 104.5240547  25.1625130
  10.5579983 103.9384176  24.6958801  10.0307976 105.3572323  24.6963760
  93.1035597  94.6362950   4.8495171  92.6972610  95.2407028   5.4706738
  93.9264757  95.0603177   4.6061108  58.9351177  45.4754686  96.3357639
  58.7913465  46.1574125  96.9919014  59.1827345  45.9531832  95.5441093
  17.7098404  66.5335323  33.2301113  16.9580304  66.4633276  32.6418278
  17.3777234  67.0169677  33.9865658  53.1017524 103.4332611  24.6547863
  53.2526261 104.3007900  25.0301048  52.6899070 103.6068203  23.8083336
  53.2105589  35.0075006  65.9814644  53.9854860  35.5333614  66.1794329
  53.1053257  35.0836277  65.0331163   9.1514908  88.9370324  33.6587498
   9.4886338  89.3311860  34.4632408   9.2308175  87.9940249  33.8025448
  36.9841116  22.2406012   6.9540379  37.1101778  22.2637755   6.0054562
  37.1269243  21.3246018   7.1923325   3.5006463 104.5722963   6.8615887
   3.9687287 104.1121103   6.1649105   3.1218850 103.8749410   7.3968193
 110.6543857  94.4407846  17.0634720 110.8915788  93.5668613  17.3736832
 111.1467725  94.5478846  16.2496445  42.0348024  44.8737955  88.0520058
  41.1108112  44.9500132  87.8139591  42.4755239  44.6492481  87.2325134
  71.7033512  54.5653562  33.9085743  71.0363108  55.1026961  34.3358395
  72.1841699  55.1780463  33.3521053  17.5643086  27.9671788  81.6045666
  17.5960422  28.7446785  81.0471439  18.2384479  27.3889160  81.2476635
  27.0807886  51.4250517  89.2034435  27.6741886  50.8652639  88.7026882
  26.9851136  50.9799719  90.0454521  76.8490839  11.3084435  91.0602379
  76.5993261  12.0674133  90.5331612  76.1149263  10.7011187  90.9685707
   2.1119629  90.6934716   7.0746395   1.5191971  91.3556959   7.4300644
   2.1095597  89.9942662   7.7283546  76.2220437 108.2630493  13.9804241
  75.9666855 108.5093166  14.8694489  76.4766199 107.3429872  14.0505287
  56.5547180  21.7195487  76.6661978  57.1789980  22.1508050  76.0826540
  56.5487576  22.2628736  77.4542284  58.1662273  15.4843128  73.6197281
  57.4417782  14.8605239  73.6676502  57.8143883  16.2221980  73.1217670
  35.9898012  13.3267361   5.8119556  35.3207892  13.4774739   6.4797375
  36.5803307  14.0758950   5.8911583  59.7097397  31.5285611  95.5713749
  59.4009209  31.5335512  94.6653748  59.4885683  32.3982000  95.9046078
  81.9557649  87.6201631   1.0307858  81.0342819  87.5331356   0.7868073
  82.1729547  86.7862918   1.4475796  35.4802680  18.8476384  86.7106152
  34.9185944  18.3221841  87.2803974  35.2462840  18.5727525  85.8240891
  73.5851669  39.7108459  86.7315102  72.9320526  40.1559019  86.1915112
  74.1616631  40.4115438  87.0363140 100.9663278  94.1044761  21.8214390
 101.9224054  94.0652420  21.8461105 100.7110912  94.2955376  22.7239773
  94.8188144  56.4172191  20.6107876  94.4270021  56.5706022  21.4705536
  94.6505529  55.4919394  20.4325268  40.2497196  18.9530694  75.7019091
  40.3785515  19.2947316  76.5867281  40.8804655  18.2369339  75.6274939
  41.8247795  26.9064713  73.2761288  42.3429012  27.6386809  72.9419851
  41.6776991  27.1181273  74.1979742 100.4833538  81.3032605   4.5658562
 100.1226932  81.0278537   3.7230656 101.0473997  80.5777265   4.8335907
 111.3696415  71.9271054  17.8918430 111.1758358  72.8294684  18.1456348
 110.6570036  71.6864874  17.2998211  40.0668400   5.5718190  21.3306591
  40.2621573   6.3531501  20.8133575  39.3778294   5.8501107  21.9340298
 105.6390173  71.4052381  26.4806912 106.5488464  71.1756958  26.2915966
 105.3375704  70.7188715  27.0758888  60.1352126 107.8348591   0.9778091
  60.4214222 107.5703956   0.1035282  59.4451672 108.4790184   0.8192894
   1.8624436  71.8372859   3.0654594   1.8277298  71.8274237   4.0219757
   2.6279389  71.3053145   2.8480694  99.1235048 102.0144655  29.4935009
 100.0256521 102.2490312  29.2759106  99.1130335 101.0575630  29.4721672
  81.0801584  56.4850093  24.0621445  80.1919300  56.2817655  24.3553612
  81.3582737  55.7049960  23.5820839  70.3368139   2.1684611  95.8946705
  69.5189571   1.9599640  95.4431534  70.9375334   1.4690965  95.6372643
  52.3665476  28.2279110  95.1502132  52.8884983  28.9060760  95.5790424
  52.6460791  28.2533741  94.2350960 106.1505604   4.2017710  84.8444176
 106.1027145   4.9394280  84.2362976 106.9893074   4.3141478  85.2917385
  27.1119343  94.9939920   8.6208984  26.2278973  94.8285248   8.9485046
  27.6311623  94.2612483   8.9521381 100.2932626  66.8791379  15.7033703
 100.8590633  66.3223471  16.2382290  99.5237715  67.0349552  16.2509415
  59.6065337  80.3611232  23.9421436  59.1484684  80.3274872  23.1023380
  60.0707156  81.1981298  23.9284298  90.7113725  73.2224919   8.8745091
  90.7266456  73.8580610   8.1589386  91.4955742  73.4196545   9.3867561
  67.7550632  99.7172834  18.1205151  68.0499131 100.5417921  17.7338860
  66.8386227  99.8737623  18.3482906   0.3666770 103.8240864  26.6521809
   0.2038657 103.9479591  25.7170937   0.8058869 102.9754640  26.7084667
 107.0628959  83.4769298  39.1319725 107.9274589  83.8814475  39.0603802
 106.4982015  84.0197040  38.5817406  40.4725903  12.8219992  42.3124764
  40.5188244  12.0520789  41.7456219  41.3670080  12.9372222  42.6333687
  59.4917011  90.1947021  92.9257298  60.2783823  90.0442314  92.4015903
  59.5990133  91.0815334  93.2696056  41.7261904  11.6601807  10.4100678
  42.6461046  11.8486745  10.2244350  41.2655180  12.4676616  10.1820824
  34.6383637  17.1884496   1.0127899  35.3064554  17.2982604   0.3361580
  35.1118725  17.2996957   1.8372032   3.7763422  15.5566460  25.2248642
   3.9626663  16.3918931  24.7960541   4.5898789  15.3326995  25.6767914
  68.0660063 105.2234365  15.0478813  68.5378749 105.0540449  14.2324802
  67.4183661 104.5205499  15.1002667  87.5692177  29.6106100  89.1061878
  86.6603279  29.9108577  89.1074181  87.9640865  30.0454712  88.3504105
  87.1360475  99.2965414  12.3702023  86.9867546  98.8557245  11.5337727
  87.0138008  98.6112930  13.0272648   2.8297841  93.4262969   0.0997231
   3.7851655  93.3983566   0.0478241   2.6445138  93.5737158   1.0271809
  95.7096893  77.5024058   3.4444592  95.8095772  77.4891497   2.4925777
  95.9006531  76.6051747   3.7178394  70.1182079  46.8764067  93.2354259
  70.3044844  47.8152895  93.2411194  69.2338419  46.8055058  93.5947323
 105.0265247  88.9319755  24.9978325 105.4608089  89.5123698  25.6229565
 104.3369705  88.5052015  25.5063793 105.2233917  48.9035423  26.2119362
 105.5965025  49.6321882  26.7080185 105.8889658  48.2171215  26.2574169
  10.0984417  71.2738384  25.2041599   9.7232281  70.5441727  24.7111771
   9.9956929  72.0306780  24.6272156 106.9961912  91.1288954  44.7202847
 106.6729004  91.6306640  45.4685757 106.3891346  91.3390972  44.0106842
  13.8285100 106.8176891  26.8073532  13.1165921 106.2837841  27.1600124
  13.4125268 107.3581125  26.1356899  66.1428677 101.0677005   1.3769123
  65.3329312 100.5576898   1.3881466  65.8578049 101.9726993   1.5031788
  97.9235918  80.9190275   6.3361141  98.3440525  80.2883555   6.9206593
  97.7826006  80.4346015   5.5226776  11.3901650 105.8395244  27.8175137
  10.8565175 105.0497152  27.9050324  11.8407284 105.9185459  28.6583397
  52.0812052  24.6840436  16.2585423  51.6373366  25.5202920  16.1174938
  52.7161902  24.8638684  16.9518539  93.5587198  67.8848221  15.0695393
  94.5157320  67.8961577  15.0544712  93.3037454  68.7459554  14.7383854
   3.7887400  12.8407771  30.2601692   3.7656468  13.6009747  29.6789715
   3.5211056  12.1075064  29.7061607 112.2054559 100.8174612  27.7423832
 112.1919138 101.0561468  26.8155262 112.5821621 101.5804674  28.1807301
 106.4034492  92.7115490   3.9910576 107.0819027  93.1001832   3.4388802
 105.5886394  93.1105711   3.6859486  44.8138254  35.1259000  27.4942562
  44.6695822  35.3272969  28.4188435  44.3593901  35.8243901  27.0232651
  28.5129565  29.2600972  18.9072105  29.3130272  29.3906552  18.3982155
  28.8211745  29.0681702  19.7928688  43.3818262   0.8544404  43.3609840
  43.6874884   0.1395137  43.9192745  42.4282187   0.7718140  43.3666107
  93.6718446  62.0358111   0.7621548  92.9711897  62.6876189   0.7835648
  93.9711744  61.9760455   1.6693852  85.3488714  87.9097869  28.5677120
  85.2076370  88.8518240  28.4736416  86.0799677  87.8372957  29.1812775
  43.9829081  20.7876927  27.4563477  44.3446272  19.9479062  27.1732494
  43.7214010  21.2217957  26.6443131  50.3944891  17.8799731   1.4928886
  51.0149210  18.1530101   2.1687195  50.6151789  16.9645793   1.3208839
  61.8499851  40.8918953  91.0368633  62.3842716  41.6161823  90.7110119
  61.9140387  40.2219057  90.3562450  94.0594084 102.3733331  22.0258305
  94.2503340 103.2100012  22.4498150  93.5453254 102.6081182  21.2532875
  31.8782306  54.5459080  93.5409832  32.4278808  55.2426767  93.8996410
  31.6642737  54.8412085  92.6559639 107.4899465 107.7374841  34.9154446
 107.0703918 106.8771888  34.9057743 107.1425802 108.1820728  34.1421959
  57.8323030  73.5817575  95.0103378  58.6470461  74.0817165  94.9606705
  57.8515148  73.0152655  94.2390060  10.1718252   8.5715586  13.6451695
   9.8635691   8.1103427  14.4252274   9.8816889   9.4750315  13.7707970
  89.6015531 103.8641979   0.5047676  89.2953474 103.4860136   1.3290569
  90.5512697 103.7465431   0.5254623  38.7747639  30.1228005  30.2400753
  39.5953005  29.6816785  30.4599926  38.7001723  30.0302750  29.2902824
  47.3572493  29.7572112  96.6709328  48.0611467  29.6287918  96.0351086
  46.6394901  30.1327944  96.1610413  47.4347435 102.9978134  19.0222714
  46.4992177 103.1604053  19.1430447  47.5098168 102.0441295  18.9893791
  47.9769373  61.4560270  80.2477074  47.6080990  61.1379194  81.0717201
  47.3779821  62.1486092  79.9687481 112.6612026  95.3277065  32.7253983
 111.9379122  95.0539614  33.2894394 112.2770864  95.9852983  32.1455261
 107.9514486  94.0024711   2.1891472 108.1477863  94.7913100   1.6837666
 108.4276230  93.3048250   1.7388317  92.6721365 104.7319223  48.8450405
  92.2288305 105.5646135  48.6827538  92.7025444 104.6586992  49.7989533
   0.6651770 101.2971069  14.5926926   1.6072117 101.2454035  14.4310257
   0.5936657 101.6221525  15.4901669  27.2052019   4.3678767  13.4577915
  26.4437502   4.7777039  13.8682339  27.9074162   5.0101811  13.5606262
   9.6071547   4.0243346  43.0295250  10.2985304   3.7042004  42.4500916
   9.4600361   4.9280268  42.7503655  41.9757002  -0.0895684  25.1440880
  42.4654597  -0.5172532  25.8465454  42.1373289   0.8449036  25.2739594
  30.8296221  10.6171805  16.4516995  31.0778778  10.4711396  15.5388615
  30.3324335  11.4349896  16.4367935  13.5831040   2.0385367   5.9035656
  12.7970093   1.6080100   5.5675098  14.2203348   1.3310296   6.0015556
 110.0161630 108.5490181  10.3764030 109.8864919 108.1093599   9.5360920
 109.1898805 109.0041973  10.5385849  55.6822729  40.5027151  68.8711023
  55.3124332  41.0218668  68.1570101  54.9462843  40.3530359  69.4645214
  60.9524965  41.7053604  87.1000671  60.5451202  40.9321070  87.4903870
  61.7656469  41.3789463  86.7147446  70.8396370  74.8654403  17.6595470
  70.3074056  75.6510939  17.5342056  70.2149064  74.1420974  17.6074097
  40.1427412  67.3940229  90.0425720  39.8591161  66.4966726  90.2173519
  39.4005513  67.9361629  90.3099155  67.5397873  35.1047873  95.2958679
  66.6239500  35.1751757  95.0265694  68.0381680  35.2708149  94.4956970
  64.5756102  27.2515416  72.8935051  64.2481899  26.8365073  73.6914825
  63.8453674  27.7885103  72.5858593  45.5413454  14.9698788  36.0364601
  46.2101286  14.8103530  36.7024204  44.7745150  14.4884259  36.3469574
  64.5355337   4.3706090  34.5071289  65.4673594   4.3127972  34.7183106
  64.2857187   5.2574450  34.7666332  94.2021925  85.2576520  21.2953636
  93.8260013  84.6835949  20.6281540  94.8504431  84.7131111  21.7419884
  77.7821970  35.4748487  82.1787357  77.4876118  34.6513724  81.7897224
  78.5250235  35.7430267  81.6378880 102.8525240  98.2662346  16.0271046
 102.3651392  97.7588655  15.3780529 103.0581171  97.6365949  16.7181274
  47.1871328  28.7342286  51.9421721  47.8132772  29.2479658  51.4320278
  47.6683712  27.9435301  52.1859741  98.4898979 109.8918297  43.6451218
  99.3486482 110.3143264  43.6616013  98.5289079 109.2992021  42.8944466
 100.8274299  78.5561730  20.6570694 100.4881698  79.2572262  21.2135384
 100.7339365  78.8916303  19.7654602 101.3191015  93.3639957  37.8241703
 102.2211773  93.0983998  38.0029079 101.1092169  92.9507066  36.9866917
  48.4783888  19.5165217  73.4865761  49.3243361  19.6506417  73.9139080
  48.4699202  20.1491547  72.7682877  10.3101193  83.3180525  16.4701721
   9.8833024  83.6013128  17.2787640  10.1614892  84.0372445  15.8562443
 110.8267910  76.1378719  36.1984798 110.1044733  75.9083463  36.7831203
 110.4109842  76.6133715  35.4792854  38.3768576   7.5228125  13.4297821
  38.3574885   7.9053075  12.5525448  38.7212723   8.2202584  13.9876244
 106.4430505  89.1636564  13.1298515 106.6262323  89.0219690  12.2010872
 106.3490707  90.1125600  13.2134029 103.3122761  76.6340043  52.6906940
 102.6418096  77.0254280  53.2506058 103.2377416  75.6930639  52.8497765
  35.5300301   3.1910378  18.1130859  35.7599228   2.7364785  18.9234898
  34.5864933   3.3376128  18.1800625   4.5476758  94.3928196  18.0711433
   5.0028073  94.5527674  18.8978931   3.6187397  94.4148328  18.3009693
   0.6426131  74.8389305  63.9460537   0.0971591  75.0996401  63.2039330
   0.7990967  73.9042284  63.8116047  20.9953039  10.8219582   2.2749779
  21.1474484  10.0708777   1.7014191  21.7948979  11.3433463   2.2040340
  46.8066931  49.6879816  95.8942127  46.8115330  50.2520847  96.6675091
  46.2834978  50.1670361  95.2515602  70.3794401   5.5940444   7.0970413
  69.5011919   5.2485282   7.2568485  70.6574553   5.1743609   6.2829182
  20.2997130  18.2908780  44.1632435  19.9433058  19.1124207  43.8251946
  20.9908598  18.0567557  43.5437843 108.9269239  86.3035227   5.2728531
 109.1448576  86.3666536   4.3429253 109.7537119  86.4724828   5.7246277
 117.3248328  12.4154145  20.7580635 116.7371787  11.9250924  21.3329384
 117.6056970  13.1637770  21.2846634  87.6374561  92.6591636  29.9713966
  88.3026869  92.9668071  29.3557236  86.9171268  93.2824041  29.8768875
  53.0880260  69.5391798  92.3148060  53.7952757  69.5009089  92.9586792
  52.4733877  68.8603878  92.5935364   7.8654133 101.1317398  16.6236374
   8.4605061 101.1098816  15.8742306   8.3298050 100.6558849  17.3122093
  27.9364889  18.4606940  37.1940777  28.0853003  18.9724833  36.3989899
  27.1887797  17.9017073  36.9826672  49.4090605  65.1054907  96.3337803
  49.8267365  64.6869421  97.0865059  49.8352098  64.7105026  95.5731106
  31.1947571  80.7821848   7.6888058  30.5223881  81.0902716   7.0811531
  31.7611920  81.5417721   7.8244564 106.7143423  99.3193580   8.1700680
 106.3759119 100.1229812   7.7752468 107.3273069  99.6215011   8.8403103
  10.6836735 105.6614401  11.6742298  10.5474793 105.2851154  10.8047173
   9.8124730 105.6699325  12.0706818  19.6252799  27.5698161  86.4836025
  19.1451883  27.9918408  85.7711220  20.4497790  28.0532146  86.5361404
 108.9099819 109.1788627   5.2709553 109.0127451 109.5847513   6.1317226
 107.9983885 108.8876249   5.2507660 111.9593412  95.9503700  12.1553680
 112.9068643  95.9512331  12.0196030 111.6900474  96.8500663  11.9702885
  40.9262102   2.9829175   7.9625294  40.4854696   3.8229949   8.0900070
  41.6977804   3.0291373   8.5271236   5.9497755   0.3312880  21.8999550
   6.6863697   0.9300715  21.7769978   5.4331272   0.4195029  21.0990021
  92.5130350 105.3936912  17.5005791  92.5032551 104.8892738  18.3140251
  93.3631212 105.8336784  17.5017998  90.9130079  86.3234593  20.5589077
  91.2932665  85.4972126  20.8571598  90.0188572  86.3126876  20.9003899
  38.4153032  29.0012884  83.8182831  38.7237048  28.3597684  83.1783104
  39.2154527  29.3697572  84.1927528  35.3337210   9.7651154  41.7090961
  35.9584730   9.2268283  42.1950695  35.4537934  10.6474358  42.0602867
  95.1477415 110.8955862  39.7172710  95.3151733 111.1323454  38.8050530
  94.3716509 110.3364803  39.6810314   2.7052944  10.4274518  16.6068050
   3.3193320   9.7052056  16.7392799   2.2604960  10.5212409  17.4491760
  44.1441839  50.6737477  48.0387756  43.5177344  50.0710923  48.4395096
  43.6070936  51.2529904  47.4981758 115.5243808 104.8138620  11.7220089
 116.2834102 105.3912403  11.6398785 114.7706873 105.4030611  11.6900608
 116.6335422 104.4236185  28.3503696 115.9147388 104.8436262  27.8779861
 117.2431547 104.1501571  27.6649353 116.7504102  98.7257053   0.1655933
 117.4616796  99.3170549  -0.0806644 116.2600118  99.2057516   0.8328983
  29.2207640   9.9672467  23.0436394  28.9670723   9.0482957  22.9576180
  28.5637921  10.4454524  22.5377342  71.6469604  98.4004976   9.8056480
  72.0746452  97.9813101  10.5523750  71.3744504  97.6730634   9.2463467
 115.1538498 102.2494604   5.4555485 115.1528150 103.1184627   5.8568832
 114.6764929 101.6985656   6.0759232  80.8650047  87.0183255  13.2239887
  81.1479074  86.2426497  12.7397129  80.2953607  86.6760303  13.9128849
   9.5587176  25.2113206  15.0108025  10.3160542  25.0213486  14.4570992
   8.8628071  25.4398686  14.3945953  94.4220049  92.1159150   5.5623314
  94.0214664  92.5103809   4.7876045  94.2514307  92.7425529   6.2655041
   0.6873499  78.6507012  19.2039082   1.2456166  79.0191247  18.5191986
  -0.1519550  79.0978553  19.0950176  53.7471121   6.7211825  16.5291187
  53.7628859   6.3477952  15.6478951  52.8220289   6.7159993  16.7749188
  18.4958523   0.5109412   3.7574169  18.6148709  -0.4152339   3.9678261
  19.3572443   0.9022052   3.9028427  40.1711338  22.2124345   1.3212082
  40.2322262  21.7032248   2.1294186  40.8613222  21.8568665   0.7613442
  99.0702612  94.1173031  14.4192287  99.9741346  93.8059069  14.3714592
  98.6333973  93.4960915  15.0018761  92.8547794  83.2496120  41.6500542
  92.2559339  82.5329615  41.4402172  93.3364898  82.9421522  42.4179337
   8.7721365  74.0223843  49.2760345   7.9285305  74.4188554  49.4937107
   9.4136542  74.5449025  49.7573444  97.3786766 102.5431587  33.0128738
  96.9576914 103.3829977  33.1963799  97.3272592 102.0637371  33.8397667
   8.4074341 103.1338979  10.0381729   7.4799763 103.2867529   9.8573753
   8.4953057 102.1808054  10.0496265  65.8555412  24.8460627  94.1040039
  65.5257082  25.6879020  94.4182396  65.1618576  24.5148563  93.5336208
  17.8603875 103.9374830   7.1434662  18.2842289 104.0047409   7.9990742
  17.6639401 104.8425724   6.9016811  51.8321657  46.9559717  88.8032246
  52.5668335  46.3446903  88.8564301  51.0577822  46.3957739  88.7508297
   7.6918280  42.9216623  78.1594896   7.5698578  42.2480106  77.4904966
   6.8565387  43.3884621  78.1844234  83.2789594  96.9532634  14.0822289
  83.3566124  96.1704590  13.5368702  83.3659393  96.6300155  14.9789879
 107.3593599  88.5177638  23.3471748 106.5250904  88.7917496  23.7281677
 107.6282770  89.2574264  22.8023693  25.8757734  57.1184874  83.3177757
  24.9913883  57.3003769  82.9999542  25.7741332  57.0175600  84.2642021
 101.7944032  97.0739938   8.2473824 102.3493654  97.5654175   8.8529751
 101.7038423  96.2112190   8.6519119  18.6028992  99.0019466  34.9660656
  19.0652882  99.4868280  34.2824623  17.6896416  98.9959003  34.6794292
  84.2099697  80.8888675  40.3751251  83.6349756  81.5691973  40.7255051
  84.8576099  81.3662912  39.8566124  46.4516973  67.1264505  92.9377460
  46.9289494  66.5279198  92.3631001  46.9216204  67.0845652  93.7706089
   3.8034092  82.3850013   2.2192261   3.9587437  83.1671168   1.6897080
   4.3229233  81.7017962   1.7954704  56.7028761  38.3739066  67.4103546
  57.4490786  38.1069565  67.9471493  56.3062334  39.0979838  67.8947306
  93.8314707  90.9534504  30.7587025  93.3388740  91.5739538  30.2215263
  94.3010313  91.5012719  31.3876984  59.2196608  78.3672953  94.8166752
  59.8567533  78.2555437  95.5222607  58.3778286  78.1509304  95.2175903
  14.6121472  12.4344832  25.2040264  13.8817423  11.8382603  25.3691361
  14.3689745  12.8944070  24.4005558  79.8242188  31.3595867  96.5440273
  80.2110386  30.4914927  96.4299679  79.4202423  31.5547681  95.6984806
 106.2039835  84.7962953  42.5956604 105.6145984  84.4198825  41.9420788
 106.5057356  85.6152727  42.2026512 112.2924215  82.9319693  34.5455906
 113.1406528  82.6483084  34.2046043 112.3861772  82.8772976  35.4966232
  12.8556364   1.1166198  60.7274029  12.4540966   1.2740046  59.8728725
  12.1766155   1.3547713  61.3586208 112.5749904  92.5536825  39.6237347
 112.1282846  92.7970196  38.8128922 113.4134132  93.0136754  39.5826218
 105.1979286  60.5512650   7.2132656 105.0613863  61.2774320   6.6047737
 106.1131269  60.3012277   7.0862743 110.6288654  90.6749226   1.9506905
 110.7234699  89.8636200   1.4516232 110.2759535  91.3036467   1.3210938
 102.0594436  88.2064916   6.8570778 102.2040540  87.2677995   6.7380211
 101.1799843  88.3590867   6.5113995   4.6351069  14.5973355   9.2699596
   5.4575318  14.5809514   8.7804863   4.7638005  15.2767331   9.9318382
  71.3760281  51.2706423  95.4624462  72.2534847  50.9785271  95.2155209
  70.7872248  50.7425880  94.9232769  25.7824438   4.9148900  29.3863842
  26.6477125   4.5877988  29.6324417  25.7572287   5.8078152  29.7302982
   8.4254395 108.4115793  25.6109879   8.1328427 109.1846039  25.1282379
   9.3574749 108.5647251  25.7662174  42.9048485  87.8269149  25.2842400
  43.2564211  87.0635320  24.8261234  41.9557378  87.7473404  25.1889011
  82.3565609  89.9782206  34.2380211  83.1753284  90.4522444  34.0925667
  82.6296694  89.1303779  34.5884583  93.4695989  81.0669758  11.4361546
  93.4798176  80.1438381  11.1832783  94.3244058  81.2138726  11.8410656
 105.4250223  79.6249105  60.1906750 105.5682642  80.0779726  61.0216019
 104.7515613  80.1421024  59.7488663 117.1131498  81.3521864   1.7263290
 117.5019914  81.0475566   0.9064266 116.2693388  80.9026767   1.7727825
 110.6983644  64.8647697  23.9821503 111.6141206  64.6264859  23.8377735
 110.5871183  64.8238553  24.9319813  86.5484077  89.5092441   1.9977448
  86.3057787  88.5845305   2.0453522  86.8916113  89.7119285   2.8680107
  38.7802189  20.6135709  19.7961304  39.5380324  21.0635859  20.1695320
  38.2240360  21.3175494  19.4624874  29.4798392   4.5010526   3.5910580
  29.6376675   3.5686547   3.7392208  29.9270075   4.6915919   2.7664539
  12.3599213   5.5608279   8.4677002  11.8199843   5.4971892   7.6798889
  13.2357138   5.7681042   8.1417248   3.4594475  69.6788074   2.8935787
   3.8646637  69.1311719   2.2211716   3.6807190  69.2476453   3.7190315
  70.4099386   4.3751962  17.8990051  71.2917155   4.2370946  17.5531265
  69.9133414   3.6134917  17.5999710 105.6399042 106.4949848  10.8106968
 105.4668457 105.9014656  10.0799248 105.7151252 105.9208585  11.5729019
  81.1774713 102.1102764  25.0242588  81.5393669 101.3643648  25.5026791
  81.6643268 102.8654768  25.3542301  57.0013094   4.5864975  93.3555603
  56.6327763   3.8094401  93.7757969  56.2505484   5.0156718  92.9451942
  53.5842562  30.5750895  92.9207230  52.8797293  29.9387336  93.0428982
  54.3817663  30.0953746  93.1445026  39.8482483   3.2813126  19.2361042
  39.4942873   3.0392367  18.3803341  39.1150969   3.6973769  19.6895477
  59.9298399   3.3275229  20.0128624  60.0542372   3.7411029  19.1586277
  59.8302859   2.3961312  19.8158142 111.0549194  78.6552479  33.0208466
 110.5181867  79.1365887  32.3911926 111.4773113  79.3356969  33.5450718
 100.0460321  99.8275854  39.4385883 100.0184423  99.9681474  40.3850147
  99.9812681 100.7060577  39.0639946  37.7191036   3.3752114  32.5500748
  37.5273436   2.6389224  31.9692680  37.0954817   3.2810075  33.2701180
 108.6161644  63.8705768  21.8700859 108.7310011  63.3280076  22.6502583
 108.7399132  63.2665362  21.1379311  85.0939560  22.6124907  76.8440580
  86.0379410  22.6248908  76.6860151  84.8670483  23.5272741  77.0111370
 112.7576858 102.1939232  15.4955742 113.4567959 101.8257715  16.0358974
 113.2110674 102.7575971  14.8687145  24.0937155  14.1188008  15.5088875
  23.6468189  13.2932050  15.3220532  23.6548155  14.7604472  14.9504158
  22.3337095  23.4145791  40.3704140  21.3842457  23.3651120  40.2594921
  22.4607533  24.0677172  41.0585281 107.9445535 110.6627514  26.3347504
 107.9910118 111.6160871  26.2625095 107.0146686 110.4775335  26.4660523
  44.9722624  49.3641281  91.8070126  45.6744766  49.7021818  91.2512684
  44.7021008  50.1153469  92.3351383   0.4347741  90.8865453   2.6263210
  -0.2405847  90.4966261   3.1813786  -0.0502409  91.2890937   1.9059345
 111.3716823  90.9836127   5.8183262 110.6795532  90.3967978   5.5136272
 111.4457399  91.6444518   5.1298210  58.1109047  27.0581055  75.3302479
  58.3678865  27.4018145  76.1858463  57.7581358  27.8158951  74.8638344
   4.7878109  67.7189793  25.9010193   4.6110283  68.6402740  25.7107708
   4.5605980  67.2595920  25.0925800  99.4882471  93.3095242  27.1296188
 100.2129108  92.6854469  27.1698353  99.8642761  94.1334821  27.4393341
 101.9572860 103.4837391  15.3014347 102.0125181 102.5895883  15.6385872
 101.2157089 103.8700153  15.7673618  50.6779671  15.2897334  86.6864491
  49.7714853  15.0388169  86.8641281  51.0616350  14.5199263  86.2664223
  71.0096216  36.9942927  96.2143993  71.3365793  37.8177381  95.8520889
  70.3102112  36.7305160  95.6165028  79.9143106  74.7078110  12.7799007
  80.4480726  75.4175951  12.4227688  80.5286390  73.9838423  12.9011509
 112.8729803 110.9579565   3.2986519 113.1188614 111.7216207   3.8207600
 113.5641224 110.3182174   3.4697887   8.8263624  15.1190001  13.4968445
   9.4461601  15.3010709  12.7904865   9.3654316  15.0915057  14.2873356
  72.0196867  46.9181395  87.6983929  71.4271069  46.9368505  86.9469070
  71.5637922  47.4181700  88.3754158  70.9611320  35.0565672  93.5828114
  70.5858994  34.3545151  93.0512524  70.4397440  35.8285117  93.3626270
  28.8476341   5.1330239  17.5813362  28.8468426   4.1762692  17.6105854
  29.4009083   5.3946883  18.3173058  50.8706206  12.2524363  35.6745407
  50.9433287  12.9516036  35.0248405  51.5359896  11.6148335  35.4157326
  39.3488479  59.6397686  90.6729317  39.4391179  60.2925158  89.9786663
  40.2418280  59.3337011  90.8314991  57.9121828  51.1061335  91.8012524
  58.2359886  50.5035925  91.1316872  58.6159372  51.7460918  91.9080925
 108.0879623  89.8238184  20.9575054 108.6964637  89.1248514  21.1970970
 107.9614288  89.7184469  20.0145790  68.8577747  39.7184682  85.4567719
  68.9630556  40.5774736  85.0477982  68.3322525  39.8882103  86.2385941
  99.1456604  16.5206766  92.9728985  98.1938362  16.4919162  92.8757668
  99.4385433  17.1193373  92.2858334   2.7746712 100.1851799  33.4148380
   1.9327294 100.0632431  33.8535664   3.3335816 100.5908729  34.0776035
 109.8688776  86.0443641  12.6138947 110.6114895  86.3199307  13.1513187
 110.2318985  85.3830172  12.0247719  97.5582821  93.3171989   8.6426518
  97.9331190  93.8989045   7.9813358  96.6645033  93.1555607   8.3405563
  43.6934042  80.7210827  90.9216309  43.5555840  80.7054520  89.9745369
  44.4691849  80.1776505  91.0597706  78.7194926 103.4353830   9.5555088
  78.6260874 104.2166139  10.1006481  77.8408772 103.0566169   9.5272133
  44.9072188  21.4566190   6.6100094  45.8197897  21.4774091   6.3219044
  44.8273390  22.2009999   7.2064564 116.3573612   6.2625081  21.3791534
 117.2823060   6.5073592  21.4066765 116.2644900   5.7685859  20.5645058
  20.1603955 103.2630636  26.4106056  19.6753663 102.4981977  26.7203877
  20.3240341 103.0840160  25.4846546  61.2205553   5.6036437  83.9945698
  61.9130230   5.1377749  83.5258675  61.3207245   5.3279477  84.9057198
  99.1133577  97.9561187  17.8187058  98.2547552  97.6009561  17.5887272
  99.7376663  97.3320486  17.4485657  71.0095787  34.4201589  81.5264034
  70.4343891  33.7685442  81.1254120  71.1913681  34.0738988  82.4000645
  35.8166599  34.3916535  91.5277481  35.5854487  33.8374805  92.2731781
  35.0540185  34.9566460  91.4036751  78.9376497  69.7442865  80.7238007
  78.2158279  70.2938080  81.0291481  78.8785362  69.7799301  79.7690916
  40.5545061  22.0555741  16.7416641  40.9172075  21.3058812  17.2135231
  39.7951334  21.7023045  16.2782166  77.8716183  80.6090450  82.7216911
  78.1002235  79.8313856  82.2125626  78.6690474  81.1385155  82.7213192
  30.2786225  18.0895860  26.7111084  30.5486792  17.4474150  26.0546658
  30.2121847  17.5880343  27.5236771  48.2049196  20.3464515  22.0162460
  47.8149813  20.9507663  21.3845894  48.8398379  19.8435742  21.5061256
 115.9628135 107.0556404  49.2470810 115.6457216 107.9054929  48.9414188
 115.8832390 107.0989086  50.1999924  27.3637234  78.3238985   6.7722580
  26.6320549  77.7760030   6.4881775  27.5129735  78.0707146   7.6832172
  51.2407511  10.7979686  41.8847248  51.2718027   9.9728972  41.4004490
  52.0725935  11.2260300  41.6821739  25.1453148 110.5076744  34.2953941
  24.6815621 109.7230388  34.5878288  24.4506585 111.1220361  34.0582344
   1.1317812 107.7863933  43.7360832   0.3617512 107.2972776  44.0259907
   0.8554493 108.7025978  43.7570831   8.3767336  36.0645158  13.0664322
   8.9953678  36.1491639  12.3409245   7.9887264  36.9352395  13.1531689
  57.1050947  27.8105313  34.5152542  57.3626822  28.4717900  35.1576016
  57.0848578  28.2811505  33.6819813  50.3145170  71.8905258  79.7721815
  51.1888742  71.6139793  79.4978476  49.8055172  71.9140673  78.9618778
  36.6750639  10.1296717  36.8016407  37.0828789  10.6743295  36.1283943
  37.1919125  10.2961499  37.5899288  66.5831852  90.2708817  89.3778324
  67.2409582  90.6052971  88.7681389  67.0761538  89.7135830  89.9800205
  33.5570305   1.4509255  21.5198967  33.8900631   0.5817944  21.7433426
  33.5521668   1.4667947  20.5628368  45.8616369   7.1704585  26.7545197
  46.6015070   7.2358901  26.1507484  46.2643831   7.0586783  27.6156494
  66.2125986   9.2220456   1.8411800  66.9530314   8.8207013   1.3863060
  66.5771025   9.5219619   2.6738998  34.7644203  22.5510556   4.1716072
  34.0043181  22.3791558   3.6157963  34.3924015  22.8654725   4.9956104
  43.3057438 104.1321613  37.5177929  42.4208771 103.9801504  37.8496429
  43.4819352 103.3802225  36.9523022  68.2180166  30.9402394  86.8332005
  67.8140020  30.6071353  86.0319233  69.1571808  30.8136082  86.6984177
 113.1295521  93.7928368  47.4531529 113.7642366  94.1383149  46.8254063
 113.1299574  94.4286348  48.1686852  44.6272677  14.8580605   0.8469650
  43.8241213  14.5680672   1.2795040  44.3266981  15.2824694   0.0433704
  17.4034630  99.4652464   4.3207333  16.6338955  98.9814283   4.0208790
  17.0584237 100.3114797   4.6054527  58.9560049  17.3634726  35.1825401
  59.6670359  16.8370396  34.8171303  58.1844729  17.1078355  34.6769497
  33.2252520  23.8089568  27.0126984  33.7251347  24.0246064  26.2254021
  32.4279326  23.3937270  26.6839191  12.8973120  17.6218230  29.2595074
  11.9818609  17.6817090  29.5326302  13.2844609  16.9828278  29.8578617
  69.5669668   0.6992871   0.1895687  70.1419562   0.9277970  -0.5407742
  69.7478884  -0.2257150   0.3564999 116.3025076  97.0032741  14.2729828
 116.4789898  97.9361679  14.1513321 117.1200544  96.5707208  14.0265247
  91.9776630  60.9561729  94.1056442  92.5123024  60.7859659  94.8811531
  91.8731499  61.9075346  94.0908718  91.2432367  93.3787514  33.3919594
  91.8443710  93.6739184  34.0758774  91.0231048  94.1740896  32.9069778
 108.6941702  84.1280390  20.7785484 109.2608577  83.3675219  20.9078285
 108.7770635  84.6291734  21.5898582  34.4290179   1.8206698  35.2058003
  34.8416441   2.0673854  34.3780872  34.0521973   0.9570081  35.0374958
  42.1451872   2.7035243  26.6430733  41.2946528   2.8534514  26.2303516
  42.6378268   3.5068614  26.4751694  38.3527010   5.7517297  31.0935852
  38.2074564   5.0383527  31.7150662  38.2177323   5.3520448  30.2343628
  47.9734820   0.0936372  17.0119354  47.4151724   0.8500678  17.1917698
  47.9703158   0.0150115  16.0579750  85.2977484  19.2761094  11.7906735
  86.1763495  18.9334065  11.9545528  85.4102343  20.2265651  11.7762253
  29.8262852   1.8648536   3.6148712  30.3635805   1.4750821   4.3045303
  29.4347351   1.1164529   3.1645271  45.4042166  38.4891850  48.4873459
  45.7430189  38.3497769  49.3716595  46.0216730  38.0288369  47.9189655
  51.5960139  37.4869592  21.3213608  51.6717928  36.5491635  21.1451695
  51.8820112  37.9069382  20.5101559  31.4346379  13.3825929  43.3269379
  32.1520060  13.4320695  42.6951382  30.6416386  13.4387214  42.7937958
  86.6070110  71.2893857   4.1154358  85.7037288  71.3724102   4.4210789
  87.1333486  71.3123955   4.9146053  12.9003876   5.3464038  15.4455158
  13.5182303   5.3363091  16.1765453  12.5836771   4.4450051  15.3871223
  53.4063452   6.2277896   5.9814522  53.2226961   5.2905566   6.0455009
  52.5441473   6.6429097   6.0041973 106.5901310  92.6204230  31.4781925
 107.4437219  93.0367853  31.3587734 106.3796503  92.2548606  30.6189510
  75.8399773  17.8605020  92.3296642  75.9149218  17.2341585  93.0496025
  75.8196068  18.7163222  92.7579021  36.6194027  30.7702023   7.7549240
  35.8806484  30.4642541   7.2287437  37.2383040  30.0400502   7.7462360
  53.9778536   9.6329934  16.4578220  54.3239897   9.9304969  17.2992012
  53.9528578   8.6790711  16.5329144 110.6102497  98.3141853   2.4664471
 111.1785013  97.8182937   1.8770287 110.4897196  99.1574146   2.0297787
  50.3750324  59.6075916  93.4911251  49.4497490  59.6383095  93.2479286
  50.8273602  60.0414371  92.7676582  12.6456295  80.6793977  27.6360676
  12.3733651  80.9080149  26.7473385  12.3364579  81.4068891  28.1758854
  39.4797724  10.9180791   4.1003296  39.5845812  11.0991914   5.0343773
  40.2488917  10.3970677   3.8696072  44.1754549   9.4336612  30.9769890
  44.3141859  10.0843770  31.6651413  43.6131495   8.7731892  31.3817284
  91.4290524 109.5847797  81.5895939  91.6536045 110.0077915  82.4183655
  90.5730820 109.1867256  81.7480659  29.7226828  27.0268590  13.4099743
  29.5492523  26.0954625  13.5465691  29.4506472  27.4435765  14.2276356
  71.6841524  17.8545863   6.1882946  71.0770910  18.2744223   6.7977593
  71.7583769  16.9546897   6.5059635  50.7714384   1.1536557  22.8368065
  51.7235869   1.0559518  22.8467629  50.4680746   0.4815490  22.2265026
  97.3240215  90.9343507   3.3460590  97.4785024  91.5813758   4.0343353
  96.4843876  91.1881258   2.9628536  88.6879921  77.8403187  88.6865520
  88.6087513  76.9386387  88.9978790  89.5507240  77.8761196  88.2734585
  55.7418364  32.3324067  18.9871475  54.9194544  32.3703534  19.4755051
  55.9899538  33.2486874  18.8643143  54.0358465   8.6254031  37.1318600
  54.6427363   8.1531197  37.7018234  53.6751669   7.9517037  36.5554306
  30.0479382   8.2685286   3.8498756  29.4429606   8.5730941   4.5262405
  30.8272331   7.9924495   4.3322727  41.0567492  19.7162015  18.0134842
  41.0676020  18.7867600  17.7848980  40.3947371  19.7859675  18.7013123
  23.4339016   6.9058139  20.2375481  22.7101200   7.5268132  20.3195927
  23.4233492   6.4157159  21.0596916  61.0060709  10.7373483  42.9586193
  60.3556936  10.2204282  42.4831936  60.8900755  10.4844577  43.8744900
  71.0727406  92.8233910  76.4584446  71.1465549  93.7697411  76.3351488
  70.1546621  92.6282692  76.2705898  16.1590069  25.0547082   5.4237148
  16.8843191  24.4626576   5.2246258  15.4001015  24.4795186   5.5209419
 102.7658874  83.6988284  30.5437538 102.9902488  84.2791678  31.2711498
 103.3675415  83.9497210  29.8428318 116.1449415 101.6485168  26.1591694
 115.8768064 100.7575227  25.9345314 117.0908148 101.6581155  26.0126469
  50.8536165  34.9234063  36.0743115  50.8559912  35.1428277  37.0060131
  50.7425707  33.9729268  36.0523674   7.0119320  89.0136363  39.0079376
   7.3026215  88.6624004  39.8495838   6.6910206  89.8918463  39.2128727
  45.5877798  11.6011626   2.4600288  45.8468645  11.9145066   1.5934727
  44.6308630  11.5965564   2.4368259 115.6661875  74.6965267  11.4596245
 116.5904028  74.7590019  11.2184689 115.6569702  74.8246576  12.4081680
  55.5586260   7.5026948  32.8933022  54.7434347   7.2305924  32.4718163
  55.7002371   6.8535907  33.5823891  83.8216305 100.3457069  67.5244617
  83.1070423  99.8219395  67.1621609  83.3851814 101.0794353  67.9573488
  71.9449425  78.6141014  83.5408974  72.0351076  77.7934551  83.0565071
  72.8193140  79.0029383  83.5181904  58.0566835  81.8375683  93.1375027
  58.1224298  82.5711060  92.5260830  58.9639091  81.6311264  93.3623409
  30.1933449  10.1930005  25.7638237  31.0421770   9.7964341  25.5677292
  29.6720188  10.0454242  24.9747250  90.0319702 110.2180483   8.2620117
  90.6990844 110.8122446   8.6056969  89.8977834 109.5783807   8.9613316
  32.9924267   8.6085183  32.0237801  33.5103148   8.3376939  32.7818558
  33.6122196   9.0783364  31.4657852   1.6821545   4.5028598  22.0805046
   1.5794342   4.4265181  23.0291149   2.6230877   4.6207721  21.9502041
  35.6862562   5.9920937  21.1091873  36.2090080   5.4687936  21.7167446
  36.2048405   6.0145099  20.3049538  46.8603039  73.2083607  95.4002285
  47.5950909  72.6432848  95.6389999  46.9688320  73.3583784  94.4611073
  24.4721907  25.9541470  10.1812717  24.8676699  25.2496583  10.6946251
  24.8169773  26.7573792  10.5713627  22.5261658  16.7730481  14.1179916
  21.7254227  16.4901788  14.5596096  22.3086279  16.7447240  13.1862709
  42.2494238  34.7017342  10.7366821  41.3737887  35.0785119  10.6498596
  42.1796053  34.1021783  11.4795754  87.0072746  20.0193644  72.7705097
  86.4278030  20.2662945  73.4912539  86.4620972  20.0968218  71.9875622
  72.7698916  12.9588992  45.2676174  72.9726141  12.2800643  45.9112808
  71.8657606  13.2081563  45.4590675  60.9786623  16.1827428  41.6569683
  61.3644713  15.6817014  40.9383938  60.0395125  16.0092217  41.5927670
  13.9187371 108.6583616  20.3504536  13.4382569 109.2918684  19.8174927
  13.2507359 108.0415012  20.6495926   6.1663281  82.5900556  22.9824898
   6.6872918  82.4922659  23.7795231   5.4648530  83.1935312  23.2273933
  62.9258650  11.5863139  10.5605385  63.1927794  11.5401131   9.6424648
  61.9964998  11.8132216  10.5286381  39.7001141  13.2356459  52.0293495
  39.8095291  14.1864354  52.0132515  39.4442719  13.0088240  51.1352989
  79.6357489  70.6374884  59.8496914  80.2376270  71.3496065  60.0661850
  79.8276806  70.4314566  58.9348412  81.8739414  27.4473715  88.9807129
  81.1336613  27.9935408  89.2451382  81.5825939  27.0235872  88.1733990
  21.4460819   8.8650233   0.3363392  22.1676367   8.9604194  -0.2853420
  21.1652487   7.9550797   0.2395317  96.7338467  35.3924227  84.9227428
  96.0550213  36.0486937  85.0800228  97.3240757  35.8047581  84.2919922
  42.9379290  19.3212134  15.1844856  43.6784571  18.8472277  15.5628941
  43.3390539  20.0296122  14.6809837  77.0580864  42.8649712  93.9894581
  77.3507261  42.8102016  94.8991871  76.1058855  42.7805901  94.0386677
  96.6595871  55.8225501   9.6564266  96.5678436  56.7559513   9.8476765
  97.3659212  55.5285021  10.2316353  24.5324360 107.4455501   7.5874016
  25.2519928 108.0104925   7.8690216  24.0982853 107.9394485   6.8918297
 101.7984850  87.5404097  46.0762283 102.0178539  87.0334841  45.2944824
 101.5786535  88.4105970  45.7435391  73.7341326   5.4008776  20.3026459
  72.8892344   4.9512822  20.3180000  73.5107630   6.3276107  20.2159855
  21.1170994  85.1618983  26.4232990  21.8906151  84.6441342  26.2000820
  20.7004105  84.6754934  27.1346447  29.4203346  22.7452475   7.4033806
  29.2564409  23.1469113   8.2566330  30.0064200  22.0124013   7.5922463
  45.5893343   9.6941478  14.9520371  46.0392779  10.5204255  14.7758362
  44.6615237   9.9278647  14.9799130 101.7360020  70.5418158  94.9641228
 101.0680294  70.3432322  95.6203270 102.5177860  70.7529831  95.4744625
 106.4030964  65.5599703  25.3772232 106.8793995  65.4841949  24.5504067
 106.6828758  66.4010216  25.7385895  35.2729910  18.4668357   8.7144920
  34.7148483  19.2440373   8.7404511  35.1802557  18.1350810   7.8214237
  93.4874374 110.2928926  28.4021828  93.9459783 111.0825588  28.1151268
  92.6324207 110.3437235  27.9748699  60.5611324  71.3057375  91.3454628
  60.1231384  70.5544281  91.7453861  60.2233791  71.3312340  90.4501915
  96.7003345  76.0864830  93.0108643  97.2752476  76.0697699  93.7759972
  96.4296913  77.0014524  92.9345703 117.7753485  28.0107648  21.3211796
 116.9673027  27.5115163  21.2026474 117.4923838  28.9251000  21.3332531
  19.8334091   3.5705001  40.9602997  19.1558951   3.9049584  41.5479538
  20.0595062   2.7124221  41.3192055  12.1682471   1.8022830  28.8430187
  11.6420811   2.5854403  28.6816475  12.5327318   1.9347436  29.7181389
  38.4956408  86.1582565  89.9455261  39.2912841  86.6478920  90.1539612
  38.2869887  85.6859684  90.7515240  36.4887112  22.2470576  14.2499039
  37.2726792  22.1594912  13.7077210  35.9398525  21.5040213  13.9991352
  26.7918890  19.2945010  13.4902546  25.9576147  19.6217782  13.1539413
  26.5733212  18.4571416  13.8992664  37.0989817  25.3493935  18.0941937
  36.2224024  25.0375230  18.3190796  37.6893776  24.6976334  18.4721729
 101.5379030 100.1616766  10.6085751 100.9508640 100.5354263   9.9513599
 102.3754198 100.0662281  10.1550457  41.5020865   8.9848048   9.7450039
  41.3576811   9.8992163   9.9883816  41.0070818   8.8718898   8.9335510
  12.3502766 103.9212467  31.9733307  12.2022187 104.2969896  32.8411552
  13.1915413 103.4707309  32.0477364  39.2634075  25.8083493  20.1685307
  38.5115545  26.1750752  19.7032711  39.4905203  25.0210625  19.6737263
  40.9388178  22.5536115  20.4452488  41.0415571  22.8099591  21.3617394
  41.7092722  22.9155595  20.0074932  87.6083183  87.6825428  96.4513874
  86.8938541  88.3189583  96.4239597  87.2154236  86.8677330  96.1384296
  96.2588388 106.3085510  15.4480049  95.7740242 106.4888956  16.2534020
  96.1177665 105.3755333  15.2873489  50.3705805  34.5582158  24.1180203
  49.4536989  34.8130948  24.0150520  50.7035654  35.1345021  24.8059532
  16.5992516  20.6614405  24.9929306  16.6558378  21.6094405  24.8732445
  16.3270300  20.5508620  25.9039185  44.8411005  38.1499440  17.3107979
  44.2657202  37.4855954  16.9315788  45.7251852  37.8154523  17.1599648
  35.7263773  27.2645623  24.8812172  35.3516739  28.0211312  25.3322575
  35.4821127  27.3874432  23.9638969  27.7008026   2.7925069  47.4370644
  27.6597851   3.4954268  48.0854961  28.3599632   2.1888406  47.7795860
  46.2459105  30.2782876  29.1050598  46.1507529  29.4357259  29.5491955
  46.1305540  30.9286172  29.7978756  80.0451214  91.8171312   1.4689800
  79.7460491  92.6326205   1.0667774  80.8476526  91.5970303   0.9959766
  16.5752350  99.6840240  31.4803001  16.1339604 100.1916029  32.1613857
  16.1697995  99.9756147  30.6637070  16.0651719 110.9472276  28.2590649
  15.4773652 111.3806488  27.6403019  16.2364613 111.6082241  28.9298698
  47.0348566  20.7129771  16.4891789  46.3791674  21.2954671  16.1057541
  46.5759390  19.8815209  16.6087601 104.8519451 111.1155559  30.1459286
 105.7857687 111.3213779  30.1889202 104.4534857 111.6692688  30.8173916
  70.2151697  48.8821084  30.3705761  69.3384855  48.6381680  30.0736877
  70.0626009  49.4657666  31.1137459  64.7098255  87.2406578  74.7071409
  64.1320467  86.4898586  74.5703697  64.6805716  87.3965645  75.6511068
  31.8683308   0.3967959   5.0408432  31.7499893   0.0300128   5.9170219
  32.7300661   0.8125073   5.0695965 112.3053009  69.3125095  17.8062317
 112.2290498  70.2027227  18.1496498 112.2309810  69.4146444  16.8574020
 109.1317844  55.4599905  90.8772469 109.6078873  55.0142860  91.5779018
 109.7710705  55.5453873  90.1699638 109.9401600 107.9666568  33.7978432
 109.7558290 107.0966388  33.4438297 109.1953880 108.1557037  34.3686363
 102.7041340  48.4941053  79.9297857 102.9843712  48.7850142  79.0619946
 102.0642757  49.1497660  80.2071381  89.7696972  65.5179787  93.2065201
  90.2767181  64.7113276  93.2985878  88.9122200  65.2277327  92.8955269
  91.0956556 104.5371534  40.7181618  90.6724531 104.1220667  41.4697144
  92.0272714 104.5376445  40.9379837  40.1745241   8.1949479   2.6780769
  41.0207575   8.2211453   3.1246635  40.1100653   7.3020560   2.3392365
  61.6493147   6.4935071   1.8898747  62.4222487   6.9795710   2.1771786
  61.9981878   5.6732327   1.5410683  11.6472201  48.3691454  88.3771896
  10.9953360  47.7644587  88.0227280  11.4964061  48.3568096  89.3223572
 115.4672653 106.9484379   8.3278439 115.7451517 107.8198625   8.0456707
 116.2677128 106.5346767   8.6508247  38.7766236  26.0488087   2.1827290
  39.3557995  26.8087155   2.1250698  39.0977448  25.5598504   2.9403755
  14.0509766   7.1968324  13.5558292  13.9452999   6.5712268  14.2725536
  13.8538140   6.6924006  12.7665875  22.3286932  13.0837066   5.8300087
  22.1930855  12.1398408   5.7465717  23.1825703  13.2395989   5.4264900
  45.8150500   2.9463870   4.6598312  46.5527552   2.3724419   4.4534084
  45.1822394   2.7840716   3.9602348  48.2766169  21.0410172  18.8834068
  48.0604761  20.1118810  18.9623043  47.9111212  21.3009745  18.0377838
   3.9694994  31.9884354  12.0532772   4.5648640  32.3057515  11.3742516
   4.5317667  31.8364960  12.8128883  12.4661701  36.6091401  19.8432323
  12.3632878  37.0908791  20.6639454  12.0771855  35.7522065  20.0181171
  44.9764651   9.8757846  26.6470120  45.3645342   9.0019137  26.6024468
  45.4944723  10.3344399  27.3084709  64.1388434  17.4492604  25.1627037
  64.0589445  16.9072444  24.3778107  65.0664824  17.4009044  25.3937504
  53.6830443  16.6616875  34.3605110  54.0825861  17.4692494  34.6836922
  53.7641447  16.0461242  35.0890228  62.7333182  29.7339112  34.3124268
  61.9747179  29.2490823  34.6375439  63.0991286  30.1557595  35.0898907
  36.4810913  26.3321931  33.2208035  36.5957325  26.1184460  34.1467640
  35.6636065  26.8291337  33.1891415  51.9004362  31.6222817  33.3561394
  51.3212221  32.1672494  32.8234551  52.0952910  30.8667428  32.8016827
 117.8656472   0.5020673  35.6762096 117.5987471   1.4203841  35.6350681
 117.6036752   0.1383836  34.8304340  22.8859728  22.0013148  43.0214951
  22.5421875  21.9149882  42.1323368  23.8325518  21.8984277  42.9233429
  67.9666918  16.6213090  38.2628033  68.4431189  15.9714658  37.7461407
  68.0505770  16.3171107  39.1664955  45.6678057  41.7534781  92.8314018
  44.8892879  42.2587919  93.0655003  45.4912376  41.4384174  91.9449520
  37.2666376  42.6842076   4.6534798  38.2199686  42.6075227   4.6146462
  37.0473164  42.4862534   5.5639431  63.7444895  30.8702142  12.1450588
  64.1553324  30.1918752  11.6090557  64.0854090  31.6925866  11.7933342
  50.2258509  22.4437291   5.5193111  50.4397124  23.3555085   5.7171700
  51.0258597  22.0887381   5.1317570  87.6315516   5.8467109  43.4535477
  87.6948183   4.9446828  43.7675163  88.3899992   5.9542949  42.8795979
  43.3016348  74.5138597  71.0779524  44.0965652  74.8595381  70.6719685
  43.4396648  74.6363258  72.0171976  46.9083439 108.6237241  17.3929569
  46.3735806 108.9738132  16.6804287  46.4318882 107.8491546  17.6917336
  64.0900439  26.9641835  29.5850155  64.2386835  26.0288293  29.7237083
  64.3595522  27.3740060  30.4069874  96.1907655  82.9203798  18.0712196
  95.5413467  82.4176337  18.5628864  96.6996557  83.3752991  18.7422630
  25.7939165  16.7117030  20.5957291  25.2744072  16.5308339  21.3790676
  26.1923521  17.5655276  20.7644341  48.5443640  54.3054485  88.5735130
  49.4893169  54.3684864  88.7125301  48.2254744  55.2009439  88.6859131
   0.3760325  95.7892753  13.1636974   0.5089461  95.4650881  12.2729275
   1.0362565  96.4740850  13.2703564  82.6110744  67.7426052  95.4212570
  81.6936302  67.5499439  95.2278614  82.8858852  68.3303595  94.7175121
  96.3037092 110.2108719  31.3126919  96.1155731 109.3043186  31.0698006
  95.5378753 110.4879429  31.8156502  74.2138100  69.6079493  65.5763531
  73.3278704  69.3654585  65.3070259  74.7862387  69.0759706  65.0235844
  54.2241478  76.8757868  86.8128395  54.5098972  76.0060978  86.5331554
  54.5470715  77.4647951  86.1309147  38.5788887  34.5669801  11.9341919
  38.2311695  35.3974301  11.6091225  38.8626927  34.7595555  12.8278420
  90.2066517  76.5157318  81.6960812  89.3587208  76.9059801  81.9081020
  90.8374786  77.2213507  81.8388844  81.5291422  54.9536473  15.6164619
  81.9724005  55.7466466  15.3149578  81.6639441  54.3209512  14.9109337
  61.8623942   2.8052670   6.1890480  61.3150042   2.8732497   5.4067585
  61.4829844   2.0794684   6.6845295 112.3455238  62.8880692  85.7213497
 111.8831635  62.8049183  84.8873711 112.3889542  63.8313437  85.8781338
 106.9736958  68.1574154  80.4249287 107.9113960  68.3398199  80.4855156
 106.5604687  68.8565397  80.9315968  73.8357752  32.9111726   1.0442898
  74.7034090  32.8780038   0.6413815  73.3191698  33.4613663   0.4555294
  41.3214892  37.7681405  45.5300972  41.6898268  38.3869607  46.1606667
  40.8991545  37.0995290  46.0693810  73.9794462   6.0731370  37.7155277
  73.6880797   5.9104783  36.8183777  74.8484629   6.4624745  37.6182529
  50.7520121   4.1147286   1.1758110  50.9265631   3.8466365   2.0779678
  51.5672606   4.5237595   0.8854839  18.5981291  21.1749894  16.6714642
  18.8197964  20.2761990  16.4280102  19.2254132  21.3985211  17.3590538
  36.8284338  16.3324649  46.3478825  37.2746342  16.6481406  47.1336910
  35.8999842  16.4886195  46.5206024  26.7257422  40.4711301  30.1203224
  27.1133059  41.3399846  30.2257511  25.8913820  40.5228574  30.5865833
  78.2077044   8.6864192  43.1244537  77.7983969   9.5234782  43.3436272
  78.2561033   8.6865098  42.1684715  23.1533783  21.3326842  23.8480541
  23.5864371  21.8786866  23.1918690  23.8474196  20.7650000  24.1831181
  61.0665053   4.7885949   9.8334858  61.5305632   5.4622752  10.3305122
  60.7722777   4.1627175  10.4952499  77.9636782  35.3020055   1.3656780
  78.1935423  35.5287225   0.4645798  78.0697649  34.3516404   1.4080498
  13.6201208   8.2052047   3.5723469  14.5146435   8.5432298   3.6147282
  13.1176203   8.7849767   4.1446945  58.0314844  40.6457955   8.2081101
  57.8909701  40.2898938   9.0855000  57.9235857  39.8945576   7.6248047
 111.5466785  88.3938217  90.6242847 111.3217258  87.9489613  89.8071384
 112.1689796  87.8065109  91.0532761  42.1793669  63.2890755  34.9683735
  41.5035361  62.7312333  35.3534767  42.8492754  63.3580357  35.6485912
 115.1005268  48.7935352  86.3545704 114.9793720  48.9064217  85.4118061
 114.5682430  48.0290222  86.5746117  11.2952917  46.2782628  14.1677353
  11.2933558  46.0404832  13.2405350  11.6266459  45.4990537  14.6141312
  68.7544298  98.2808495  80.6263351  68.7708902  97.5018501  80.0703621
  68.1720638  98.8883591  80.1702499  49.0490263   8.4372098  15.8588383
  48.7503546   9.2637832  16.2380573  49.9808615   8.5747105  15.6884739
  90.4774267 107.1358778  30.0995991  90.5872757 107.6117660  29.2763683
  90.9874946 106.3343670  29.9828121   3.5494839 104.0253116  25.5184624
   3.8529240 103.2552721  25.9992859   2.8353535 104.3745567  26.0516426
  23.9209717  19.9384887  20.8208344  23.4931868  19.4163234  21.4994881
  23.7927597  20.8451230  21.0997746  43.2381552  60.9244687  21.3086292
  42.7888602  61.0704572  22.1411297  44.0801638  60.5415303  21.5548203
  38.3167696  59.5086241  94.0091801  37.8672481  58.9425659  93.3816910
  38.4473562  60.3317690  93.5384178  19.0176218  35.4485280   5.0665733
  18.1375378  35.0904233   5.1825306  18.9605063  35.9697968   4.2657921
  78.8820314  75.5411768  95.1908207  78.7315702  75.2107906  94.3051338
  79.7883940  75.8488131  95.1809406  68.9420033  31.3357425  82.8083324
  68.9547539  32.2633767  83.0440521  69.6963549  31.2252975  82.2295570
  35.5445879  42.7023656  26.0809776  35.5580919  43.2550198  26.8623993
  35.2360934  41.8521172  26.3942596  80.5072880  73.5863447  74.2101240
  81.3019753  74.0927649  74.3781996  80.1255798  73.9911318  73.4312296
   9.7894989  99.4586565  21.1113903   9.7619282  98.5033085  21.0586807
  10.6025254  99.6996643  20.6673786  25.3852337  17.8322322   9.7949192
  26.2729185  17.6393182  10.0966332  25.4967039  18.5387523   9.1588184
   4.3155133 103.9630892   2.5069592   5.0053250 103.8764240   1.8490192
   4.6421944 104.6308376   3.1099674  13.2956254 102.2198059  28.1294891
  13.7763916 102.9945900  28.4206936  13.5423790 102.1162130  27.2104618
  95.6023407  29.5050240  89.2046547  96.0673141  29.6415520  90.0301170
  95.0203323  30.2612495  89.1296768   9.3279951  38.9525849  14.0418789
   9.8963135  38.4226281  14.6007893   9.9197119  39.3386323  13.3960697
  10.9446179  98.5897972  14.6001122  11.6346585  99.1175081  14.1981289
  10.6619965  97.9954483  13.9050552  24.3962990  99.3895485  35.1701233
  24.1180932  99.8184635  35.9793636  24.2184865 100.0333549  34.4844696
 111.5568078   2.8486592  27.8703377 112.2166813   2.9767997  27.1888802
 110.8383048   2.3982770  27.4263260  27.5228375  29.7855527  13.9875671
  27.2326487  28.9411122  14.3324348  27.1264094  30.4318768  14.5718071
 115.1409656  85.0534226  32.7016422 115.8375055  85.2067544  32.0632431
 115.0103695  84.1052391  32.6905319 118.1948079  60.7432515  41.3010094
 117.3165239  60.5005986  41.5942165 118.7371267  60.6745774  42.0867703
  43.6838549   7.0439727   0.6991360  43.4499186   6.1595589   0.9807751
  43.3589762   7.6116759   1.3979981  19.9287861   5.8236510  26.8779156
  20.3570955   6.6537864  27.0868465  20.1093977   5.6884200  25.9476826
  57.8087443  30.1823193  12.9888126  58.0122202  30.6707150  12.1911404
  57.4526709  30.8389146  13.5874149  64.4076651  17.5337798  15.4756329
  64.2817133  17.5587470  16.4241764  64.8098868  16.6811663  15.3097794
  74.0578860   1.2384612  25.7961628  73.7122267   0.4377896  25.4015991
  73.9450377   1.9066531  25.1201317  20.3593194 100.1961471   7.2428867
  20.6823575 100.5121662   6.3990757  20.8221566 100.7274534   7.8907463
  21.6224211  56.4485890  10.9153435  21.8672484  56.9972951  11.6604683
  20.9516638  55.8599622  11.2615177  78.1259871  88.1426716  86.6146851
  77.6878500  87.6967430  87.3395443  78.0207968  89.0742397  86.8079090
  40.2218025  42.2224290   4.8710892  39.7376745  41.4114816   4.7154877
  40.9105032  42.2215516   4.2063114  43.9038008  28.2809216  40.2561924
  43.1604975  27.6976258  40.4094574  43.7870711  28.9891106  40.8894989
   9.6732096  68.8180685  89.8250484   9.5168834  69.3819857  89.0675545
   9.9312358  67.9768515  89.4482040  14.4736325  92.6264717  16.6427967
  13.6286198  92.9436375  16.3240788  15.1071965  92.9460241  16.0003635
  33.0909937  19.9707228  36.0952351  32.6718395  19.6632964  35.2914784
  33.4263724  19.1757304  36.5096447  53.9512175  21.7170770  53.4400150
  54.5420855  21.2303597  54.0146515  53.5589903  21.0486705  52.8782150
  51.8815058   4.8600871  33.6526176  52.1847552   4.1919095  33.0379555
  50.9585684   4.6514136  33.7970993 104.4328958  10.3427558  82.4642563
 104.8859531  10.8574538  81.7963791 105.0342161   9.6247821  82.6621246
  60.2628756  93.8661289  62.4699783  59.6953106  94.5213223  62.8759575
  59.6633673  93.1831264  62.1694231  45.1638811  39.1617925  23.3885071
  45.8737868  38.6140878  23.7235901  45.4505938  39.4152409  22.5111267
  41.9697684  47.0987851  15.1554176  41.1714667  47.5938470  15.3394196
  42.1681708  46.6501290  15.9773514  57.7781534  99.9674034  61.5024567
  58.4759998  99.5268250  61.0175514  56.9973993  99.4412899  61.3296556
  80.6911295  43.2889420  14.4337818  81.3400667  43.6883027  13.8544437
  80.0641649  43.9902646  14.6106789  65.0853747   0.1894385  41.4940521
  65.2099055   0.9676081  42.0373604  64.1381090   0.1344735  41.3679382
  75.4207915  26.0925156  22.7078983  74.8266619  26.7252118  23.1115696
  76.2134188  26.5948636  22.5192043  49.6607416  25.1374204  36.2928936
  49.7305697  26.0906274  36.3452789  50.4686087  24.8157365  36.6930363
  52.2096651  12.9934460  37.7621719  51.5053194  12.8378493  37.1329567
  52.8313082  12.2824199  37.6064846  68.4130573  72.7860069  96.7796230
  68.7410784  73.5365009  96.2842560  68.3131599  72.0932245  96.1266994
  67.0534342  36.7726666  20.0890228  67.6632899  36.4429337  19.4290421
  67.1219843  36.1485726  20.8115456 112.3883213   6.8325860   7.5850842
 112.2092832   6.0049731   8.0314419 112.5667633   6.5821225   6.6786358
  24.9854695   5.9938579  89.3775558  24.6346413   6.3282161  90.2030087
  24.2256772   5.9427409  88.7976074  76.6114759  94.1663551  95.4195786
  77.2839117  94.6599102  95.8891201  76.6931486  94.4552612  94.5106792
  74.0254719  99.4770481   8.8457176  74.1530043  98.6504413   9.3112156
  73.1219799  99.7252514   9.0414879 110.3113096  22.1300561  40.8763096
 110.9744662  22.1996314  41.5630505 110.7924765  22.2803695  40.0626061
   8.6856591 100.7524683   3.0756733   8.1937825 101.4460947   3.5151836
   9.1994511 101.2085964   2.4091885  11.2469786  56.5737874  16.5273735
  12.1006792  56.2577016  16.8232033  10.6732958  56.4586694  17.2849152
  11.7028349  40.0066621   3.7494633  12.4776619  40.1917130   4.2801449
  11.1827868  39.4079739   4.2855141 110.7218647  56.1749792  88.7825108
 110.7052708  57.1271372  88.8792038 110.7927036  56.0312700  87.8388119
   1.8786847 110.2313997   7.2903034   2.7528512 109.8424055   7.2631046
   1.4792382 109.9813654   6.4571449  38.8599938  10.7823808   9.1536972
  38.4856718   9.9070079   9.2529270  38.7068289  11.2055404   9.9985096
  47.4723643   8.5191399  20.3529713  47.5089567   8.1508214  21.2357208
  47.9540938   7.8933007  19.8121616  81.8909376   9.0349776   0.0193474
  82.1825808   8.2424313   0.4699585  81.0933417   9.2933423   0.4812023
  36.9982022   1.0657031  14.3417332  37.9177254   0.9546668  14.1001198
  37.0190876   1.6436059  15.1045010  47.3501795  42.2962910  14.9835560
  48.1424921  42.7748067  15.2274868  47.5984781  41.3740022  15.0464222
  78.3347416  80.0413227  76.1012459  79.1223574  79.5574188  76.3497066
  77.6531124  79.7041225  76.6825438  53.0836218   6.9048888  31.6896984
  52.4818915   7.6145322  31.4648315  52.5750750   6.3326985  32.2643349
  65.7140112  90.8082676  78.6381197  66.3233948  90.7932663  79.3761253
  66.2705421  90.7074833  77.8658819  99.7535116 108.0935384  10.1210663
  99.8286754 108.6421539  10.9018299 100.1643020 107.2654964  10.3697178
  69.8385161  22.5867802  19.5358917  69.3655031  22.3358065  18.7424824
  70.1544588  21.7590911  19.8982975  44.2498415   8.4068114  16.9303295
  44.2832678   7.4894244  16.6591904  45.0127333   8.8076455  16.5137074
  44.1576021  21.9498355   4.1214535  44.0634936  22.0953900   5.0628349
  44.5984286  21.1029584   4.0529224  33.6848181  17.3852498  13.8368580
  32.9863280  17.6001841  14.4550392  34.0108031  16.5344006  14.1301605
  87.5146294  53.8943386  94.5209217  87.7492046  53.2518339  93.8512993
  88.2270622  54.5332670  94.4998074  62.0526045  14.4756133  36.5274403
  62.7673071  14.3402488  37.1496079  62.2980517  13.9537579  35.7634613
  79.7144794  90.9858036  71.4278507  79.2328930  90.5861282  70.7035780
  79.5963001  90.3784180  72.1581507  82.5435829  75.1796484  91.0638809
  82.2019291  74.9461746  90.2007484  83.4442997  74.8557186  91.0605907
  56.2724304 109.8005581  93.8412857  56.0714436 110.5882263  94.3466663
  56.5148020 109.1491032  94.4993877  71.3990038  30.6037003  12.8859207
  70.6857222  31.2344033  12.7875492  72.1942538  31.1359269  12.8625271
  33.4297722  26.9290406   9.9624798  34.2122381  27.4803788   9.9609444
  32.7195185  27.5218922  10.2080128  12.2477471 106.0978128  14.4984505
  11.9923054 106.1799003  13.5796234  12.4148594 106.9967033  14.7818157
  64.1015356   4.7290284  10.6905148  63.1692522   4.7993476  10.8958122
  64.4803541   5.5463464  11.0141155  24.9450987  28.4430653  14.5537922
  24.9477261  29.1496999  15.1994679  24.6222609  28.8530404  13.7513420
  62.8226376  74.8334932  91.4559078  63.2444048  74.6838284  90.6097794
  61.9332170  75.1095772  91.2346840  55.0164622  49.6831281  28.3936474
  54.3310660  50.0058705  27.8085873  55.1711195  48.7828309  28.1076881
  60.5694437  76.9558239  92.8948879  60.4245853  77.2379589  91.9917583
  60.2176857  77.6688385  93.4279060  50.1332491  21.0164744  25.2265617
  50.6370466  21.6997392  24.7843334  49.7301119  20.5180890  24.5157024
  38.9812868  23.3672578  18.6068317  39.4286650  23.1270320  17.7954266
  39.5879238  23.1083495  19.3005058  75.7353592  90.8091640  90.3712559
  75.5418253  91.7259121  90.1754475  74.8764944  90.4017067  90.4833412
  95.1687050  97.6085281  83.3445358  94.3304539  97.1471786  83.3177853
  95.3764153  97.7813148  82.4262619  52.6000040  24.6788651  37.3590633
  53.2927054  24.2333228  37.8468010  52.9606837  25.5445916  37.1675846
  88.3815115  29.1044003   5.3440258  88.1997317  28.1757409   5.1998589
  88.2733744  29.2260129   6.2872860 101.5967120 102.3320753  71.6185236
 100.6525553 102.4017377  71.7597628 101.8228401 103.1171281  71.1197329
  46.5088511   1.0690928  73.5559034  46.2703228   1.8661873  73.0826473
  46.8424273   1.3808045  74.3972111  52.5931168   5.6614393  72.0244837
  53.3540344   6.0687715  72.4383879  52.9561663   5.1672673  71.2894869
  40.0593948   7.4815762  82.1304607  40.9832239   7.4832898  81.8799305
  40.0641346   7.6909518  83.0644703  88.2477266  38.5261454   8.9808533
  87.3257190  38.5185208   8.7237999  88.5049850  37.6041700   8.9773533
  81.6092283   5.3399708  13.6231682  81.3414890   4.6080734  13.0674049
  80.8294946   5.5473997  14.1381619   1.7036074 106.9876100  73.2907009
   1.4793986 107.6411046  72.6281977   2.6446932 106.8501041  73.1826258
  60.4032046  73.7817718  15.7510540  59.7718031  73.1838144  15.3510448
  60.6657607  74.3645693  15.0385639  90.6859619  36.0060240  21.0672543
  91.3490612  36.6938008  21.0081455  89.9936134  36.3866402  21.6076347
  76.3036919  12.7655768  96.5575123  76.4238310  12.4845934  95.6504059
  77.0009518  13.4046447  96.7046452  41.8753338  17.2264051  85.3082275
  42.2921848  17.8048611  84.6695995  40.9413099  17.2795808  85.1057243
  70.5839443  24.0546679  49.7845268  71.3985682  23.5976386  49.5753860
  69.9005985  23.3966374  49.6570063 108.6611349  79.6390249   6.6799233
 108.3405000  80.3520991   7.2321484 107.9636080  79.4999577   6.0393402
  93.4750921  72.2167696   1.8302700  94.1802198  71.7679621   1.3637993
  92.6973325  72.0631625   1.2938759  79.2046404  10.0852156  91.0240650
  79.9315166  10.5111003  90.5696392  78.4731340  10.6954288  90.9303856
 103.7357980  85.0129415   1.1459801 104.3240339  85.7492210   1.3136169
 102.9255611  85.4190137   0.8379910  69.4912863   4.8375413  78.9819050
  69.6030569   4.9320126  78.0359602  68.5554838   4.9764055  79.1275644
  93.3238918  76.6951443  17.4395535  93.1185848  76.9421651  16.5378544
  92.4707205  76.6144373  17.8659508  78.5214049 103.0987932  32.9528591
  78.8899333 102.9780056  32.0777390  77.8069789 102.4636223  33.0016491
  69.0251255  10.4728162  83.1253338  69.7813988   9.9941278  82.7860069
  69.2143059  10.5907869  84.0562057  57.8969097  13.0179226  89.9972725
  57.8526449  13.9567590  90.1785374  58.8159084  12.8585899  89.7821331
  72.5800783  44.4190051  10.6232903  72.9431445  45.0225903  11.2714455
  72.3945600  43.6203565  11.1172268 110.2255089  77.3028018   5.6457302
 109.9344331  78.2145502   5.6607220 111.0872871  77.3196246   6.0620091
  70.9670591  16.8917108  96.2591362  71.1797857  16.9702065  97.1890926
  71.8130875  16.7646527  95.8298111  94.9551613  47.1991839   4.9428532
  94.3217975  47.8579052   5.2277634  95.1185734  47.4062427   4.0227196
  77.2613144   5.2819073  65.6963348  77.4019623   4.9529231  66.5841484
  77.5594711   6.1909443  65.7277155  96.0335762  35.7795133  25.2459023
  96.4473802  36.0354485  24.4215939  96.2427503  36.4917864  25.8501789
  38.2886815   7.7529132  94.1804504  37.7672720   7.0557594  93.7825298
  38.2339430   7.5856686  95.1213360  75.9549743  63.6975254   9.4086430
  75.0623566  63.8476391   9.7199890  76.4565331  64.4359280   9.7542355
  29.4274306  21.8019152  51.7888594  28.5962486  22.2361565  51.5970182
  29.2261076  20.8673620  51.7407799  90.4428751  88.9048268  26.7573998
  89.7244484  89.2862465  27.2619888  90.5012686  89.4509007  25.9734127
  20.9420776  29.6737576  79.8728085  20.1887894  29.9685359  80.3845692
  21.6127634  29.4753885  80.5263138  86.9161350  22.5515296  19.4949505
  87.6752741  23.0186154  19.8438999  87.2362501  22.1402384  18.6920807
  74.7258997   6.3045585  94.8317242  74.9873447   6.7425722  94.0217781
  74.8985147   6.9483972  95.5186844  59.7747165  63.6344595   1.3909027
  60.0716764  62.7251645   1.4259789  58.8492829  63.5936614   1.6320202
  46.1104345  15.7418346  71.3651991  45.2089691  15.8708358  71.6600752
  46.5626574  16.5466690  71.6181183 104.0260590   7.6090724   2.8015015
 104.7109140   6.9451148   2.7216885 104.4609488   8.4304625   2.5725529
  76.7055089  38.9737417   0.5291817  77.3638660  39.6469964   0.3573486
  77.0580203  38.4769572   1.2675449  93.3672744  22.4987103   0.4415581
  93.8400966  23.2281257   0.8423397  93.4068948  21.7999388   1.0945389
  73.1434536  36.7659569  84.0431690  73.0718517  37.4612880  83.3892441
  73.7952185  36.1645722  83.6829281  33.8786983   1.9830930  95.9691334
  33.8149786   2.0972151  96.9173717  33.8289142   1.0362302  95.8379745
  87.4565601  24.7210240  86.0566711  88.1630802  24.3178630  86.5611744
  87.5637341  25.6608534  86.2031937  19.5772236 102.4178381  67.6409054
  19.5827597 101.9736190  68.4887695  19.2587584 101.7567820  67.0262384
  44.9591208  32.2873807  70.8889008  44.1832209  31.7977643  71.1618233
  45.5577946  31.6200018  70.5536032  86.3437158  84.5265891  23.9334652
  85.8143741  84.7302224  24.7045395  87.0466120  85.1761915  23.9471218
  29.7908467  95.3077013  83.7285423  30.5844181  94.7729297  83.7062645
  30.0108403  96.0388131  84.3058777  87.1752626 105.3886701   7.8189728
  87.1822960 106.2845613   8.1559631  88.0312616 105.2821113   7.4040768
  79.5813400  77.7278783   0.7585213  78.9653141  78.2112576   1.3090584
  80.3821403  77.6794864   1.2806484  37.5990265  73.5773630  69.1687202
  37.8328961  74.1086287  69.9298382  37.1616810  74.1881771  68.5755348
  87.0567734  48.3323570  16.9071552  86.4476425  47.9492642  17.5383637
  86.9096071  47.8371115  16.1013577  36.5956116  21.2107086  86.1732578
  36.1401653  20.4087353  86.4294624  35.9254909  21.7383504  85.7387924
  46.3646698  32.6302290  85.2309036  46.3630104  32.6559615  86.1877537
  46.8456173  33.4159613  84.9710083  78.7403733  40.6505205   5.4226658
  79.6673662  40.4259969   5.3420040  78.5774237  40.6600167   6.3658402
 108.7803537  65.4304411   4.2599079 108.6490232  64.5237304   3.9826748
 109.5104152  65.3886910   4.8775646  93.2507641  65.6487836  30.5195591
  93.2941086  66.1861994  31.3104698  92.7265770  64.8894806  30.7743618
  83.1129057  86.0772707  17.6518223  82.4022705  85.5308034  17.3162624
  83.2018120  85.8180167  18.5689423  19.3664044  85.3995914  75.5254030
  20.0133913  84.7520633  75.8053112  18.7308424  85.4277725  76.2405968
  90.8804876  75.7925536  18.0680439  90.1676828  76.1491157  18.5981438
  90.8547575  74.8503293  18.2347366 105.8777649  86.2182786   5.1641151
 105.1876194  86.8185808   5.4462025 106.5786535  86.7896511   4.8502323
  71.7590434  37.3711290   4.5030758  72.0265443  37.7181067   5.3541252
  72.0992309  38.0026485   3.8692829  66.6672707  29.9710870  72.1862459
  66.4694881  30.3808761  73.0283785  66.3208961  29.0822530  72.2651720
  19.4199961  10.5792910   9.8388454  19.6812742  11.3870532   9.3967030
  19.5188015   9.8989446   9.1728088 117.1433199 108.7657947  84.3487835
 117.5880040 107.9183413  84.3312073 117.0136918 108.9874310  83.4266567
  79.5449144  65.4365058  24.2216942  79.5758707  66.1072482  24.9038765
  79.5372135  65.9295012  23.4012482 101.1324865 101.7263986  12.8559372
 101.7096121 101.2556173  13.4572098 101.0851032 101.1660196  12.0813629
 110.9942228  56.4261871  49.0589687 110.3975422  56.2235299  48.3384583
 111.2757427  57.3255132  48.8910744  79.4674587   0.4944509  87.6938820
  80.1395035   0.9704119  87.2059822  79.9561596  -0.1407291  88.2172871
 102.4762804  75.3404011   9.0014431 102.1207506  74.6725072   8.4151432
 102.4131948  76.1549999   8.5027668  25.4654061  60.8125790   7.3291180
  25.4966103  61.7324223   7.0661614  25.8278309  60.8042951   8.2150147
  91.1761457  78.5960318   3.1941769  90.8666403  78.7198402   2.2968933
  91.6951210  79.3788816   3.3786842   3.4456955  71.8301727  13.2151577
   4.1549336  71.9041146  12.5766060   3.8834797  71.5947510  14.0331718
  43.4921598  18.1143665  93.5920811  43.8893843  18.4354293  94.4016171
  44.1909409  18.1774962  92.9409599  44.9320412  31.1390281  81.5738201
  44.1764545  31.7084146  81.4285088  44.7083139  30.3245568  81.1234665
  55.4705000  11.7020166  91.8326092  56.4257288  11.7611277  91.8161774
  55.1998234  11.9519448  90.9491539  92.8157741  96.6719009   2.9983494
  92.2437793  95.9125091   3.1096241  92.3257333  97.2584774   2.4221394
  57.4070787  25.1975989  95.8478832  56.6282082  25.1790166  95.2917767
  57.2112083  25.8581042  96.5124130  82.0473320  84.3865396  12.4541447
  82.5931579  84.3502785  13.2396385  81.8868620  83.4695389  12.2314522
  21.3655489 109.0193078  70.7676744  21.1982268 109.9356611  70.5473709
  22.1855849 109.0374702  71.2610722  88.3269388  48.8365485  23.0500290
  89.1846067  48.9249380  22.6343033  87.9480106  48.0523189  22.6530048
  79.3682987  27.3213269  29.1585133  78.5341388  27.0188977  29.5176003
  79.9084026  26.5325286  29.1103718 112.6224834 103.9136888  44.1703960
 112.6566059 103.2116129  44.8201344 111.9663984 104.5224525  44.5098087
  67.3302984  26.3751435  72.6491785  67.3495293  25.4448295  72.4247360
  66.4123058  26.6268992  72.5484657  55.0155443  87.4225475  12.3044750
  54.0786332  87.2582246  12.1975681  55.4321319  86.8759872  11.6381714
  29.5786684 106.0600830  71.5631533  30.2714413 106.4174647  71.0076618
  29.4553393 105.1652778  71.2463808  90.3721363  67.1970166  30.6832573
  91.2849838  67.2501351  30.4001972  89.8699886  67.1703364  29.8687813
   2.3062741 110.4818632  22.1925613   1.7167603 111.2277748  22.0815727
   2.3891198 110.3810884  23.1408283  18.0270791  44.3477440  76.0122585
  17.9970157  43.4902620  76.4365864  17.2864890  44.8257446  76.3854504
  99.9601210  96.2105544  61.8781900 100.8586277  96.3730318  61.5909290
  99.9047507  95.2588935  61.9648266 100.6169588  70.6395961  12.3930618
 101.3970262  71.1335637  12.1406242  99.9080259  71.0363211  11.8868420
  91.3322670  85.2656128  18.1348393  91.7253525  85.4086305  18.9958069
  90.9817917  86.1210157  17.8864834  68.7768078   7.8015250  90.9506130
  69.1110134   8.6825550  90.7823181  68.9547920   7.3195207  90.1430035
  58.8134510  23.8291361   0.7483742  57.9429847  23.9456512   1.1290905
  59.0340692  22.9156234   0.9301922  84.0665817  18.7966168  60.1306391
  83.9505291  19.1470397  59.2474842  83.3480263  18.1732965  60.2373362
  50.3637123   1.6455214  90.8131981  49.6343899   1.4324124  90.2310467
  50.7118654   2.4683174  90.4696465  90.5790788  93.7494280   7.7551243
  89.6993095  94.0691663   7.9551289  91.1024601  94.5429208   7.6425526
  55.6873751   9.7004372  80.5035114  56.5677977   9.5168138  80.1758385
  55.7575846  10.5656028  80.9069824  21.5990322 108.3562360  87.6135921
  22.2498863 108.4258626  88.3120060  21.3483494 109.2613373  87.4287128
   4.4569050  70.2105834  25.1458332   4.3997609  70.7104494  25.9601376
   4.8445164  70.8198382  24.5174953  90.4940349  89.9359895   8.6035511
  90.8384735  89.2976715   7.9789421  91.1887676  90.0326993   9.2548725
  72.3818874  12.0358872  67.9883480  71.4909077  11.6882706  68.0277348
  72.6792955  12.0362043  68.8981724  95.1086647  50.2273162   8.4101936
  95.3284580  51.0848315   8.0460617  94.6206028  49.7890468   7.7130863
  49.1856432  21.5985656  79.4872522  48.3668852  21.5132546  79.9757099
  49.7204065  22.1894312  80.0174713  67.9307133  38.6499860  16.5760586
  68.6158401  39.1903688  16.1825916  67.1903426  38.7261488  15.9741661
   8.1471985 105.3900881  82.6526451   8.3699005 104.6945484  82.0338821
   7.2646635 105.1711173  82.9516602  38.3839005  98.5688085  90.2318192
  38.6815232  97.7858133  90.6950378  39.1323536  98.8281937  89.6944523
  14.5320356  10.4833794  71.1558008  15.2359605  10.1771259  71.7275763
  14.4025719  11.3986123  71.4044380  43.4417582  33.9979053  78.9630699
  43.1589842  33.4001446  79.6551323  43.1649780  33.5726643  78.1514120
  40.0906849  25.1226354  58.0604601  39.2121291  24.9066305  58.3730507
  39.9787998  25.9423518  57.5790215  69.1212708  77.9282381  21.6342327
  69.3963939  78.8449218  21.6494343  69.2420775  77.6269485  22.5347111
  97.1184522  81.6167738  15.6798718  97.9201347  82.0174195  15.3436825
  96.8750507  82.1603610  16.4292023  75.1059777  67.0387568  17.3047611
  75.2888090  67.0388855  18.2443401  75.9199435  66.7357673  16.9024059
 104.7567541  80.2002575  17.6693890 104.6448023  81.1421110  17.5405094
 105.6497699  80.0225832  17.3741123 105.2362758 105.9953500  25.3700611
 105.5000002 106.9002296  25.2031014 106.0589296 105.5303814  25.5226204
  64.4138479  39.3566871  84.3810272  64.1364956  38.5088849  84.0338326
  65.2750349  39.5052981  83.9905262   7.5398129  11.4045024  61.0948467
   7.8212428  10.5241001  60.8460093   7.1894974  11.3027954  61.9798136
  94.2734081  30.4033758  26.5018723  94.2961389  31.1553909  27.0936367
  94.9701959  30.5757572  25.8686230  54.8936469  71.7369379   0.6769440
  55.6132883  72.2521855   1.0414574  54.2392821  71.7120244   1.3751003
  85.1215870  47.9919376   7.0390389  84.3908817  48.1328137   6.4369938
  84.9450189  47.1382673   7.4343845  84.9492359  11.3495553  94.8931503
  85.0294399  11.8648207  95.6958389  85.6137180  11.7130053  94.3078327
  75.4589319  23.8595414  89.2900372  74.7131824  24.0717268  88.7287331
  76.1460924  24.4664764  89.0149593  95.1832945  66.3248910  20.2594349
  94.5242864  66.3036515  19.5655319  96.0189516  66.3699533  19.7948048
  18.9304483  29.9334764  75.1267958  19.5458722  29.3917394  75.6207609
  18.8290417  30.7243586  75.6563759  69.3887234  21.8828988  68.2462740
  68.8703680  22.6251578  67.9354858  70.2404308  22.2606683  68.4656334
 102.1662599  61.0931422   0.2482483 102.1439487  61.5949018   1.0630867
 102.9583627  60.5601262   0.3167889  61.5023899  12.8873837  67.9175282
  62.0321417  12.1993804  67.5147295  60.7127619  12.9284477  67.3780537
  92.1470625  74.9798192  14.6851513  91.3242275  75.3936841  14.4245979
  92.7679617  75.7048763  14.7559139 102.3260338  78.8940908  26.6165230
 101.4583570  78.7122728  26.9775078 102.4815447  78.1816889  25.9964153
  52.2044516  34.6003294  68.5494709  52.4366140  34.3746591  67.6486874
  51.3199902  34.9607420  68.4857368  56.8476868  49.2616367  86.6410255
  56.9161987  50.1912594  86.8585968  56.0232353  49.1883039  86.1602497
 116.8483478  57.5884532  18.6081192 117.7449447  57.2544140  18.5805389
 116.6763050  57.8867504  17.7150032  97.8468782  42.3951794  31.2014553
  97.4347240  41.6114141  31.5648720  98.7775261  42.2899176  31.3990566
  56.5272474  34.1869164  87.0436859  55.8893967  34.6996808  86.5472412
  57.3312330  34.2395949  86.5269089  43.4702128  85.1449079  93.5930443
  44.2778986  85.4812617  93.9812851  43.4953039  84.2037458  93.7657166
  11.3465058 104.8416998   0.7242271  11.9337594 105.1042558   0.0153992
  11.4520775 103.8921835   0.7834122  55.3850746  41.3445044  92.3001480
  54.8600006  41.0367584  91.5613556  56.1267471  41.7946911  91.8958187
 114.3755752  83.2421662   1.8299934 113.9286596  82.4269439   1.6021606
 115.2727300  83.1181266   1.5202210  64.8871040  40.7651377  89.8063374
  64.5801973  41.1126709  88.9689255  65.5749273  40.1428986  89.5697880
  45.5401039  24.7344613  89.8020935  44.7948360  24.2492509  90.1561737
  45.7939625  24.2457247  89.0191936  46.1196136  40.5909014  69.6106339
  45.8311749  39.7848392  70.0387669  46.6612768  40.2932692  68.8797140
  56.3329983  32.2440267  72.2142696  57.0887995  31.7876959  72.5840759
  55.5824804  31.7039037  72.4617100  57.1337795  36.5297174  64.3702793
  57.6301003  35.7569218  64.1006756  57.5877333  36.8453360  65.1516485
   9.3840348  69.2610420   6.6902229   9.0704285  69.9559571   7.2689888
   9.5676075  68.5263588   7.2756931  84.9097854  63.3909638  22.6924679
  84.0523416  63.8163836  22.6863453  84.7757036  62.5748803  22.2105286
   9.3406426  66.8684329   1.7297718   9.7657811  66.0118760   1.6873714
   9.6998250  67.2753360   2.5182220  61.6729021  17.1672893  79.6026611
  61.9976139  16.6768503  80.3578186  61.1537981  16.5319216  79.1096401
  22.6256310  64.3478061  26.9471809  22.8449379  64.9473609  27.6603958
  22.8144394  63.4778561  27.2990009  40.3342628  27.7529860  56.7628860
  40.9590435  28.4756303  56.7023468  39.5211577  28.1086850  56.4043188
  67.2400856  35.4121566  80.5051994  67.9647923  35.0167561  80.0207520
  66.4652872  34.9341249  80.2095509   9.0895783  73.1734015  11.4738438
   8.7313496  73.1960131  10.5864975   9.6256386  73.9639832  11.5359470
  95.0057030   9.7225565  89.5660591  94.8012733   8.7996262  89.4155884
  95.8860874   9.7147179  89.9416924  43.3655882  45.3606033  90.3041363
  43.5678244  46.2332582  90.6414795  42.8523731  45.5228043  89.5125961
   4.4601666  76.3134386   0.2879116   4.2302834  77.2421505   0.3175804
   3.8857113  75.9458400  -0.3837326  51.1280727  25.1779938  82.2688198
  50.2258778  25.4659367  82.1296692  51.1519051  24.2873669  81.9188976
  24.6860504  30.5701995  69.6604013  23.9844298  30.6724191  70.3034496
  24.3356490  30.9602094  68.8595629 114.2404634  92.7733137  15.3770706
 113.4515173  92.3023798  15.1087067 114.4329769  93.3561660  14.6425983
  92.9931671  95.2318122  47.0019028  93.8377792  95.2659299  47.4510071
  92.6084739  94.3999697  47.2780869  26.0679221  40.7513857  59.0717888
  25.7901096  39.8449063  59.2034912  26.5742993  40.7311249  58.2597494
  85.0545597  18.1266832  81.6746712  85.1646137  18.2304025  82.6198483
  85.7330799  18.6829638  81.2920666  36.3546848  44.8378134  91.5357876
  36.0730886  45.0386286  90.6432629  37.1718740  45.3242970  91.6442871
 111.8090135  62.6910581  20.7535622 111.4975864  62.9121484  19.8758575
 111.7818290  61.7347129  20.7835075  54.3408680  30.6535363  84.2779255
  53.7485838  31.3874459  84.4416523  54.8928165  30.9481931  83.5535240
  66.5058470  20.2924132  65.8817625  67.0646524  21.0428619  66.0837317
  65.7815647  20.6621313  65.3768301   1.9085251  70.2174665  51.1584732
   2.2036015  70.7201578  51.9177219   2.6605736  70.2142967  50.5663273
 104.5303668  94.4160254  85.4760551 104.5791138  93.7980134  86.2053871
 104.7469367  93.8931019  84.7041225  94.0282613 104.8943187  25.3346226
  93.9461738 103.9870788  25.6285831  94.3654424 105.3637411  26.0976383
  39.3389082   4.7379252  86.9346237  39.3387175   5.6804204  87.1017647
  40.2657080   4.5022413  86.8930340 111.7010147  78.5290648  19.1207382
 112.0073969  77.6228096  19.1533634 111.6894848  78.7445642  18.1881783
 109.6472246  75.1293875   3.9055035 110.0006468  75.8492638   4.4280884
 110.2801115  75.0148429   3.1965801  73.2974052  15.9745848  89.8705101
  73.2346678  16.1988723  90.7989407  72.8559113  15.1283693  89.7981644
  30.4331433  84.7256734  14.9820683  30.7583272  85.5130531  14.5455811
  29.5217644  84.6536757  14.6984360  45.0887871  17.9117286  78.9940262
  45.0170708  18.5247433  78.2623863  45.7247639  18.3162987  79.5840120
  51.7994690  37.7984190  60.3083754  51.1365557  37.5976539  59.6477175
  51.5105820  38.6255431  60.6939173  74.5047242  79.8322083  20.8271858
  74.5898754  80.4288294  21.5708420  74.4240505  80.4076053  20.0665066
  83.8171751  68.6733951  19.8455498  83.6923153  68.2024945  20.6695053
  83.7966806  67.9912640  19.1743538  60.1691818  24.8359632  95.2942562
  59.2787838  25.0262356  95.5895901  60.4015207  24.0226984  95.7424259
 108.4678060  76.6640307  18.3437511 107.5386125  76.7363455  18.1255600
 108.6565000  77.4526979  18.8523075  48.8820267  45.7212305  85.5833721
  48.7273645  46.1557674  86.4221096  48.9834452  46.4381552  84.9573040
  73.1328011  22.3454356  96.7625237  72.5252533  23.0694199  96.9140625
  73.1107521  22.2085023  95.8154297  85.9433270  31.2436438  83.3347893
  86.8045330  30.9300447  83.0587292  85.4042530  30.4539990  83.3805847
  71.9312048  27.5453067  87.8115368  72.8501129  27.8128600  87.8273296
  71.9089222  26.8004298  87.2107887   0.0338208  73.0423929   1.0974762
   0.7891451  72.5828578   1.4642689  -0.2954210  73.5768940   1.8200657
 110.4570896  58.6909451   1.9347736 111.1705906  59.3269457   1.8833038
 110.1373512  58.6164133   1.0356400  85.4242134  29.2291236  87.3626709
  85.4347610  28.5124731  87.9971313  85.3601170  28.7949777  86.5120029
  79.3168640   1.2587650  95.9525776  79.5706558   0.9117991  96.8078136
  78.3710909   1.3905971  96.0186481  44.0052700  14.8794460  86.1118031
  43.0976343  14.9819827  86.3980103  44.3813658  15.7562423  86.1893463
  63.7262583  20.6171775  86.1486340  63.2552862  20.9975791  86.8900585
  63.2194328  20.8826733  85.3812504 114.8469002  79.9672677   2.1615669
 113.9442760  80.1540543   1.9034740 114.9087459  79.0122606   2.1424076
   5.3402936  68.8289179  28.4946224   6.1970650  68.4551086  28.7006638
   5.1884781  68.5902180  27.5801823  10.6956135  79.0514566  13.9129612
  11.4479672  79.3015172  13.3766243   9.9533974  79.0720679  13.3088657
   7.2377907  82.7184798   5.2718422   7.4080025  82.3237635   6.1270973
   6.6269719  82.1160557   4.8473141  59.2725992  17.4988329  89.5220184
  59.7457409  18.2048023  89.0815926  59.6630001  16.6963995  89.1757202
  88.6412269  81.4732744   9.6371815  88.3511430  82.1312882   9.0054390
  89.5195705  81.7562415   9.8914978  32.8278862  90.1421620  16.8128655
  32.9495751  90.9511615  16.3159248  31.9841706  90.2546384  17.2507164
  46.9880915   1.5878537  79.0875196  47.5657558   0.8290499  79.0053511
  47.5753832   2.3145759  79.2953587 109.4615663 102.5530661  80.5643272
 109.1358460 103.1576128  79.8974943 110.2901329 102.9368783  80.8513737
  54.5117092  10.6272602  96.4769745  55.0472546  11.3442945  96.1374378
  53.6553526  10.7536733  96.0684299 102.3308945  14.7914982  87.7311993
 101.5493298  15.0713933  87.2546959 103.0428123  15.3006661  87.3437214
  65.4165077  33.6773014  79.3917131  65.9916544  32.9914188  79.0525961
  64.7253084  33.2033229  79.8541260  96.3000375  69.7230579  32.8048203
  95.9268171  69.8283817  33.6799500  95.5403644  69.6276070  32.2303555
  84.7407037  67.5789549   8.4045193  85.6155664  67.3979773   8.0608723
  84.3275816  68.1225504   7.7336475  86.8464661   5.5003297  85.5399036
  87.4361706   6.0769951  85.0541687  86.8476009   4.6825683  85.0424099
  80.4435856  75.9822013  20.2467701  79.7630436  76.5446545  20.6165573
  81.2526495  76.2801983  20.6625149   7.4558770 100.7848741   9.2635414
   7.8731762 100.9115030   8.4114430   7.0058762  99.9435045   9.1871807
  79.7167761  81.4160825   3.0115101  80.3097278  80.9262492   2.4416801
  79.0064103  81.6958548   2.4341557  97.4986488  60.1235928  22.6043198
  98.1716711  60.4875378  22.0291493  96.6861803  60.5388056  22.3149559
  51.2429810  55.3718805  92.5453568  51.5707350  56.2521362  92.3610687
  50.2964878  55.4826927  92.6353550  33.0626226  73.6508013   0.6828186
  33.7456334  74.2974939   0.5052921  32.4288249  74.1156532   1.2291214
  42.9136276  48.2328510  90.2615166  43.3119726  47.8518867  89.4789410
  43.6036062  48.7772942  90.6406403  73.5603094  19.9335730  69.9918461
  74.0172195  20.6239438  69.5113707  73.4069967  20.3069949  70.8597612
 108.5193187  69.1275825  36.6505024 107.5700266  69.2498376  36.6389629
 108.8757450  70.0117435  36.5641853  95.0412018  66.4141847  28.1566593
  94.6568042  65.8300997  28.8103554  94.8760063  65.9792163  27.3201534
  91.5923483  73.2811512  38.9173004  91.1008007  74.0242149  38.5673496
  91.2566978  72.5243260  38.4368965  40.7312155  14.3263078  74.3899250
  39.8809195  14.7657764  74.3996191  40.5849218  13.5329390  73.8747549
 108.7824089  96.3761522   9.1465542 108.3533890  97.0533325   8.6234829
 108.1489355  95.6591727   9.1762039  52.6125908  44.3301535  91.3639832
  51.8726683  44.8401833  91.6935539  52.2129297  43.5522890  90.9748459
 105.8985454  48.3226301   4.7638008 106.3500149  48.4014668   5.6041500
 106.2061578  49.0730049   4.2553303  40.2186554 110.7555666  77.9740047
  39.9567288 111.6722706  77.8886795  41.0416716 110.7860349  78.4617996
  77.6955635  70.5510642  22.6690743  77.8012282  71.5015127  22.7104637
  76.7709476  70.4039695  22.8682682  55.8002377  25.3348708  83.5093975
  56.6547823  24.9082446  83.4463882  56.0038996  26.2620163  83.6324978
  51.0581160  32.9717302  82.7373981  51.1736917  32.0413518  82.5443459
  51.2872314  33.4159923  81.9210815 100.9243870  40.8032703  86.1050892
 100.9614182  41.5121508  85.4629421 100.0333500  40.8412933  86.4527035
  65.9243965  17.9806781  56.8589926  65.1688910  17.3932493  56.8782091
  66.3525820  17.8479278  57.7047253  79.5552301  20.8935976  85.4170513
  78.8824797  21.5689111  85.3299141  80.1528263  21.2352610  86.0821629
  76.5469844  47.4856503  30.3944180  75.7591254  47.2977485  29.8843166
  76.3567526  48.3154400  30.8320114  80.8656008 107.3359729   6.6260216
  81.7272884 107.2583343   7.0355389  80.2530557 107.3667623   7.3609230
 105.7053406  57.4834183   7.1970532 106.4287979  57.3209241   7.8023884
 105.2088911  56.6650409   7.1919605  37.1708798  48.6392689  96.5386009
  37.1331286  47.6859760  96.4608955  37.9052758  48.8961363  95.9810066
  12.0325696  67.7653708  19.2537090  12.6940381  68.4515454  19.3423531
  12.0607316  67.2963812  20.0876686  56.0492134  32.7412415  75.3253841
  56.2364388  32.0706582  75.9822702  56.9049835  33.1134605  75.1124430
  14.4905221  74.4159521  12.0619843  14.1766201  74.1140606  12.9143688
  14.5361744  75.3682651  12.1471092  66.8967438  18.7825119  86.2120533
  66.0943699  18.5499799  86.6793442  67.3775148  19.3396318  86.8241882
  99.5763141  83.3079030   9.1373608 100.1274807  83.7510277   9.7824070
  98.9307100  82.8324463   9.6602032  61.6478365  97.5320692  51.9167519
  62.4162405  97.4973304  51.3470268  62.0055407  97.6763375  52.7928019
   4.2259251  78.6639430  18.3134243   3.4859406  78.4790208  17.7350971
   4.6558987  79.4218733  17.9173252  10.4247605  83.8497855   1.2296269
  10.7094895  84.6940686   0.8798477   9.5144307  83.7675144   0.9454605
 114.4425136  62.0873083  12.0423862 115.1997835  61.6471078  12.4283859
 114.3258793  61.6623582  11.1926529  85.1268387   0.2642199  95.9506321
  84.9458885   0.5536830  96.8448925  85.8627224   0.8069275  95.6674957
 109.7722275 101.8839599   5.3269264 110.5546028 101.9959022   4.7869370
 109.1459924 102.5167658   4.9753449  63.1164265  33.1477451  75.6709719
  62.3235846  32.8722525  76.1311245  63.7558556  32.4620986  75.8639812
  55.4108256 105.2111257  75.7283783  54.9553507 104.9868609  74.9169111
  55.0742453 104.5877809  76.3721037  37.1884179  52.0676470  74.7149611
  38.1300759  51.9028187  74.7633457  37.0670462  52.5201464  73.8802481
  55.9068108  18.4677434  75.4925442  56.2701368  18.9759552  74.7673273
  55.4521990  17.7389276  75.0701857  31.7988086   5.8524162  95.7973385
  31.1469126   6.5525061  95.7636166  32.3636222   6.0863584  96.5338802
  89.7473747  88.4754969  11.9571278  90.6989414  88.3785106  11.9204876
  89.4168932  87.5784780  12.0058414  83.7131674  69.3027343   6.6921589
  82.7922088  69.5124687   6.5369770  84.0076572  68.8987900   5.8758614
  62.1427107  16.5227306  91.0113621  62.2505760  15.5901957  91.1983776
  61.4951849  16.5524304  90.3070450 107.0571214 108.2440569  16.1086819
 108.0077392 108.3543398  16.1284706 106.9238598 107.2995569  16.1886093
  48.4189892  33.3311057  59.5597839  47.7170944  32.7144051  59.3517923
  48.6833286  33.1015420  60.4506588  64.1388804  80.4550053  26.1724827
  63.6036736  80.4025461  25.3806278  63.9076692  81.2980463  26.5624306
  33.9483762  35.9440732  86.7703056  34.6453214  35.7612991  87.4004650
  33.4125757  36.6148496  87.1936417 117.9390890  66.7507471  36.3839218
 117.6748831  65.8845188  36.6938755 118.0868561  67.2563304  37.1831581
  46.9803077  37.0041610   7.0585129  47.7645690  36.5604629   7.3814652
  46.5766818  36.3734450   6.4622662  99.9609596  98.5181286   6.7992184
  99.2189152  97.9471304   6.6003105 100.5113155  97.9998733   7.3863766
  85.9028465  78.8924004   3.2688210  86.5625746  79.1571356   2.6277992
  86.2507564  79.1925980   4.1085121  68.4047127  42.1207762  84.0435123
  69.0741444  42.5660801  83.5240936  68.0229521  42.8115606  84.5850945
 114.0373546   8.6865236  40.2174828 114.7049076   8.8271047  39.5460293
 114.2794592   9.2843105  40.9247849  63.6766434  23.0452156  90.3569126
  64.4404936  22.6497984  89.9368954  63.9351368  23.1519747  91.2723446
  89.9740679  76.2865569  13.6655972  90.1151020  76.7452385  12.8373692
  89.0961200  75.9135272  13.5863182 116.0210878  74.1448738  23.5237858
 116.1616832  74.7419156  24.2586395 115.7799417  73.3138813  23.9330933
  51.9088411  30.5528378  74.3349743  51.5698433  31.0769343  75.0606728
  51.5508413  30.9693480  73.5510206 104.5586378  76.2078907   5.5725357
 104.9009115  76.7456366   6.2866184 103.6974842  75.9232976   5.8785603
 114.1271192  92.8287389  32.5851700 113.6838228  92.6439645  31.7571804
 113.6573250  93.5807349  32.9457638  84.0435791  43.4935999  83.9644718
  83.8655472  44.2411232  83.3937359  84.8161793  43.7538719  84.4660568
  38.8374972  25.0161457  94.7294331  38.8919139  25.5889630  93.9644814
  37.8989220  24.9230886  94.8926830  98.0603964  73.5537388   8.3277294
  98.7839634  74.1643550   8.4685585  97.7021629  73.4011080   9.2021439
  87.5152016  28.5571170  75.1562071  86.7830563  27.9721904  75.3512573
  87.7845097  28.3163857  74.2697811 103.3242065  85.0654580   6.7967960
 102.5701458  84.4766356   6.7666027 103.9440996  84.6931197   6.1696312
  71.2365961  41.3319969  81.3354588  71.6582012  42.1910000  81.3111782
  70.3004456  41.5259123  81.3828659  60.6631470  16.2443972  96.5976334
  60.1883793  17.0530736  96.4056301  60.3706837  15.6294668  95.9249115
  42.7489996   8.9506537  77.1024418  43.5523319   9.4687140  77.1524572
  42.9743290   8.1185490  77.5184488  26.9192093 107.0159597  68.7001038
  27.5734919 106.3223530  68.6161137  26.3588208 106.9109790  67.9312229
  67.7210283   3.1662548  76.3165760  66.8601465   3.5599604  76.1747837
  68.2244062   3.4042189  75.5379772  85.9459782  20.8505917  90.4381943
  85.8443260  21.6102624  89.8647785  86.0096836  21.2216139  91.3182545
  78.0074596  28.7044525  87.0665169  77.5100517  29.0701342  87.7980137
  77.4072647  28.7499285  86.3222504  29.9357748  14.5186400  87.7402687
  30.3363705  15.3588045  87.5169277  29.0617204  14.5593607  87.3521996
  84.3326074  62.9948004  33.1754086  84.4894487  63.7902935  33.6841557
  83.7912637  63.2832761  32.4405930   5.5226933  55.6041235  45.0647900
   5.7789933  55.2370611  45.9108421   4.6001278  55.3670405  44.9704430
 104.1712410  83.2720114  17.0617649 104.4567568  83.2780887  16.1481545
 104.2383701  84.1854932  17.3397514  79.5112497  89.1207792  15.6049034
  80.3537685  89.1095306  15.1507446  78.9835126  88.4665968  15.1469013
  67.6926231  21.9456625  81.0145569  66.7709732  21.7085671  81.1174202
  68.1734371  21.1807156  81.3306332 108.7530357  67.2820319  10.5412552
 109.4884712  67.4238564   9.9452278 108.2614643  68.1029357  10.5146858
  72.5887537  24.3613529  72.4659777  72.0033026  24.6918416  73.1473398
  73.4665442  24.5853257  72.7750921  69.3408108  42.4914026  95.6717014
  70.2490377  42.7405405  95.5005550  68.8682365  43.3227539  95.7136536
  77.8303623  30.6518030  91.3277912  77.1775150  31.3276315  91.5102100
  78.0235004  30.7507825  90.3955173 110.7925159 104.0342762   7.0884392
 111.3733894 104.0517761   6.3278362 109.9298889 103.8316871   6.7264053
  84.9983293  96.4260723  10.2876160  85.8136446  95.9827520  10.5220673
  85.2408725  97.0086481   9.5678875  32.9895496  26.2229204  86.7327976
  32.0854974  26.5283036  86.8080330  33.1725788  26.2454319  85.7935333
 100.7670862  60.1073040  13.9430115 100.0180084  60.6902467  14.0666649
 100.5022175  59.5246498  13.2312557 102.9601461  77.3112823  16.9593117
 102.7114851  78.1234123  16.5179035 102.1342975  76.8434717  17.0832321
  86.5584022  62.7210398   8.5660336  87.3942548  62.8932502   8.9995358
  85.9343273  62.6124056   9.2836449 113.4355558  89.7926469  86.9571114
 113.8560260  90.3425307  87.6182175 113.8560928  88.9382000  87.0535660
  25.3592270 100.5341060  94.5881462  25.9504050 101.2831564  94.6634102
  24.5286721 100.9125252  94.2996883  30.8188313 110.7487532  83.2348442
  30.8027142 109.8052018  83.0745888  30.9500998 111.1364501  82.3695755
  19.4002091  85.7040717  24.3101093  18.7823330  86.3687994  24.6144173
  20.0301205  85.6171562  25.0255653  15.3950393   1.9021945  68.3897305
  15.3574347   2.8298259  68.6227894  14.7251427   1.7976506  67.7140522
  92.2000122  18.6639941  86.4440346  92.6803589  17.9491770  86.0262585
  91.9427681  18.3134627  87.2967911  26.0773819 105.6960107  60.5766773
  26.0820645 105.1850624  59.7672701  26.3280552 106.5786959  60.3041697
 108.4403831  47.7367045  22.2922203 107.7078182  47.4186672  21.7645523
 109.2159206  47.3580153  21.8782589  28.9635979  68.6858513  10.6842587
  29.3988930  67.9403521  10.2707550  29.3526494  69.4532348  10.2647373
   6.8198811  98.7650587   3.3266518   7.5180851  99.4180061   3.3756134
   6.3358246  98.9911033   2.5324032  87.1000559  81.2573840  20.1862404
  87.5041372  81.6436316  20.9632656  86.6782266  81.9942428  19.7442791
  37.5020432  33.2650876  89.7073078  37.0274305  32.4395466  89.8045254
  37.1260428  33.8376999  90.3758621  62.1543056  99.8741676   9.8095963
  61.4911348  99.6785881  10.4715511  62.4682385 100.7495214  10.0363991
  24.1266554  94.0984948  65.2851343  24.6401852  93.7431927  66.0105848
  23.9862746  93.3518834  64.7028160   0.4677903  30.4920556  26.5290043
  -0.0132049  31.2548186  26.8500492   1.3884484  30.7473566  26.5876648
  78.3215768  95.6830694  13.0756542  78.4170872  95.1942732  12.2582314
  78.8728339  96.4566900  12.9579327  29.6318221  13.5123110  78.4048796
  30.0992727  13.4934139  77.5697994  29.2485690  12.6388192  78.4846497
  85.2349359  97.5958730   1.0618279  85.8179504  98.3088352   0.8010361
  85.2345974  97.0004513   0.3123543  26.6949528 105.1356400  92.7515125
  27.4906224 105.6399877  92.5818920  25.9807795 105.7335175  92.5307560
  63.9405155  36.8174481  88.0972481  63.8604784  36.2829590  88.8872719
  64.8528290  37.1071267  88.0954647  63.5715157  70.9201767  29.6143314
  62.7224142  70.5517973  29.8583672  63.8225562  70.4408158  28.8247559
  89.7738535  84.4313552  26.1783573  90.1669962  84.7203256  25.3548500
  90.3533584  84.7799875  26.8557426  94.5166904  89.5311834   6.3486454
  94.5362694  90.4686763   6.1564037  95.0689823  89.1366936   5.6736729
  77.2851515  17.6352441  48.7385464  77.5059509  18.4310210  49.2225075
  76.4136553  17.3967731  49.0545464  74.4266033  34.4687462  89.9089909
  75.0236368  35.1870227  90.1184177  73.9392424  34.3184853  90.7190132
 110.8556825  42.0494892  28.2116196 110.6511099  41.5244688  28.9853928
 110.4988748  42.9155709  28.4086391  75.1331169  74.2514755   1.1360619
  74.2000801  74.1639461   1.3310310  75.5548627  73.5860528   1.6797325
  36.3161826  30.3901172  73.0750799  35.8298254  30.3337550  72.2525787
  35.7656431  30.9298539  73.6423731  62.5625896  25.0950718  81.6991234
  63.3122015  24.5299339  81.8860245  62.1652460  25.2567005  82.5548172
  55.9623098  32.1157360  54.0187931  55.9846973  32.5960755  54.8464441
  55.0417757  32.1325445  53.7569380  58.1938219   9.3535459  80.0537109
  58.8778353   9.7445053  80.5973244  58.6266756   8.6221516  79.6133327
  43.0974817  30.0590038  74.7671366  43.3786249  29.6228290  73.9628077
  42.9420805  29.3447781  75.3851700  76.7237329   7.8554749  81.2532425
  77.6019430   7.9216152  81.6282177  76.3298607   7.1042496  81.6968155
 106.1449939  91.0348965  26.6290924 106.5821630  90.6861092  27.4059269
 105.6163198  91.7619492  26.9579289  31.0511851  46.2609291  92.4329662
  30.9775805  47.2142935  92.3892879  31.9915509  46.0962343  92.5023842
  12.5742756  59.9744891   9.9535343  12.4682175  59.2169280   9.3781349
  13.4677540  59.8977743  10.2882835  55.9273958  38.9282966  39.4431615
  56.5956545  38.5709667  40.0279522  55.5809546  38.1651759  38.9807129
  77.3206806  17.2378218  87.5034618  77.3301220  16.7964101  88.3527565
  77.7194929  18.0913663  87.6727104 108.2548315  68.9478649   2.1765587
 108.3494884  69.4817330   1.3877270 108.0159551  69.5725800   2.8613255
  75.3686237  39.2275333  83.5433006  74.6807480  39.4203758  82.9062271
  75.1542425  39.7733307  84.2998600  42.6975363  10.2984196   5.0079796
  41.9244021  10.3371293   5.5710098  43.1086272   9.4611270   5.2228615
  88.2967949  41.2744904  90.6879902  87.4939060  41.2026072  90.1718235
  88.0599499  40.9290123  91.5486717  70.9720325  47.9826832  78.3396101
  71.5194941  47.4965715  77.7229929  71.4982271  48.0348110  79.1375017
 100.5597860 105.6287243   6.8991348 100.8374531 104.7334625   7.0931408
  99.6364910 105.5466892   6.6603348  90.3788471  38.2381678  95.0569057
  90.6692314  37.9989147  95.9370613  89.8432255  37.4978209  94.7718906
  79.8130941  43.6409569  84.1110516  79.1105461  43.4753990  84.7397423
  80.3221130  44.3509912  84.5021915  94.8746568  90.5279543   8.9879009
  94.6665603  91.4615776   9.0236256  94.6291954  90.2615883   8.1018803
  52.4946724  54.7775141   1.1996529  53.3675324  55.1702295   1.2107060
  51.9619023  55.3627272   1.7380878  98.6585552  86.5089275   3.6568043
  98.4403497  87.2241356   4.2543766  98.8177139  85.7585456   4.2293713
  91.4574528  30.6666684  87.0559406  91.7200089  30.4184723  87.9423332
  92.0300961  31.4006257  86.8331909  60.6649637  13.8163638  82.4190617
  60.8499432  14.7472763  82.2948933  61.4954424  13.4447277  82.7164173
  38.3098637  99.2197801   1.7401573  38.6144387  99.3480827   0.8418247
  38.7560498  98.4252359   2.0331642  64.3521738  29.0627265  86.6921043
  64.6537447  29.7716641  86.1240387  64.4332886  28.2745242  86.1550903
  98.9347631  57.3283865   4.1993305  98.6803371  57.9709554   3.5370609
  98.2063705  56.7078170   4.2232201   7.2621953 109.4173433  18.3864471
   6.3207470 109.5427753  18.5054657   7.5229107 110.1159336  17.7862522
 103.6903984  94.8191930  34.5012447 102.9706890  95.1947953  35.0083611
 104.2590172  95.5636956  34.3047306  90.8024883  28.3478475  91.4381886
  90.6474495  27.7122474  90.7394695  91.2217045  27.8414536  92.1339321
  98.2538254  84.2268683  19.7096512  98.4763843  85.1516463  19.6024773
  98.9578182  83.8724829  20.2528259  84.1257572  47.6426888  88.9042187
  83.4919453  48.0134726  88.2901955  83.7514687  47.8152418  89.7681427
  79.5857334  35.8108544  79.9636507  80.5191422  35.9265900  80.1413536
  79.5277309  35.7629228  79.0094137  53.5131598  71.8748903  78.2190371
  53.9190722  71.0097122  78.1648779  53.7361526  72.1896601  79.0950632
  58.4597445  41.4605379  93.4912872  59.1051197  41.8415403  94.0867424
  58.2888889  40.5892611  93.8489437  83.0883884  12.0392489  83.6020756
  83.5242653  11.2594402  83.9457893  83.5723495  12.2520530  82.8041267
  83.4219438 103.8402607   6.3598892  83.6524708 104.7668411   6.2925503
  82.9701263 103.6455633   5.5388042  81.5864277  37.2546506  87.7236557
  81.2452221  37.2812343  86.8297291  81.3227654  36.3962960  88.0552292
  68.5794020  41.5991783  80.8526897  67.6452637  41.5502214  80.6496620
  68.7228060  42.5121641  81.1019421  79.6863270  48.8380194  86.0487652
  78.7852621  48.9781618  86.3397598  79.7091341  49.1935349  85.1603317
  20.8996235 106.3551094  11.1161682  21.0619294 106.5708019  12.0345089
  21.6987168 106.6229870  10.6623718  80.3170300  72.4223518  90.4804802
  81.2470531  72.5843191  90.6387615  80.1961327  72.6105976  89.5497894
   0.2269398  79.3219926  28.2406971   0.1860510  79.6854641  27.3561356
   1.0820281  78.8940479  28.2844994 103.7708282  37.4613452  86.7624187
 104.7156143  37.5836992  86.8553734 103.4400558  37.4593449  87.6606464
  74.8250675  44.7363043  84.7797585  75.1959181  45.2043867  84.0316963
  74.9642706  45.3235722  85.5227089  80.1791000  40.6503487  95.7306480
  79.9542665  41.5794230  95.6806278  80.5785656  40.4546309  94.8830891
 108.0166799  77.3325254   0.6033394 107.8064234  77.8524067  -0.1723888
 108.3751947  76.5163376   0.2547142  88.7973816 108.4526922   4.0713474
  88.5757524 109.3394901   4.3554279  87.9654438 107.9797222   4.0917370
  18.0118214  47.8121795  13.2029125  17.1614014  47.5450386  13.5517094
  18.2566582  47.1076496  12.6029751  28.5849415  94.5450236  -0.0718811
  28.1184613  95.2661182   0.3507969  28.0819451  93.7648298   0.1616165
  98.3176548  51.4199530  32.7021095  97.5030452  51.3654395  33.2017777
  98.2372553  52.2313620  32.2007343  63.1068897  39.3300843  94.9590778
  63.9981651  39.3780136  94.6132946  62.5499773  39.2928004  94.1814709
  65.5012751  32.1395683  50.2507544  64.8510170  32.3988032  50.9035921
  65.0694561  31.4533496  49.7419596   0.6266169  22.5295067  64.6935749
  -0.1755281  22.0468950  64.4938803   1.2158923  21.8720865  65.0634146
 100.3805000  73.5271563   2.3526260  99.5390350  73.9512636   2.5208637
 100.2238781  72.9815807   1.5818760 113.0662948  75.6925072  27.6351807
 112.7815181  74.9924185  28.2225582 113.8630993  76.0353901  28.0398628
  49.1544091  70.7132997  14.6391270  48.2309662  70.5242421  14.8056480
  49.4895588  69.9203350  14.2206642 105.3915388 100.4943563  34.1278908
 106.2424404 100.1558305  34.4064686 104.7887737 100.2276899  34.8220036
  80.6100273  45.9961128  85.7789326  81.5219307  46.2224722  85.5961323
  80.2390862  46.7895222  86.1651134 111.6292364  86.6500141   6.9500229
 112.4793274  86.7700841   6.5267536 111.6942150  85.7974483   7.3803112
 115.9803581  40.8048964  91.5159512 116.2449360  41.2545252  92.3184872
 116.7873192  40.4102564  91.1853313  62.4305534  31.5944052  91.9923019
  61.5770531  31.2085366  91.7951298  62.7454901  31.1039519  92.7515793
  76.3297415   7.3163295  84.2180157  75.8897305   8.1320029  84.4573975
  75.6198502   6.6825491  84.1149998  78.2129383  11.5303493  75.5466986
  77.2737741  11.5988922  75.7184649  78.3529139  10.6048119  75.3466463
  59.8917818  46.7486334  93.7585831  59.3265009  47.3104286  93.2284164
  60.7766199  47.0733118  93.5916233  77.4193144  44.2937517  90.5772972
  77.9916096  44.9370098  90.9955502  77.7439690  44.2326498  89.6789169
   0.3267340  61.8350935  86.7441273   0.8432250  61.0319519  86.8107224
  -0.0634332  61.7972231  85.8708763  70.8031607  52.8752661  78.5138893
  71.3769341  53.5408497  78.1343937  71.0014296  52.8937244  79.4501495
 111.1833793  54.0357848  21.3626644 110.2941019  54.1693029  21.6906712
 111.0770494  53.9340383  20.4168388  12.4448716  95.7223489   1.4347145
  12.5029789  94.7689797   1.4975235  12.1769272  96.0041191   2.3093864
 112.3432827  50.2803516  87.8417778 111.8634892  50.6024551  87.0787048
 113.0970001  50.8657694  87.9154205  81.1004639  25.5167389  87.2385693
  80.5732822  25.5121088  86.4396381  80.9438705  24.6591401  87.6338291
 117.1534378  91.0416056  13.8295147 117.1577436  90.1408984  13.5055706
 116.8719799  91.5647365  13.0789539  16.8815648  84.4228317   0.8494827
  17.4492489  84.4353582   0.0788853  16.8177353  85.3402855   1.1148808
   2.1672379  92.5267913  21.9591782   1.3781964  92.0331384  22.1826908
   2.0478283  93.3752681  22.3858616  93.6736662  70.3181054  41.9778130
  93.4965116  70.8491160  42.7542660  94.2020876  69.5887472  42.3019192
  69.5673084  45.7527733  77.2158813  69.9322224  46.4674330  77.7377415
  69.2611694  46.1745691  76.4130116  82.5036621  29.7053146  94.8922920
  81.8380356  29.1008949  95.2206898  82.3446655  29.7473717  93.9493275
  74.7032452  46.7767668  86.8237400  74.7367811  47.5691080  86.2877274
  73.8399792  46.8031311  87.2364235 110.5390102  55.3581782  25.9874413
 109.9408132  55.1917994  25.2589485 109.9654705  55.5528788  26.7286369
 115.7165510  96.3254406   6.3211319 114.9593670  95.9040882   6.7277882
 116.1097318  95.6407310   5.7800076  80.5149078  28.2023096  95.8402252
  80.2003479  27.6311135  96.5409470  80.1631165  27.8144431  95.0389481
  54.4272232  39.7269583  90.1654530  53.5559750  39.5285916  89.8222160
  55.0208902  39.5280385  89.4414139  77.2261095  49.5283175  86.7632771
  76.9173050  50.0119448  87.5294209  76.4728308  49.5083427  86.1730289
   1.5115582 107.3908331  13.6675713   1.2719380 106.7645647  14.3506500
   2.1448075 107.9728367  14.0876839  94.0368015  82.1940614  47.6241753
  93.8738758  82.9780032  48.1486866  94.8273784  81.8113543  48.0046436
  85.9399509  50.6366301  84.0807724  86.7613125  50.1632547  83.9484596
  85.3151989  49.9623251  84.3476582  72.6572466  48.1294107  83.6351871
  71.7784405  48.2090807  84.0061092  72.5433254  47.5690603  82.8675556
   2.4552189  77.5260927   9.5900604   2.1573006  77.7494551   8.7082455
   3.3024346  77.9634835   9.6746132  72.2680378  28.7195158  81.9709110
  72.9043531  28.4628129  81.3035011  71.8137074  29.4719315  81.5918541
   2.9680478  63.9619674  33.0064747   2.9220234  64.4085749  33.8518402
   2.0779931  64.0157260  32.6584217  50.0285006  25.7725954  78.7836933
  50.5357027  26.4777064  78.3814526  49.8076391  26.1030674  79.6544647
  55.8003157   2.3766858  16.2520287  56.6716498   2.5678498  16.5991089
  55.2172869   2.4661881  17.0058891  73.3530235  31.8358445  85.8126736
  73.0309105  31.8368864  84.9113083  74.0255404  32.5168252  85.8274841
 116.0734255  93.0251886   8.3719799 115.5942852  92.6691152   7.6237366
 115.5751545  93.8013031   8.6281178  12.5454365  74.8131086  35.5724976
  12.8096043  74.1552581  36.2156841  12.8223263  74.4502057  34.7311565
   2.7026974 100.7419397  42.1530315   3.0594002 101.1997987  41.3918659
   1.9651257 101.2833502  42.4342510 104.0335304  88.6345984   4.7603008
 103.2436210  89.0820910   5.0636646 103.8522560  88.4231164   3.8445255
  16.2859076 104.2242325  53.6672497  15.7413500 103.7732519  54.3124676
  15.8328598 105.0523205  53.5083580  53.7279940  42.3847723  73.3392763
  54.4919348  41.8124247  73.2682657  53.9894152  43.0560732  73.9695501
  99.5060921  34.0251112  93.6249638  99.0383244  33.6666369  94.3792248
  98.8222408  34.1924906  92.9764557 108.5188610  95.4702665  14.7369835
 107.7851135  95.9718706  15.0922844 109.1687280  95.4660536  15.4397556
 113.4066183 106.3647510  11.3047096 112.6706201 105.8070232  11.0527679
 113.0533678 107.2539856  11.2781117  60.1884604  31.2386107  77.8046036
  60.9020901  30.7036686  78.1521702  60.0007582  31.8687582  78.5002422
  30.3464638  61.6327532  11.9293758  30.5105530  61.5059127  10.9949085
  29.4117581  61.8318118  11.9835636 112.1315986  87.5857927  17.9738400
 111.8041832  87.5794222  17.0744011 111.8973524  88.4516932  18.3078644
 113.7014086  88.4924485   1.9718811 113.5267479  88.9114072   1.1291573
 114.1563350  87.6810505   1.7462608  73.6847782  27.2732019  90.8258438
  72.7289152  27.3146915  90.7968140  73.9572906  27.3887420  89.9155617
  31.8149029 105.0472595   7.5467178  32.6626240 104.6572401   7.3334667
  31.7122780 104.8980858   8.4866402   4.3964707 107.0862629  20.9328720
   5.3297364 106.8736650  20.9263584   4.1582333 107.0903732  21.8599484
  42.4410170   5.8975465   9.4979355  43.2809752   6.3396270   9.3743774
  41.9013422   6.5350301   9.9654743  88.2594872   7.6503855  84.5289612
  87.9364204   8.2859415  83.8902664  89.2106438   7.6664805  84.4227982
  72.8606749  42.9947472  90.1957798  72.8859520  43.1057405  89.2453671
  72.3100185  43.7134838  90.5062962  67.3395586  36.8511534  87.5519276
  67.1286106  36.0207582  87.9787445  67.5439072  36.6108179  86.6482067
  65.3939867  42.1052361  87.3411846  66.2127161  42.4183035  86.9566059
  65.2827311  42.6342487  88.1311226 111.0168106  75.9831716   9.7885963
 111.9524795  75.9476854   9.9873325 110.9338934  76.6933419   9.1521904
  93.6884386 107.2226049  14.1843006  94.1157324 107.9501535  14.6363327
  94.3090803 106.4975597  14.2574284  60.3913021  29.9709392  91.5497875
  60.5254602  29.6583891  90.6550503  59.8781347  29.2808652  91.9701290
  79.4927150  80.8370544  16.2563870  78.7698800  81.4215543  16.0281345
  79.1897756  80.3755428  17.0383522   3.8802403  13.7432772  12.8430244
   3.1471699  13.1321866  12.7694485   3.4677904  14.5994527  12.9574081
  94.0641785  66.0118914  81.9069576  94.3033028  66.7451954  82.4738026
  94.8891926  65.5534554  81.7475319  72.4516201  31.9910216  83.0680370
  72.4892950  31.6723275  82.1662331  72.8782272  32.8473520  83.0374622
  73.6818027  45.2028370  94.1070271  74.2456293  44.8754978  93.4061813
  72.7966833  45.1508570  93.7463474  56.9202345  28.1262070  15.6510326
  56.1442774  28.2071740  15.0964424  57.5904959  27.7611882  15.0733349
  68.9219046  28.6306119  82.0554447  69.2561674  29.5275068  82.0643520
  68.9996290  28.3370161  82.9631805  58.7024355  23.6262822  93.3008766
  58.6336708  24.5567727  93.5146236  59.5866537  23.5262609  92.9481888
  62.8125143   7.8295249  69.9330187  62.9269028   8.7786132  69.9817801
  62.9716730   7.6160198  69.0136099 107.8684503  91.2564398  35.4459831
 107.1570331  91.2774469  36.0860416 108.2497436  90.3835346  35.5402443
   2.2775113  87.9417350   2.9181358   1.7411458  88.7301017   2.8342697
   2.1968304  87.5057961   2.0697948   9.6053826  96.9493915   6.3967964
  10.4027974  96.5596391   6.0383961   8.8937317  96.4506389   5.9954998
  66.9011068  39.9113059  83.1686497  67.5375557  39.5515227  83.7864876
  67.2239971  40.7919550  82.9777908  49.6846056  30.6308055  84.5984364
  48.9078569  31.0004902  84.1786480  49.4228029  30.4945660  85.5090046
   1.8528687  90.3738572  11.8629238   1.4765107  89.7660877  12.4994823
   2.5514828  89.8749758  11.4395020   1.7980610 102.3538067   7.8310177
   1.1001956 101.8754484   8.2786629   2.3275410 101.6726400   7.4164078
  59.4401741  22.6245832  70.9193945  59.2841053  23.2100987  71.6603708
  59.4544220  21.7486668  71.3051367  77.6904583  42.6166630  85.6526852
  76.7789078  42.7327156  85.3846550  77.7407360  41.7058325  85.9426689
  96.0420990  22.1821880  81.7196083  96.8963146  22.0630169  82.1347618
  95.7241344  21.2924695  81.5662098 117.6296312  73.5430052   6.9989559
 116.8944103  73.5371341   7.6118538 117.2265083  73.4161438   6.1400959
 100.5737573  63.6423887   7.7735874 100.2025062  64.4879843   8.0253288
 101.5096695  63.7281241   7.9551098   3.6119097  27.8967244  15.1002476
   3.7160223  28.4532029  14.3284199   2.6646441  27.8234917  15.2167007
  72.7646303  39.4386983  82.3907280  72.1164894  40.1242733  82.5524044
  72.4987030  39.0493202  81.5577221  93.8626129  69.7779335  19.2527840
  94.2973263  69.6468784  20.0954506  93.0001432  70.1256134  19.4797203
  78.4715796  42.1798611  91.8109894  77.9671812  42.9634666  91.5923977
  78.1771946  41.9431543  92.6905060  83.8589001  20.4778242  58.0775309
  84.4590473  21.2093663  57.9329586  83.0716324  20.7132769  57.5866127
  76.4471388  50.5756712  83.3767986  77.2673559  50.1688719  83.0975246
  76.6476440  51.5103912  83.4250355  95.6297094  80.4621507  19.7175953
  96.2577326  80.5545832  20.4340336  95.6161958  79.5235039  19.5305416
   8.8745421   8.5397345  19.1265366   9.4823807   9.2783887  19.1605255
   8.0269831   8.9361054  18.9246246  79.6959257  37.5543189  94.7453308
  80.3074646  37.4784541  95.4777908  79.9887323  38.3308053  94.2682934
  93.5991508 101.1994697  15.5938313  92.9620535 100.6075575  15.1938507
  94.3650943 101.1487867  15.0219986  99.5077068  77.7977587  14.4050571
  99.7813637  78.6235978  14.8042271 100.2968628  77.2560574  14.4104263
  11.5413605  64.1311558  16.7332146  11.5257393  63.9363076  15.7961819
  12.0724236  64.9243666  16.8040821 114.8567898  79.9336602  14.3404934
 114.8359949  80.8490421  14.0614292 115.4029686  79.9352624  15.1265785
  92.7474403   0.6464962  81.2681770  91.9910908   0.1834360  80.9079742
  92.3841000   1.1930470  81.9649601  95.1197941  88.0948641  19.2133877
  94.9600918  87.1620752  19.0697453  95.8381254  88.3093120  18.6182091
  84.8171043  48.0184078  84.5918369  85.6021118  47.6591682  85.0053024
  84.1378784  47.3650694  84.7592640  35.9963070  69.4437315   5.5968449
  36.2722718  68.6795713   5.0907490  36.3294541  70.1920511   5.1016018
  94.2070801  76.3369252  29.6404621  93.5916931  76.6804482  28.9927551
  94.0647299  75.3904571  29.6276924   0.4971253  92.9242708   7.7410671
   0.7060563  92.8190304   8.6692402  -0.4001201  93.2576276   7.7338287
  57.0951861  24.6990640  32.0740673  57.8811186  25.1699025  32.3512814
  57.4219912  24.0003449  31.5072891 114.1693670  95.5466415  22.3426411
 113.5088045  95.6768014  21.6622326 114.9705297  95.3384830  21.8619701
  92.1855146 101.2103035  12.6249573  91.2602455 101.0420181  12.4466488
  92.5767547 100.3400995  12.7018044  11.3344609  58.9095958  14.5427391
  11.9834744  58.7723942  13.8526794  11.4407765  58.1570147  15.1245949
   3.9996373  95.0984050   3.1829903   3.8788353  94.1711642   3.3876011
   3.2293927  95.3316452   2.6647636  87.5394440  40.4023123  93.0998993
  86.6401577  40.7288647  93.0700779  87.4478149  39.4497037  93.1192970
  99.4288158  64.3248415  91.9172764  99.9180794  64.7443819  91.2095737
  98.9462566  65.0401402  92.3316669  40.2589989  31.3605618  78.0227661
  39.7956133  31.6887593  77.2521877  41.1707306  31.6149211  77.8803539
  21.0499417 106.0195018  14.1067574  21.3215672 105.1120044  13.9692852
  20.3163659 105.9598495  14.7187588  73.9507062  93.9379145   0.2674648
  73.6729175  94.8197152   0.0194904  73.2773525  93.6374404   0.8778259
  86.1579782  70.2095355   7.7302048  86.4641029  71.0794975   7.4739143
  85.3173906  70.1101221   7.2832653  46.2376612   4.1147429  27.8706333
  46.5448778   5.0001818  28.0651924  47.0348185   3.6221177  27.6754639
  65.1337719  27.5258875  79.1166878  64.4707298  27.9579782  78.5782623
  65.8109665  28.1906629  79.2420387  37.6569861  11.9047076   0.1877567
  37.8703707  11.2002808   0.7997009  37.6775330  12.6994712   0.7208321
  45.9138680  46.9798803  92.6245022  45.7379913  46.8430805  93.5554028
  45.5272770  47.8338194  92.4306774  24.4615113  89.1363432  19.8414013
  25.1856648  89.6258713  19.4512627  23.8285672  89.8075773  20.0964424
  35.5131316  15.4937685  73.3280945  34.5917916  15.2398682  73.2742691
  35.6350946  16.1076784  72.6038885   1.4061200  74.8194291  34.0655872
   0.5730855  75.0175108  34.4934341   1.4347683  75.4094042  33.3123753
  14.1028821  76.9281913  19.5557568  13.2451092  77.3049452  19.3594906
  14.7206246  77.6407863  19.3919537  91.9488365  90.2127053   1.3244984
  91.5518409  90.9969856   0.9456417  91.5328676  90.1240565   2.1820137
  63.4678268  36.2641573  83.5073471  63.9251280  35.4232669  83.5108662
  63.9295721  36.7851591  82.8503990  83.4253216   3.8332188  87.9813671
  84.2468452   3.3426255  88.0068779  83.3183575   4.1677135  88.8718128
   0.1390635  85.7347323   4.9333355   1.0188662  85.4010202   4.7577831
  -0.2496637  85.0874163   5.5216381  85.2882576  51.1501026  96.1151505
  85.7039070  50.6496191  96.8172741  84.9703979  50.4860258  95.5034351
  59.9839973  25.6049061  86.0906506  59.1557837  25.1416659  85.9653568
  60.6349850  24.9098277  86.1871529  92.4599773 102.0528795   9.2171452
  91.6294080 101.6625454   9.4892189  92.8509695 101.4019968   8.6343071
  29.3611592 101.8398298  64.9802351  28.8275450 101.1685474  65.4055214
  30.2286213 101.7402692  65.3724432   7.5839268  64.3252702   5.1672813
   7.3725544  63.6151977   5.7733700   7.8238617  63.8820918   4.3534920
   7.2842555  48.9185238  64.7916460   6.9348388  48.0294466  64.8523235
   7.0327334  49.3316078  65.6176758  56.3347054  44.5119429  89.9231339
  57.0506287  44.4768810  90.5575371  56.3491392  43.6544180  89.4980717
  86.1745102 106.3016178   1.8808434  85.8395464 105.4400589   2.1293423
  87.0709450 106.3159038   2.2161552  63.6237335  75.3259945  77.4444914
  63.7853813  74.8452711  76.6327000  64.4892788  75.4237461  77.8413725
  52.3567599   8.9160878  25.9565994  51.7120188   8.5946042  26.5868256
  52.7253931   8.1238515  25.5658218 100.7904053  53.3601761  92.4255943
 100.1281834  53.0518198  93.0441570 100.3771210  53.2689476  91.5670490
   9.6945815  29.5522118  89.7865868   9.1686206  28.7529993  89.8157406
   9.4287638  30.0423932  90.5645943   1.0481011  63.6409308  30.3710148
   1.2550293  64.4525691  29.9077103   0.0917946  63.5998531  30.3667614
  77.8121376  35.9611416  93.9851379  78.6996365  36.2931275  93.8496208
  77.3143244  36.7227387  94.2824268  19.2004620  97.8131820   0.2184841
  18.4531533  97.4504472  -0.2571037  18.8963257  98.6665107   0.5276081
  34.9442690  13.2116324  23.0319855  34.7919672  13.4047086  22.1069214
  35.4490536  12.3983676  23.0269692  58.2048624   8.9754111   9.6646950
  58.3512419   8.6704499   8.7692520  57.7401179   8.2548434  10.0901577
  26.8934666  94.3059923  28.3959171  27.6111065  94.3213345  27.7626869
  26.8758332  93.4041168  28.7161324   9.5799576  97.1180202  22.8027412
  10.3249012  97.5576021  23.2126972   9.9750458  96.4553978  22.2361061
  62.2397423  30.4771757  96.0652161  61.3541460  30.8084226  96.2143040
  62.1850920  30.0155711  95.2284527  63.2369709  40.5925846  86.4317703
  63.7258339  40.1041937  85.7694149  63.8968182  41.1326504  86.8666935
 103.9128954  80.4129531   5.2571175 104.6336538  80.5650522   4.6458885
 104.0408117  81.0656740   5.9454605  12.7862488  92.2654869   3.8899109
  13.6122357  91.8477036   3.6461231  12.1137177  91.6350152   3.6321423
  93.8388348  57.2835493  88.2194519  93.5706711  56.6071939  88.8414288
  93.4068394  58.0792999  88.5299206   9.4696366  96.9733574  12.7836582
   8.9601647  97.5140144  12.1800301   9.1198479  96.0899688  12.6674435
  24.9457394  93.6640598  22.3794434  25.0062500  93.0034305  23.0694744
  24.4107567  94.3602683  22.7606556 110.1055843  93.9522554  11.9072983
 110.7025987  94.6999408  11.9350693 110.4494936  93.3970191  11.2075302
 101.0245800  40.2058649  95.3146935 100.4417038  40.2641916  94.5576763
 100.9861660  41.0749149  95.7140732  82.5271511  75.3508854  88.2316494
  82.9127598  74.4751930  88.2580376  83.1777573  75.8854675  87.7764988
 109.7308445  44.3966627  38.4621644 109.5421886  44.4416666  37.5248194
 108.9021683  44.1308689  38.8607693  35.1015030  85.8216454  24.0264294
  35.3358494  84.9720146  23.6530182  34.9485528  86.3832618  23.2665417
  36.9368761   1.4567668  23.0334732  37.5303953   0.7718760  23.3415100
  36.0847061   1.2166888  23.3973476  17.5974595  90.3237225  31.7435905
  18.5022866  90.0244881  31.8329784  17.6733147  91.2447740  31.4943192
   1.9159733  82.3498966  16.3867256   1.2132298  82.6595904  15.8153412
   1.8327271  82.8814103  17.1784279  59.0302962   4.0285594   7.6782391
  59.4384306   4.7253234   8.1922123  58.2034415   4.4056136   7.3776123
  97.9519463  87.5559330  61.6098690  97.3697662  88.1600952  62.0706034
  97.4098873  87.1851635  60.9135008  39.6341437  25.1161439   4.7403118
  39.0925854  24.9295003   5.5071995  40.3362435  25.6751305   5.0732204
  80.0421619  35.0813842  88.9384651  79.7494173  35.6160259  89.6764946
  79.2910480  34.5246696  88.7331867  16.5602719 106.1706592  36.3913700
  17.4254452 105.8221342  36.1763451  16.3030278 106.6686060  35.6154129
 114.1188431  84.9857521  73.3876753 113.4932137  84.2634678  73.3318090
 114.9189377  84.5839405  73.7262392  95.1871490  41.9164658  92.7086926
  94.2706585  41.6937971  92.8720760  95.1506901  42.6232624  92.0642185
  77.1702212  23.3141238   6.0305759  77.7069395  23.9938552   6.4381668
  76.2787264  23.6611039   6.0633823   0.5198132  96.7468597  41.3018009
  -0.3162874  97.1239378  41.0279820   0.9121834  96.4207555  40.4919121
  53.1776350   6.7614371  28.7734673  52.5009459   6.1333472  28.5208103
  53.3399790   6.5792233  29.6990273  85.1885796  56.4955711  85.3743553
  85.9414196  57.0125628  85.0876904  85.5717850  55.7526684  85.8407021
 114.1297722  68.2644510  75.9403801 113.9532757  67.6051426  75.2692652
 114.7219467  67.8293085  76.5537405  83.1259251  46.6934538  86.2960339
  83.6231899  46.0561943  86.8087196  83.5030746  47.5400496  86.5353489
  97.9533482  46.0625124  83.7377357  97.3384094  46.7692852  83.5413837
  97.6176071  45.6698942  84.5435715  45.0161110  92.9207708  27.3544476
  44.0766179  92.8019668  27.2148582  45.2012192  93.7936737  27.0080349
  67.9538155  43.9472818  86.1134529  67.6208448  44.8391008  86.2135315
  68.7334871  43.9190769  86.6680145  50.3279227  10.1753575  19.1529152
  50.9687441  10.3555924  19.8407337  50.7959288  10.3529317  18.3370373
  20.6662404  85.2298619  12.8110764  19.7207867  85.0963594  12.8783676
  20.7644688  86.1672284  12.6439735   4.4665371  96.1174490  40.9786007
   4.5567452  96.9823791  41.3785812   5.0882279  96.1241152  40.2507946
  49.5920897  29.9132538  95.2035713  50.3932285  30.4370022  95.2132130
  49.8987818  29.0068603  95.1785755  39.6249806  81.2148453  18.0714581
  38.9863240  81.8683483  18.3565590  40.4292428  81.7132355  17.9265568
  55.6577795   1.4791591  43.1046459  56.2798041   0.9058434  42.6567242
  54.9800795   0.8878476  43.4322044  24.2878567  92.7279951  11.5499470
  25.2378212  92.6601268  11.6458580  23.9656102  92.8562500  12.4420998
   7.1207940 102.8629972   3.8501617   6.6485440 103.2208349   3.0983898
   7.6680981 103.5864307   4.1556618  97.6168060  33.6528921  88.9563656
  98.1815243  33.1279373  89.5235920  97.6039696  34.5180726  89.3656731
  34.4318043  92.6582815   5.3717777  34.1338383  92.0420005   6.0408470
  33.6339699  92.9126097   4.9080822  31.8326014  28.0412537  35.9595749
  32.1518248  28.8654382  36.3270542  30.9972923  28.2686955  35.5512116
  32.3501050  86.5306164  13.4774086  32.9415928  86.9640471  14.0926334
  32.7565609  85.6796409  13.3135006  93.0760860  61.2341499  77.9592276
  93.6219501  61.7817640  78.5234785  93.3557606  60.3390455  78.1510687
  70.0947475  34.4001317  86.9262791  71.0396004  34.5107579  87.0323277
  69.7810316  34.1690040  87.8005791  27.0871514   0.4323394   8.1993076
  26.4129418   1.0033900   8.5675118  27.8676337   0.9842688   8.1497833
 106.2216091  54.8703527  95.5973625 105.6095600  55.4113722  95.0984383
 106.0997677  53.9872646  95.2487373 104.1359425  58.7534237  91.8511677
 104.0710163  59.6433687  91.5047455 104.3703938  58.2178783  91.0932446
  34.7786349  12.0574576   0.7346985  34.1147059  12.6440150   1.0971615
  35.0936096  12.5075156  -0.0491837  80.7062626  44.6999073  88.6807156
  79.8837852  44.6534348  88.1932640  80.5774879  45.4184961  89.2998123
 110.1209641  67.5610924  95.2523708 110.1183987  68.3786631  94.7545719
 109.6194363  67.7604389  96.0429096   3.5835110 105.6047107  12.5391075
   2.7732312 105.9113838  12.1321270   3.3018052 105.2045299  13.3617470
 103.0288410  61.7303228  93.6365128 103.7994957  61.7496300  93.0691051
 102.7771950  62.6491070  93.7300396  32.1217095 108.1046440   4.7571823
  32.2644650 107.2712566   4.3084976  32.3796879 108.7683250   4.1174957
 107.2659111  46.9600391  83.0445385 107.3651218  47.7166319  83.6224270
 106.5449142  47.1970797  82.4612617 101.3877678  55.9758234  87.7532387
 101.6196346  55.5245733  88.5649300 100.5274105  55.6257915  87.5219631
 107.7276546 103.6863949   8.4934685 108.0450803 103.3766844   9.3417332
 108.2136900 104.4960214   8.3369324  14.9740921 106.0882951   7.0836994
  15.6528222 106.0603954   6.4093277  14.9687230 106.9982673   7.3806068
  61.1370295   8.2642562   5.5737087  61.7722910   7.6397569   5.9239456
  61.3322466   9.0842873   6.0272095  33.5284680  38.7595803   9.3865082
  34.3096798  38.4476144   8.9297554  33.8371771  39.4972188   9.9126408
  47.4263685  10.6006915   9.2502377  47.1469420  10.2451283   8.4065983
  48.0822104  11.2610251   9.0264580 114.1298485  76.8565369  65.4056835
 113.9716148  77.7865934  65.5674934 113.2557011  76.4766502  65.3175068
  19.2323624  88.8540055  37.5816032  19.2440163  89.6894409  38.0486652
  18.7118279  88.2753517  38.1387684  55.5682390   4.9104649  29.9602577
  55.1629370   5.0222022  30.8201859  56.4916056   5.1193053  30.1017162
  56.5476340   7.5510508  11.3920948  57.1182936   6.7825944  11.3851997
  56.1662882   7.5583178  12.2700283 110.3880340  81.0362102  10.7696983
 111.0683710  81.0215999  10.0965282 109.6367771  80.6069519  10.3603336
  23.0860745 110.0983907   3.8677952  23.6385857 109.4724848   3.3995983
  22.8926980 109.6701671   4.7017452  10.0899749  63.5664034  86.8868256
  10.0473742  64.5003128  87.0923328   9.7307544  63.1340456  87.6615906
   2.1430259  22.5997376  92.9576397   2.9330115  23.0030751  92.5978088
   1.9409995  23.1205010  93.7349510  80.0808144  40.5186701  90.4956245
  79.3999624  41.1555147  90.7126713  80.4911804  40.3112793  91.3351631
  71.0406130  10.9659154   6.4512894  70.6492918  10.1216180   6.2270996
  71.7791289  11.0551173   5.8489010 112.6917839  28.4804606  80.7075787
 111.9247246  28.0116487  81.0363102 113.3943462  27.8305292  80.7226276
 112.2919941  34.2635036  91.9964504 112.6151752  35.1520419  92.1457291
 111.3401127  34.3408489  92.0610523  94.2757494 102.1966554  32.6302311
  95.1320011 102.0225240  32.2394058  94.4751579 102.5319483  33.5043308
  30.7380902  92.8167321  11.8422195  30.4697548  91.9396569  11.5684197
  31.2552487  92.6725198  12.6346752   9.6217780  31.0406065  83.6305046
   9.6694808  30.3352404  82.9852009  10.5295901  31.1807537  83.8996983
  38.8522374  91.1500670  12.2176239  39.0459668  90.8731081  13.1131622
  38.2334267  91.8732526  12.3191425  33.7502592  30.5244500  41.1696312
  34.6161812  30.4644543  40.7661411  33.4127682  29.6290070  41.1466763
  81.1206072  25.3423173  11.1554977  80.9926241  25.7923943  11.9905254
  82.0704382  25.2585465  11.0716698 106.5642738  24.1782808  74.0164185
 106.1074734  25.0166750  73.9481544 107.0700455  24.1144347  73.2062626
  12.3131310 108.7128021  31.3518593  12.9068409 109.3305685  30.9251186
  11.4446103 108.9537861  31.0296127  45.3553122  13.8988072   4.8494789
  44.7217291  13.4261662   4.3096420  44.8230475  14.4924886   5.3790733
 103.9883041  73.3850718  85.7876873 104.7967052  73.3543062  85.2760410
 104.1801548  72.8679419  86.5699863   8.0361401  93.6956932   0.6034634
   7.9530560  93.5445596   1.5449974   8.5535466  94.4980408   0.5344173
  16.5803277 105.9246780   9.8495552  16.7583882 106.8042566  10.1825211
  16.2525212 106.0665561   8.9615032 103.5196114  65.4828596  91.0126495
 103.1371880  66.3496447  90.8760071 102.8674221  65.0124788  91.5319061
 111.2716389  40.7792187  63.5360241 110.3843784  40.6469631  63.8699627
 111.6235065  39.8948884  63.4341574  11.7185723 106.7698671  19.7119495
  11.4991127 107.2125675  18.8921425  12.2137200 105.9966184  19.4414875
  87.7368259  80.7497215  92.9015732  87.7663422  80.5584335  91.9641495
  87.2713089  80.0055504  93.2833290 107.8111345 106.0555793  28.5161278
 108.4464390 106.3437654  29.1715405 107.2320873 105.4586603  28.9900753
  60.5250471   1.7414719  37.8680107  60.5734652   1.7306191  36.9120953
  60.5450361   2.6703364  38.0983135  88.7447262  49.4505215  87.7375126
  88.7956047  50.3977919  87.8652668  89.5614910  49.2246580  87.2924042
   5.1470046  48.8023472  86.7045498   5.9521632  49.2171621  87.0141792
   5.2262358  47.8894138  86.9811344  75.1429129  15.4475284  74.0724945
  74.8005962  15.9444320  74.8155594  76.0936451  15.5302238  74.1466427
 103.6652279  45.3600407  96.4184189 102.9272461  45.2062273  95.8285332
 104.3196297  45.7979870  95.8741856   6.9089829  81.0611178  37.7860615
   6.4332425  81.8689038  37.5927136   6.2239014  80.4135825  37.9521629
  88.0613327  49.2614603  83.2607651  88.0426121  48.8642120  84.1314411
  88.8085651  49.8591423  83.2862091  30.8331620 109.0467741   8.9317867
  30.3792511 108.3324959   9.3790028  31.3774811 108.6111786   8.2758877
  61.2319487   0.4958588   7.8104755  60.8721274  -0.2980989   8.2059452
  62.1445101   0.2770716   7.6218197  30.3665989  23.9877564  12.4639389
  30.6285685  23.0671841  12.4516270  31.1457651  24.4624001  12.1743843
  88.3728504  66.5671682  85.4101849  88.7086010  67.4278402  85.6606674
  87.4478817  66.5902567  85.6554222  74.6414583   0.5089385  73.5956738
  75.3315752  -0.0814241  73.8980839  74.7545737   1.2996728  74.1231129
  92.9932022  68.2546091  84.9382591  92.5362110  67.4182940  85.0274658
  93.8655949  68.0184031  84.6230221  62.7592009  19.5898873  14.0792725
  61.9501227  19.4414431  14.5687553  63.3780401  18.9558036  14.4414875
  10.2255111  50.5194855  90.0049019  10.4974227  51.2902021  90.5031967
  10.8326106  49.8315239  90.2776146  37.3262757   2.8141267  16.2730763
  36.7198294   2.8207452  17.0136234  37.4723213   3.7391145  16.0748360
  44.8859614  12.7478797  16.1223003  45.6287878  12.6244599  15.5313656
  45.1357764  12.2836549  16.9212505  54.6204411 101.1801292  33.6846039
  54.2453515 101.7440750  34.3609974  55.1494156 100.5455591  34.1680691
 100.0835133  50.5505419  64.8273659  99.3481255  51.1273336  64.6206379
  99.7052670  49.8706388  65.3849411 102.8152752  60.2905893  55.4158401
 103.1450653  60.7360363  56.1962557 103.5599041  59.7791338  55.0993395
  54.3020266  17.8464085  20.7026836  54.5030707  18.7800366  20.6382820
  53.3809107  17.8170449  20.9613678  90.4246426  88.3878422  86.3919544
  91.2117672  87.8450012  86.3473034  89.8508453  87.9277611  87.0045853
  90.7288092  15.5386788   7.7762005  90.5019873  15.7833058   6.8790218
  90.7619112  16.3697488   8.2499668  99.4734573  85.3175640  73.4289598
  98.5746193  85.0292015  73.5876226  99.9947166  84.5164299  73.4809256
 112.2691154  77.7609444  69.0303993 112.4863625  76.8651819  68.7722397
 112.6136875  77.8441954  69.9195385  87.3667622  43.3894014  44.3177891
  88.1907558  43.0793905  44.6935034  87.4978352  44.3297338  44.1960239
  63.2059401   6.5964944  39.8692200  62.9809683   5.9142596  39.2366192
  63.7156218   6.1423308  40.5401775  62.5136518  95.0208378  57.2415113
  62.1037960  94.9006176  58.0981350  63.4454870  94.8680782  57.3982859
  69.7084254   7.1982152  22.0167610  69.3906134   6.8068463  21.2030956
  69.6318358   6.4982278  22.6651356  99.6123123  61.6331148  72.7211189
  99.2784309  62.3777151  72.2207928  99.3057537  60.8644819  72.2400236
  61.8521517  27.6172501  23.4422085  61.1364382  28.2068974  23.6794922
  62.4483984  27.6511342  24.1902515  45.5989300  75.8879401   1.7610523
  45.6534325  75.2075102   2.4320862  46.3794171  75.7565095   1.2227318
  56.6214388  12.5606019  40.0486729  56.6667097  12.0231921  39.2578671
  56.8074148  11.9514329  40.7632038  39.5807379  15.7997186  16.0897133
  38.6730784  16.0366637  15.8993313  40.0831478  16.1761386  15.3671333
  80.6021023  72.4316835  95.7794571  80.9362030  72.6274395  96.6548347
  80.7698154  73.2279873  95.2754688  94.4856358  49.5254755  90.4340363
  95.3122520  49.5128918  89.9515533  93.8158512  49.3820286  89.7654247
  86.7080212  46.8778038  92.5167942  86.9666672  47.2093773  91.6569138
  87.5290394  46.6008854  92.9235840   7.9151778  42.2966957  89.7199631
   7.7353148  42.6587677  90.5875969   8.2922416  41.4342356  89.8938084
  28.9172619  15.2875096  18.1955692  29.8274248  15.0809295  17.9830620
  28.7660092  14.8624713  19.0397808  78.8066244  94.6369648  70.5575752
  78.3207273  94.3304634  69.7919464  78.8451290  93.8761520  71.1371565
  17.6422076  62.9074669  77.3431969  17.6280169  62.6653624  78.2691622
  16.8233065  62.5580692  76.9917011  21.7336529   8.2379968  26.1517403
  21.7871826   8.5827071  25.2603790  21.5438050   9.0038115  26.6937038
  76.3095968  17.0006615  10.0789139  76.6224402  17.3907239   9.2626926
  75.9970301  16.1322934   9.8249981  62.1119517   1.7360455  20.9983227
  61.2394541   2.0470769  20.7569954  61.9521445   1.0676534  21.6646168
  98.5620230  26.4222390  53.4427616  97.6618880  26.7473656  53.4591362
  99.0831869  27.1420724  53.7983868  40.5905550   6.6222245  17.4884769
  39.6416491   6.7339951  17.4309513  40.9084337   6.8158919  16.6066143
  36.7607141  65.6934977  95.5304527  37.1622539  65.0281668  96.0893154
  37.4204803  65.8737612  94.8607922  25.6233328  20.4592997  37.3127720
  26.5414971  20.6379229  37.1095440  25.1443642  20.7584912  36.5399239
  84.8964804  12.5920064  20.0644466  85.6512087  12.0567614  19.8192284
  84.5566290  12.9221684  19.2327377  43.2539784 105.7943060   5.2737877
  42.6036870 105.7130386   4.5761177  42.9087483 105.2569963   5.9867737
  88.9789009  26.1248159  49.3896294  89.9141407  25.9342861  49.3171644
  88.8286018  26.8298721  48.7599134  48.7281817   5.4948909  22.5016853
  49.4395369   5.1766068  23.0574772  49.0489596   5.3720052  21.6082451
  36.8487423  15.7885653  15.4163239  37.0824831  15.3812701  16.2504074
  35.9716099  15.4564483  15.2250835   4.4671856 107.6260425  27.0657227
   4.2124878 107.0955517  27.8206703   5.1417386 107.1085312  26.6259739
  97.9165268  52.6750326  93.0305862  97.5540638  52.5637913  92.1516800
  97.6423359  51.8895435  93.5039234  94.7556686  87.8887081  90.5465031
  95.6434250  88.0822563  90.2454281  94.5274162  87.0690250  90.1080227
 100.3275490  78.5490513  83.8016796 101.2112236  78.3981133  84.1371822
  99.7802448  78.6048937  84.5849895 104.1086864  56.6970158  73.8676786
 103.3196354  57.0617437  73.4669065 103.7884140  55.9872341  74.4243383
 109.3190861  37.3158121  57.9448032 110.1132202  36.8047786  57.7885246
 109.6139908  38.0639076  58.4640551  95.2379608  32.0857716  77.4115562
  95.9506702  31.4706659  77.2385693  95.5682755  32.6430273  78.1162500
   4.9057441 102.7332115  95.2867603   4.2005687 103.1249046  95.8020592
   5.1399474 101.9386196  95.7663441  74.2530173   8.0055959   1.2174961
  73.5370653   7.4138743   0.9861633  74.7574537   8.0986459   0.4093334
 113.8514996  95.6548023  86.9585705 113.5953903  96.4490700  87.4273682
 113.0285072  95.2979374  86.6245461 109.9998283  40.1403427  80.3547955
 110.5615520  40.5491400  81.0132694 109.9629688  40.7782173  79.6420622
 106.3777256  50.8688211  92.7887630 107.1796894  50.3947163  93.0085564
 106.6447258  51.4898348  92.1110535  70.9024351  27.0753629   0.1001713
  71.4611738  27.8066499   0.3633377  70.9723204  26.4491612   0.8207390
  94.4573498  88.5941219  85.2223492  94.6871662  89.0500832  86.0319901
  93.8575840  87.9015160  85.4994869  93.5311222  65.3675032  76.8621778
  94.2217064  65.7627487  77.3942471  92.8474998  66.0362768  76.8217945
  89.3332863  35.8106136  86.4759445  90.1802444  36.2337804  86.3351536
  89.0056229  36.1951518  87.2889614   3.3358799 109.7772266   4.8061630
   3.1827389 108.8397838   4.9244282   4.2619454 109.8970510   5.0166103
  93.0049706  60.8609438  71.9815779  93.0275154  60.6624937  71.0454464
  92.7958202  60.0251389  72.3986197  72.9562777  23.0287463   0.1985523
  73.0268496  23.8701064   0.6495163  72.2148340  23.1376416  -0.3969601
 115.7227499  90.6725694  33.7539837 114.9547273  91.0286595  34.2007134
 115.5259783  90.7727935  32.8225967  99.0253561  17.1770865   2.5314114
  99.4449251  16.9082076   1.7141602  98.1838625  16.7208916   2.5300095
   1.4559798  25.0848031  87.8331566   2.2331004  25.1302791  88.3901596
   1.1870055  24.1669822  87.8717518  92.2140884  89.0512276  65.7681942
  92.6566982  88.5793686  66.4736605  92.8623104  89.6845818  65.4601431
  99.4351118   8.8934285   4.7318337  98.9815253   9.2673404   3.9763996
 100.3273123   8.7372071   4.4222900  99.4832325  75.4489183  85.0576305
  98.7244892  75.1104212  84.5822811  99.1221333  75.7819366  85.8791733
  56.2099570  36.0979802  50.0292275  55.3575533  36.0084588  49.6030495
  56.1329382  35.5794770  50.8301327  64.0220547  45.0210476  95.2946758
  63.7828732  44.9366760  94.3716908  63.4003305  45.6584883  95.6459045
  91.5248489  66.6056204  81.2221241  92.3874569  66.2099600  81.3469601
  91.7044830  67.4399471  80.7886982  76.9764441  20.4007966   7.2748634
  77.0172041  21.0345179   6.5586445  76.9252032  20.9367663   8.0662796
  22.7245366 103.6028005   1.6128513  22.4811970 104.5281078   1.6416237
  22.2220360 103.2456638   0.8806011  15.6245821  42.8535516  16.4326832
  15.7098835  41.9051701  16.3351128  14.7378557  42.9808385  16.7699596
  85.6105232 104.6949863  62.5414133  85.6525517 105.2300167  63.3340073
  84.9550056 104.0259171  62.7385807  21.6465824  35.3130585   9.9379513
  21.0791128  35.8394296   9.3747971  22.3926228  35.8826310  10.1256725
  98.8362789  67.7813530  78.0560875  98.4720325  67.6548386  78.9321899
  98.6736679  68.7040424  77.8600407  41.5095061   5.2534587  41.2794182
  41.1110037   4.8116309  42.0292255  41.9352358   4.5519740  40.7865784
  92.1940422  64.3340683  71.8455029  91.6760349  63.5429096  71.9936895
  92.1232414  64.4939423  70.9044075  92.3219872  66.5345526  90.4031181
  92.6714802  67.2925711  90.8716202  93.0271816  66.2728548  89.8111248
 104.9286842  81.2905216  74.2760038 104.9326229  82.2473145  74.2483377
 105.8177757  81.0399914  74.0250444 117.6358891  39.5675135  96.0121250
 116.8904972  39.2062902  96.4918518 117.2694874  40.2996683  95.5162144
  16.3289040  21.8337638   6.3556644  15.8683127  21.4204270   5.6254265
  15.8024901  22.6053483   6.5649101  42.5378054   5.0832564  18.7190315
  41.7616099   5.2663047  18.1896469  42.3370188   4.2584378  19.1612885
  92.5656986  84.8036003  75.1274872  93.2425022  84.1788960  75.3880692
  92.1080112  84.3734455  74.4051886  72.7153319   8.2139260   6.4514515
  73.2138746   7.4157721   6.6264984  73.3722132   8.8487727   6.1656067
  10.9825091 103.0158997  96.5546227  10.7096915 103.8346958  96.9685841
  10.2666716 102.7994537  95.9571552 106.2945461  93.9373112  93.5887337
 106.9700050  94.6005726  93.4470463 106.4342594  93.2997894  92.8885365
   2.0000206 102.8208067   1.4848015   2.8200661 103.2542040   1.7212841
   2.0200097 101.9924881   1.9640991  36.0037583  14.1861111  11.3804504
  35.5659788  14.8283202  10.8217499  36.6124457  14.7031123  11.9081280
  72.8178042  42.9055840   4.6501514  72.5301951  43.4888036   3.9477512
  72.4199789  43.2690675   5.4412529  46.4159315  50.0093324  12.7880642
  46.7995566  49.3823964  12.1748611  46.9610041  50.7915932  12.7031586
   3.2427727 106.9668485   9.1106579   4.1245686 106.8766119   9.4719479
   2.7871834 106.1726095   9.3896744  71.8064039   9.9154670   0.8774159
  71.7072409   9.1641528   0.2926704  72.4264639  10.4891354   0.4272434
  36.9143425  95.0380398  24.5057270  37.6754700  94.8301317  25.0476620
  36.8108784  94.2760970  23.9356682  14.5624022  47.9558706  93.6926556
  13.7879233  48.3171701  94.1237926  14.7380404  48.5593176  92.9706860
  82.4046248  39.4588239  18.4422085  82.5963324  39.5451695  19.3760273
  81.5254801  39.0814168  18.4120819 108.7741089  65.9209394  77.0610905
 109.0747929  65.6181002  77.9178905 108.1708622  66.6374397  77.2584724
  22.7170234  28.1590128  78.1459808  22.0520453  28.6135316  78.6631346
  22.3437266  28.1097436  77.2659540  56.5441530  31.3267285   6.4483521
  56.6272562  30.7259614   5.7078049  57.4340742  31.6452271   6.5994236
 102.5753117  96.6610718  87.6915169 101.9120693  96.2816334  87.1149921
 102.5191689  97.6034737  87.5335217  29.2726868  11.5587193  34.7004292
  29.9709576  11.2508637  34.1226074  28.4857052  11.5405280  34.1558525
  43.7914038  81.1875725  84.8071575  44.2675877  80.3735542  84.9710274
  44.4743156  81.8546581  84.7374058  55.3152024 102.6181032   5.4289791
  55.2631508 102.7282812   4.4795677  55.4632412 101.6806652   5.5535576
  90.3342438  88.8493252  68.4252167  91.1413097  88.5222340  68.0278683
  90.2762508  88.3896446  69.2628050  59.3092364  10.5689389  14.2107269
  59.6262091  10.0709779  13.4572002  58.7475126   9.9553210  14.6841881
  57.2041434  43.6752850  19.3348572  58.1029909  43.5242516  19.6272442
  57.1334093  44.6269185  19.2597935  66.1166590   1.1347730   1.1415550
  66.7064017   1.8758256   1.0027477  66.5950793   0.3802926   0.7978890
  66.2543344  68.3895302  92.8289890  65.8051968  68.1781340  92.0105648
  67.1626616  68.1279087  92.6782131 105.8420372  45.6896400  70.2969503
 106.5586185  45.1699066  70.6611300 105.2319241  45.8004951  71.0261250
  45.3841912 102.4414064  24.6534798  45.9147488 102.5303938  23.8617584
  44.4994198 102.6800300  24.3769619  62.2643965  15.2541835  28.4244606
  61.7419642  15.2131373  27.6234600  62.9915732  14.6519143  28.2672569
  75.5385512  31.4536053   3.7366173  75.1119536  31.5966088   2.8917477
  74.9686068  31.8902261   4.3696663 109.0348721  56.7167759  71.4444494
 109.1684628  57.0747328  72.3220873 108.1845760  57.0617104  71.1719704
 117.5598335  53.1396103  63.7784863 117.1544552  52.3370886  63.4500599
 117.6078510  53.0132294  64.7260904  27.0478028  19.5154769  45.5050728
  26.5065068  20.2522809  45.7885334  26.4221447  18.8746363  45.1672718
 105.3329182  51.4252663  69.8045492 105.8235836  51.2370539  69.0045118
 104.4146633  51.3409662  69.5477772  91.2912941  42.1398020  95.9522820
  90.8866787  41.8298817  95.1420593  91.4415264  41.3450766  96.4642143
   5.3377472  96.1157562  15.6503078   5.1921021  96.7531015  16.3494560
   5.0092923  95.2902438  16.0065147  94.2170048  79.4806528  87.9220581
  93.7321377  78.9223957  88.5299015  93.6227036  80.2083874  87.7392006
  69.6711397  99.9414253  66.5727663  70.3825521 100.5170250  66.2920332
  70.0995255  99.1071892  66.7645025  30.3684651 105.6852295   1.4929745
  29.6296154 106.2283518   1.2184879  30.2339779 104.8519851   1.0414860
  18.0494915  85.1340844  12.7863094  17.5208985  85.9172417  12.6330444
  17.8227746  84.8623754  13.6756870  84.6905821  23.4222562  10.4122040
  84.2634886  23.0085332   9.6620914  85.4083555  22.8298194  10.6359169
  32.1671711 110.2307417   2.7863190  31.5127980 110.8729507   3.0612728
  31.7872178 109.8188545   2.0102951 116.9228203  86.4049699   8.0105755
 117.2510273  87.2050955   7.6003239 117.1862156  85.7044269   7.4138424
 115.8933676  10.0332219  28.2321236 115.6859840   9.5158536  29.0103027
 116.5069807  10.6986481  28.5434506  94.4106405  52.1337945  16.6297409
  94.8136729  52.5017411  15.8433506  94.3010443  51.2040860  16.4301083
  56.5544623   4.6622092  22.3317215  57.0203226   4.9265820  23.1250164
  56.4754408   3.7111766  22.4060700  35.0856339  64.4559200   5.3096554
  34.3945729  63.9035918   4.9441406  35.5532967  63.8834418   5.9177563
   4.6477639  99.7027351  12.2074577   3.8320767  99.2199852  12.0739338
   4.4070469 100.6201173  12.0782444  38.7113302  12.5035197  11.4969227
  37.7734965  12.6950557  11.5000984  39.1247385  13.3264214  11.7579910
  17.8278576 104.0502264   3.1578705  18.2188260 104.7532036   2.6390240
  17.0562970 103.7840940   2.6577732  26.9726914  18.4064538   5.9849045
  26.5666502  18.5147387   6.8449280  26.2351006  18.3398444   5.3784821
  39.9874848   8.6975295  35.5468437  40.6256598   9.3758876  35.7677433
  40.5079525   7.9992825  35.1496098  49.4926310  62.3523045  93.9592838
  49.0233946  62.9250479  93.3526421  50.2907038  62.8346491  94.1752815
   9.0256648  68.5059643  78.1099319   9.3873076  68.8284636  77.2844362
   9.2599444  69.1760349  78.7520742  22.6567000  20.0198418   7.8835175
  22.1501272  20.8161885   7.7240059  21.9999998  19.3570000   8.0971214
   1.5580802  39.2476153  81.0043049   0.6981902  39.6554470  80.9018517
   1.3697581  38.3755183  81.3510227  71.1964052  56.0465104   2.0493385
  70.4952639  56.0688073   2.7005932  71.4501589  56.9628579   1.9391415
 116.8501121 111.4629938  11.2279388 116.1200792 111.1015751  10.7252857
 117.5692732 111.5196993  10.5987999  97.1482658  65.5900860  76.9563770
  97.4664211  66.3166094  77.4922609  97.8939819  65.3553295  76.4040899
 117.8159332  49.7830915  82.3204136 116.9068336  49.8651361  82.6085567
 118.3334351  50.0197887  83.0900860   7.8382145 111.0891296  22.7096817
   7.1932923 111.0625078  23.4164974   7.4889504 111.7303993  22.0907948
  68.5231322   0.7477099   9.9587986  68.8101881   1.5138299  10.4556820
  69.0485876   0.7702834   9.1590378  45.7319945  25.5874783  13.4885380
  45.1592844  25.3412492  14.2148945  45.6982630  26.5439183  13.4705421
 102.4701500  45.6136084  75.3744364 101.8282509  45.2792978  76.0008812
 103.1806469  45.9539509  75.9181166  53.2554548  40.2542836   2.6574871
  52.9331606  39.9092252   1.8248531  53.5494250  41.1415917   2.4513313
  97.0268822  78.6013985  81.1009216  97.8236198  78.4214020  80.6018734
  96.8653774  79.5351315  80.9656906  34.2444169   4.6661430  75.6342363
  33.5902058   4.2124705  75.1027966  33.9224755   4.5841746  76.5319347
  79.3399828  33.4793526  13.5971138  79.7212809  33.6972195  14.4476292
  78.4054487  33.6587388  13.7005779  95.9110832  64.6805620  92.4998569
  95.7072639  64.0104389  91.8474579  95.7351112  64.2578459  93.3404446
  96.3552761  49.7760391  93.0739689  96.2523079  48.8873100  93.4142494
  96.9698906  49.6840429  92.3459530  93.1771010  48.9531094   6.4888737
  92.4106043  48.6819226   6.9940254  92.9194468  49.7843701   6.0903332
  21.5882509  27.5904519  34.6200821  21.0614556  26.8097741  34.7911236
  20.9465950  28.2782800  34.4428894 110.8046150  73.3108759  95.3644371
 110.4364681  74.0405655  94.8661804 111.0990715  73.7056923  96.1851978
 103.9979362  52.4880457  89.0771580 103.2083797  52.6543188  88.5622025
 103.6887836  52.4433851  89.9819565  95.5833071   6.0354716  17.9289696
  95.3340357   5.4844577  17.1870300  96.2142390   5.5074126  18.4181664
  21.9165360 100.3836347  24.8698017  22.1379124 101.1521627  24.3438789
  21.9790303 100.6870891  25.7754681   5.0676112  52.5152445  96.0477352
   5.9067015  52.6933861  96.4725018   4.4117789  52.7689886  96.6971302
 109.9037487  97.4836113   5.6248924 109.5508415  97.0185711   6.3834641
 109.5353967  97.0246793   4.8699543  83.3579939  30.4005200   1.1931393
  84.3072623  30.5190331   1.1604282  83.1158846  30.6513173   2.0846054
   6.2411361  92.2613811  88.0976200   5.7679324  91.5342045  87.6932335
   6.4209609  91.9637012  88.9894104  74.1322535  15.3846890  33.0900738
  73.5990351  16.1775786  33.0331299  74.3380087  15.3007800  34.0211269
  87.8658789  18.2516391  11.8586132  88.0389136  17.8419072  11.0110256
  88.4190958  19.0327603  11.8644402  68.6444187  75.2609539  91.5852928
  68.0767775  75.2594471  90.8145714  69.1051388  76.0988569  91.5417957
  54.5947873  61.3854118   1.7360088  54.1100632  61.5321900   0.9237740
  53.9775883  61.6200675   2.4289963  42.4691521 110.7420255  12.3808929
  41.7793309 111.3555576  12.6337883  42.0216595 109.9001075  12.2962544
 105.2278137  99.2911434  85.8512402 105.0772953  98.3684254  86.0566044
 105.8915138  99.2778492  85.1616287  18.3759915 104.2856361  16.2703774
  18.6694848 103.3805134  16.3744995  17.8637063 104.2797996  15.4618141
  69.1314619  28.0386216   2.8537056  69.0765303  28.5906941   3.6337158
  70.0660532  28.0045182   2.6497337  52.3408907   8.3093745   0.6097958
  53.0249708   8.9617068   0.4590389  52.6817911   7.7643306   1.3189861
  45.9484785  33.9164216  48.1963512  46.0865324  34.6158177  47.5575802
  46.8143767  33.7629372  48.5743496 111.7983437  50.4321098  44.4379950
 111.6998577  50.7146263  43.5287571 112.2018242  51.1798668  44.8787832
  49.2005938  15.1427371   4.2281220  49.2381113  16.0957438   4.1468403
  49.8073214  14.9389893   4.9398777  58.4141367  22.0721728  25.1946423
  58.1639975  22.5500638  24.4039032  58.0451411  21.1974246  25.0726482
 111.4395428  58.3360720  67.5035429 110.5864334  58.2357740  67.0812035
 111.3332176  57.9213285  68.3596468  98.5824299  54.9646902  63.9652395
  99.3836975  54.5781803  64.3185425  98.0742264  54.2169380  63.6508799
  47.2232741  39.5525605  41.2015984  46.6286963  39.2406709  40.5193779
  46.6700381  39.6459157  41.9771263  11.6799103 102.0502044  24.1721127
  12.0501935 102.4611046  23.3909008  10.8219849 101.7317392  23.8914272
  35.1382893   9.5178134  16.9401714  34.9924772   9.1956670  17.8296539
  35.9384173   9.0771968  16.6540024 100.2695084  40.7316685  92.3364925
 100.5413342  39.8138809  92.3340225 101.0242939  41.2059498  91.9878006
 114.6532648  60.1158673  36.1173603 114.3032282  60.4853780  35.3066990
 115.0778692  60.8545739  36.5535423  24.6090352  92.8674127  17.3951981
  24.4995724  93.4189059  18.1698582  25.2533757  92.2102191  17.6581642
 102.8315735  34.9625182  91.2244606 102.6078892  34.6595001  92.1044445
 103.5871506  35.5358505  91.3534260  47.0647066  21.8984563   5.0925228
  46.8557375  22.8173262   4.9244759  48.0194205  21.8561227   5.0381157
  89.1396427  70.0789785  62.1423960  90.0651264  70.1966286  62.3565483
  88.8998127  69.2528391  62.5621700   4.8501353  77.6148176  80.5807400
   4.9696307  76.6666031  80.6340694   5.6353431  77.9785681  80.9898376
  65.1207941  11.1333806  18.4794781  65.6130999  10.9195906  17.6869080
  65.7850855  11.4309413  19.1010925  91.0728645  87.0836353  63.1665611
  91.0573196  88.0401611  63.1340647  91.0114002  86.8746281  64.0986395
  14.6028744  91.4060761  19.0159676  14.4575726  91.6219713  18.0948231
  15.0752865  90.5738284  18.9952824  78.0208254  77.7091312  87.9593468
  78.5806799  77.7251291  88.7355804  77.2685003  77.1766281  88.2175922
  53.5288733   3.9027173  12.2046730  52.6899164   4.3153722  12.4098084
  53.5335940   3.0986077  12.7239201  14.3937354  44.8994923  84.7035027
  14.7567324  44.2500591  84.1012573  13.8706164  45.4763126  84.1468620
  86.9835680  15.4286820   9.3949768  87.5223273  14.7125155   9.0587017
  86.4672106  15.0311477  10.0960991  53.2105749  30.6027848   4.3667004
  53.5521334  30.7002694   5.2555630  52.9530924  31.4884145   4.1105911
 116.0487587 109.0555526   6.7518398 116.5331060 108.7919666   5.9694263
 115.6783897 109.9093296   6.5279552  18.5382687  85.1467754  20.7660172
  19.2825638  85.6643583  21.0731957  18.9338242  84.4252755  20.2769253
  21.8508296  67.2799540  68.5241270  21.5728240  66.3819265  68.3438635
  22.6988368  67.3603773  68.0874968  69.8352640   6.9058186  27.8153679
  70.6092852   7.0839602  28.3495781  69.8331183   7.6010854  27.1574566
  79.1408938  12.9143054   7.0747063  79.6544092  12.9711968   6.2689087
  79.4571512  13.6405808   7.6120445  95.1991653  90.8138561  71.6543198
  95.7926083  90.6483173  70.9217548  94.3280411  90.8299637  71.2579489
  92.1384907  57.3480797  91.4134121  91.9162273  57.9644251  90.7155991
  92.0218945  56.4848328  91.0166264  84.8115158  80.6122208  74.5909166
  85.6171703  81.0666370  74.8372078  84.1256714  81.2734890  74.6835041
  68.0090922  35.0913483  12.5508377  67.3121756  34.9002225  13.1785366
  68.7136858  35.4635007  13.0811951  44.6258961 103.7127353  19.3988773
  43.9258896 103.0735447  19.2660210  44.1875779 104.5621254  19.3474743
 101.9644451  60.0290585  84.3927765 101.7663288  60.9364414  84.1611767
 102.6571751  60.0954008  85.0500107 110.8116245  59.0306473  88.8718128
 110.7846737  59.2242908  87.9347992 110.2466011  59.6930170  89.2696190
  16.0845601 105.5083563  17.5863812  15.5259072 105.1790764  16.8823120
  16.9762551 105.3273393  17.2891399  55.2703701 111.1062481   9.8188088
  56.2213360 110.9987356   9.8004028  55.1300656 112.0318367   9.6192143
  33.3313899  80.9472466  91.6342926  33.3945517  81.8449593  91.9604111
  33.9619212  80.4561329  92.1610451  69.3559855  14.9096448  14.0358517
  69.6624487  14.5566422  13.2005665  69.1890543  15.8352286  13.8579056
 110.8395767  84.5704842  61.8573141 110.3982735  84.4326973  62.6954603
 111.7550755  84.7237682  62.0910168  48.9716088  10.7054763  95.0885963
  49.0470826  11.4198356  94.4559669  48.1211030  10.8435874  95.5054760
 113.0577070   3.7592082  74.0966988 113.3396990   4.1887145  73.2890892
 113.6545498   4.0929847  74.7664833  81.4083880  15.9940631   2.8581306
  81.6267889  15.3578669   3.5391495  81.5464133  16.8456752   3.2727882
  85.2776432 106.3264656  58.5852003  84.8147297 107.0937443  58.2487106
  85.5347729 105.8394527  57.8022957  22.9716271  29.4850308  25.7548687
  23.5753506  29.2405755  26.4562866  23.3491295  29.0941674  24.9668667
  44.7416228  29.0884930  32.1369240  43.8266581  29.1863782  32.4005482
  44.9209994  28.1535870  32.2369549  74.2895621  82.6532418  12.0512459
  73.9425295  82.6640183  11.1592361  75.1071947  83.1478745  11.9961426
 114.8682880  60.7301998  77.6616240 114.9311161  61.4224577  78.3197021
 113.9575577  60.7602930  77.3685455   0.3212313  91.3976288  95.1318932
   0.3529982  91.9917297  94.3820477   1.0795455  91.6412544  95.6627750
  13.5987919  18.8495881  11.1254379  14.1819971  18.8584477  11.8844101
  14.1691273  19.0481574  10.3828022 113.2151413  83.9553928  86.3319111
 112.8900051  83.1995106  85.8428764 113.0850315  83.7202740  87.2506237
  51.8348538  10.0717120  93.4445572  51.7443787   9.3668227  94.0857887
  51.5153347   9.6929698  92.6255989 114.8537827 106.3405323  85.5330944
 113.9619064 106.0809422  85.7641888 114.8405647 106.4200211  84.5792961
  77.4113703  63.7402630  70.1435709  76.7105722  63.9113474  70.7727289
  77.7872753  64.6019650  69.9635649  85.5949991  23.0848748   4.2965767
  86.2470167  23.3721024   4.9357960  86.1048239  22.8639228   3.5171577
  85.6525517  80.1862431  83.3547974  85.8677292  80.2214718  82.4227715
  84.8841286  79.6174288  83.4018707  48.6961382  21.7220980   7.5013420
  48.9649695  22.4928481   8.0012581  49.3369311  21.6606099   6.7929432
 113.5959703 111.4223291  43.8748428 114.2609340 111.3559057  44.5601532
 114.0511162 111.1633922  43.0735848  62.3394697   9.7307307  63.4722111
  62.0917052  10.5950600  63.8005230  61.5896052   9.1724498  63.6777851
  73.1501501  13.2893712  16.7324802  72.2884863  13.6575801  16.5370342
  73.6619776  13.4429557  15.9383366  66.2103575  28.4430558  18.0731556
  66.5051668  27.7408082  17.4933598  66.1837214  29.2197282  17.5143215
  96.0506170  13.0092913  36.5838787  96.4346998  13.1853587  37.4427769
  95.1541346  13.3381182  36.6504452  87.2410696  24.5605618   8.2752773
  87.7484053  23.8503701   7.8822491  87.4336737  24.5030457   9.2111370
   8.2510255  42.3532254   9.1143868   8.9767716  42.1194989   8.5357067
   8.6674569  42.5492913   9.9536583  87.0482462   7.6192529  17.8216717
  86.9568175   7.6159865  16.8688557  86.1486166   7.6216800  18.1486103
  78.2338732  27.1568734  12.8550503  78.4983748  27.2238595  13.7725327
  78.2993620  26.2232262  12.6544449  85.8919621 100.3721428  51.9766665
  86.0830784  99.8020744  51.2318659  86.7044163 100.8569813  52.1218634
  13.1885199  77.3131227  88.4538937  13.8099532  77.0209169  87.7870655
  12.3594718  77.4057484  87.9844952  29.2639880  68.7259817  76.5792370
  28.8048129  69.5323753  76.3444614  28.7661032  68.3728409  77.3165512
  11.0136258 108.9626552  13.7187073  10.0762974 108.7996675  13.6134979
  11.3584553 108.9625789  12.8257820  26.8945807  31.8416364  18.9624569
  27.7167481  32.2596700  18.7064907  27.1633547  31.0494382  19.4276592
   3.2465319  84.6854973  80.0270081   3.6335711  84.2179489  79.2868519
   3.7178378  84.3551826  80.7918549  59.0409010  40.6457669   0.4841301
  59.0107935  39.9179799   1.1051437  58.5667151  40.3255994  -0.2832535
  16.9122081  80.9452534  74.3957663  16.4983325  80.2752304  73.8516951
  17.7412085  81.1328220  73.9555264   5.9294944  70.0278330  74.7285843
   5.6732039  70.6890154  75.3715372   5.1833396  69.4295168  74.6898603
  92.0021915  67.9062843  67.9380798  92.9476452  67.9131985  68.0874348
  91.9087887  67.9996634  66.9900322  15.0797307  11.4154773  83.5636806
  15.4726826  10.5441718  83.6151218  14.7195660  11.4638858  82.6781464
  73.3790987  57.4359090   9.3187687  73.7801092  58.3050305   9.3250534
  74.0353983  56.8664033   9.7202179  34.1207366  66.0245419  96.1280346
  33.6495547  66.5451908  95.4775333  35.0198893  66.3506079  96.0901546
  19.7832363  23.4788949   5.9459278  20.5477541  23.1244094   6.3998959
  19.8720091  24.4280297   6.0325596  92.9819792  29.8497540  20.7925007
  92.2469061  29.7524602  20.1871750  93.7009638  30.1685387  20.2469132
 107.8142929 109.7264957  81.5656662 108.4904957 109.0518284  81.6273689
 107.0247746 109.2512894  81.3066673  81.2707728  26.9324452  16.3439056
  80.5405539  26.7574364  16.9375202  80.8584326  27.2790295  15.5526421
  36.7353647  31.4038426   3.5607693  35.8398312  31.3925797   3.8985893
  36.6358822  31.2966019   2.6148197  93.8794041  77.5193357  92.3771667
  92.9342079  77.4193001  92.2639275  93.9775848  77.8914022  93.2536125
  97.1712780  72.4480152  84.8547363  97.2801495  72.9896784  85.6363869
  97.2855473  71.5505743  85.1674175  84.1784781  50.4819161  11.8917248
  83.9495867  51.1401898  12.5478622  83.4717291  50.5295903  11.2479374
  95.9516621  79.8940802  85.7666969  95.3838921  79.6232700  86.4881706
  96.2138462  80.7870674  85.9904480  45.8202475  29.2464978  19.6679375
  45.3656214  29.9113042  20.1852200  45.8212584  28.4684712  20.2255318
  61.6344374  70.8640630   0.0436279  61.9533365  70.5410344   0.8863613
  60.8038824  71.2927205   0.2501843 107.9109669  70.9388399  95.1524162
 108.4648037  70.6332064  94.4340324 107.9114914  71.8921614  95.0663757
  41.4389723  23.4236819  22.9032204  41.5654009  24.3103940  23.2408592
  40.8769625  22.9985911  23.5510418  94.7586727  96.2476921  94.2860317
  94.0136719  95.7133484  94.0109253  94.6906376  97.0433331  93.7582588
  53.1810301  35.8699185   2.0234558  53.8194769  35.1604802   2.0964214
  53.6344450  36.5498692   1.5251514  83.1131857   5.4160077   5.9992287
  82.2954672   5.2959782   5.5163643  83.6664885   4.6872432   5.7181809
  60.2810686  45.5116898   1.8515465  59.6984976  44.8272855   1.5222523
  61.0646551  45.4420525   1.3062260  76.0760229  37.3907716  15.1910660
  75.9481543  37.3350865  16.1380550  76.9721144  37.7114064  15.0888226
  80.4257011  68.7486601  91.2490273  79.8697662  67.9708576  91.2958622
  79.8377943  69.4759178  91.4532375   6.8391852  74.9119329  90.8474541
   7.4058299  74.7298002  90.0977993   7.3479705  75.5127335  91.3918877
  42.7459734  45.2965504  28.9962837  42.3550814  44.4263608  29.0751049
  42.5205343  45.5810506  28.1105778   4.5478301  57.5515842  82.5155735
   3.7516837  57.6022577  81.9865990   4.9893241  56.7596817  82.2086430
  43.0080813  34.8090417   8.2489368  42.4023741  34.4561440   7.5971481
  42.6437872  34.5315034   9.0894768  12.9018723  97.0994760  11.4066383
  12.6499497  97.8366520  11.9628212  13.8587224  97.0959808  11.4324734
  62.9187315  21.0292394  11.4673111  63.5862177  21.6902453  11.6510651
  62.8607672  20.5167729  12.2736904  72.3907870  67.4047429  17.2094032
  73.3340948  67.2913415  17.0930454  72.0472544  66.5129811  17.2638866
  91.5380686  19.2525918  10.8826515  91.7442625  18.7118537  10.1202175
  92.3143309  19.7989327  11.0058090  82.9385298  30.1704842   9.5650265
  82.8460329  29.7948701   8.6894772  82.3344057  29.6640450  10.1079628
  36.6092461  18.7200457  16.0720989  36.5736645  18.2113606  15.2620289
  36.2116211  18.1501920  16.7304203  92.6304150  17.5343311  92.9222298
  92.2669506  17.0165324  92.2038841  92.7252483  18.4147501  92.5587654
  52.4532145  26.1471040  26.4111111  53.3894175  26.2863213  26.5538284
  52.2723883  25.2996022  26.8176624  85.2002161  20.1553876  16.5216324
  84.6981161  19.3466861  16.4209816  86.0214155  19.8784406  16.9280312
  97.7633762  81.7739105  87.1511745  97.3852730  81.3115501  87.8991699
  98.5726070  82.1565437  87.4902439 100.1625252  77.4497890  74.6682262
 100.7244110  78.1953812  74.8794365 100.7608986  76.7040110  74.6235704
  90.0580692  95.5249214  94.4334698  89.4690990  95.0131702  93.8789749
  90.6318569  95.9802055  93.8172626  28.7385212 103.1024315   1.2251923
  28.3265149 103.5911800   1.9376633  29.2731129 102.4418356   1.6657135
  23.8529145  93.9162637  42.5291798  24.5001351  94.6101119  42.6553318
  23.0623375  94.3749763  42.2449276 101.4504242  67.0887804  86.8236256
 102.2590828  67.4181843  87.2158051 101.2245846  67.7390575  86.1585236
  95.2038670  76.4053869  90.0615311  94.9791622  77.0284414  90.7525730
  95.7514095  76.9058514  89.4565773  68.7586134  66.3447434  19.0763638
  69.1273611  67.1945245  18.8352463  68.4058398  66.4776856  19.9562046
  72.7779436  76.3736153  95.7058430  71.8961096  76.3393259  95.3351212
  73.1301689  77.2126293  95.4088116  57.9630011   5.5890519  14.1699192
  57.6197165   4.8307998  13.6972210  58.1482046   5.2593667  15.0492546
 112.3677063  70.6705141  92.7074528 112.0194912  70.6254196  93.5979271
 111.8320370  70.0531960  92.2092533  49.4718283  20.4380709   1.0597107
  49.9257010  19.5962340   1.0990116  48.7259405  20.2812297   0.4806683
  52.0104074  83.3354664  56.8515873  52.4039888  84.0115833  57.4031305
  51.5780020  82.7449036  57.4684286  91.1057299  10.8105094  15.3777191
  91.1347883  11.5099723  14.7249291  90.2550238  10.3927619  15.2434322
  89.5641327  87.6550102  59.2171812  89.1697407  86.9880295  59.7791624
  89.6004200  88.4389973  59.7651672  73.3239954  35.0766904   8.2967445
  73.7383955  35.1084096   9.1590092  72.4555701  35.4550416   8.4343025
  52.1469437   9.5585399  71.0989761  51.7309033   8.7130504  70.9307623
  51.9682538  10.0740962  70.3125238  24.8305928 104.4931032  10.0817177
  24.9220501 105.0149633  10.8789227  25.7058178 104.1381313   9.9261066
  65.4338949  62.1136433   8.0227634  64.5927637  62.5639970   8.0996391
  65.2114504  61.2473065   7.6818916 110.2765942  70.6956577  66.6617775
 109.6610165  70.0295544  66.3558388 110.3936958  70.5042315  67.5923014
  78.4165192  98.2418633  87.6579666  78.6583138  97.7300549  88.4298611
  77.5854874  98.6538219  87.8944206  39.6581494  92.9835488  32.2535488
  39.9966179  92.2139456  31.7959663  39.0642869  93.3939935  31.6249821
  62.6054209   5.4374654  24.4101402  62.0477503   5.0174720  23.7552807
  63.1124991   6.0812480  23.9155170  84.9290276  82.6387691  61.1227846
  85.1400375  82.2665691  60.2665281  84.0851498  83.0718899  60.9943104
  67.9605215  44.5963055  14.5549271  68.3660048  44.4652421  15.4120419
  68.1816214  45.4976804  14.3206856  56.7508047  20.5389554   8.8122246
  56.9322127  20.6001193   7.8743622  56.1087816  21.2294061   8.9775154
  88.8812256  91.0147095  67.8873539  87.9655743  90.7364082  67.9059649
  89.3703365  90.2495098  68.1898022 116.7778301  81.4846134  89.9818611
 117.5606728  81.0676193  90.3417301 116.4882660  82.0842171  90.6695080
  18.0399279  72.0144939  62.8336334  17.9061370  72.8031397  62.3079205
  18.9803748  71.8454504  62.7767944  98.3501738  26.8168217   6.3341782
  98.6138838  25.8993871   6.4048264  98.3194559  27.1275575   7.2390148
  45.4817711  22.1358352  69.9898529  45.1981961  21.2234550  70.0480652
  45.1007878  22.4532943  69.1711378  44.8972147  38.4716660  19.8937676
  44.9484270  38.3307988  18.9483807  44.1554754  37.9364163  20.1758453
   0.9248690  82.6752567  87.4072361  -0.0014920  82.8291893  87.2217655
   0.9508757  81.7953682  87.7832031  65.6784933  37.3988206  31.1127159
  64.9100989  37.6787907  30.6152985  66.3860911  37.9607064  30.7967827
  54.7778052  13.6152846   3.5079548  54.7534865  13.3925397   2.5773499
  55.5535048  13.1647164   3.8418839  60.2418249  21.4158685  11.2934849
  61.1357325  21.1322839  11.4851830  60.3133314  22.3614175  11.1628792
  47.3790550  54.4286871  95.1606274  47.9793930  53.7562704  95.4826260
  47.6204157  55.2175760  95.6460381  67.0360695 110.4771711  19.2546722
  67.6902234 111.1757137  19.2734501  66.8846737 110.3157808  18.3234093
  60.0704336  75.4133129  60.5905724  60.7004595  75.2950859  61.3014317
  60.2580643  74.6980190  59.9828005  10.0923018 101.4903927  87.2318745
  10.1810603 101.1286736  86.3501072  10.0738482 100.7236290  87.8045559
  12.1060805  69.7275019  91.7763233  11.7093329  68.8632774  91.6670704
  11.5246444  70.3199625  91.2997246  51.7607516  38.4820039  18.8762638
  52.2840231  38.1298215  18.1562683  51.3857764  39.2903764  18.5267517
  82.7260780  91.5209866  48.7299585  83.4214401  90.8634567  48.7109900
  83.1664562  92.3276520  48.9975166   6.1592154  77.7146435  70.7797289
   6.2102465  78.5758734  70.3651142   5.5388789  77.8316021  71.4992714
  77.1273851   4.8252252  58.3131313  77.3136950   5.6279141  57.8260899
  76.6529369   4.2727852  57.6918888 105.0724823  35.2761080   8.6662552
 105.4621631  36.1503460   8.6567852 105.2446443  34.9466755   9.5483372
   2.7107304 107.4394054  91.3519955   2.8707188 106.5906332  91.7645741
   1.8092745 107.3853500  91.0346794  68.3157140  56.0355174  12.4307510
  68.8519747  55.8015143  11.6731903  68.8151986  55.7207393  13.1841824
  18.2128876  96.6116853  72.7110624  17.7841252  97.4108655  72.4049473
  18.0355185  96.5898557  73.6514330  71.9659710   2.2571284  80.4892731
  71.6559172   1.3721642  80.6814575  71.9110727   2.3284765  79.5363188
  33.7518328  89.7736592  69.9000883  34.6356314  89.8265977  70.2638578
  33.4422940  90.6793756  69.8900795 105.9460670  10.6274463  40.8602879
 105.6706793  10.1187183  40.0976631 105.1632148  10.6799604  41.4085743
  55.0810909  21.7365432  74.3085957  54.5779562  22.5439763  74.2030287
  55.1036310  21.5902948  75.2542877  16.9519633  75.5048675  77.4089813
  17.8893917  75.3858704  77.5616264  16.8812435  75.6678290  76.4684105
 102.1834308  74.5970501   6.0782311 102.3136837  73.6707939   6.2814877
 101.2892944  74.6445777   5.7398674  67.6673174  16.2602758  90.9856033
  68.5600853  16.0543561  91.2627220  67.6227760  17.2160733  91.0120392
  44.9183416  42.8419542  68.4266710  45.6086731  42.2707939  68.7634945
  44.1127300  42.4963379  68.8110781  75.9226281  63.1212188   6.8094418
  75.0281817  63.4479143   6.7121384  76.1615974  63.3418466   7.7096912
  70.0363636  15.6247914  63.8996220  70.8292580  15.1809883  64.2005968
  70.3333092  16.1862123  63.1834745  79.7788954   3.9240438  56.7490911
  79.3660212   3.3043352  56.1476517  80.6787968   3.6097330  56.8363810
  19.0692633  99.7490210  80.2499866  19.5769327 100.4046054  79.7717476
  19.7071045  99.3232245  80.8227730  16.3296049  95.3540559  61.9690609
  16.3159769  96.2502308  62.3050928  16.1589449  95.4470761  61.0318041
  30.6426161  81.1044402  75.7218456  30.6948393  80.6252403  74.8948812
  31.1794346  80.5944867  76.3284779  28.2031267  88.6441440  94.4436932
  28.4329336  88.5146446  93.5235596  27.9309052  89.5603318  94.4959164
   8.5569035  26.2255694   1.8227837   8.1244122  25.4322340   2.1386978
   9.0144383  25.9489586   1.0288212  25.5202359 101.4808519  62.0224333
  25.7073515 102.2109581  62.6124907  26.0183161 101.6799064  61.2296391
  86.8251514   9.9900734  93.0864906  86.7124176  10.9148300  92.8666115
  86.8072701   9.5392519  92.2422886  36.2725228 101.1651928  93.7764359
  37.1165770 100.7812745  94.0139484  36.4684408 101.7311425  93.0297470
  51.0448694  35.7676125  72.6996374  50.4353523  35.3743291  72.0750999
  51.1103344  36.6827035  72.4265909  31.3391512  86.2033005  69.8421431
  32.2894638  86.2505383  69.7377014  31.0054034  86.9435258  69.3352795
 108.0079109  31.5869142   8.5433552 107.0645649  31.5823914   8.7055752
 108.3988697  31.4082243   9.3986103  63.0789423  29.8581052  74.3945122
  63.9239407  30.1026273  74.7719002  62.8007221  29.0966010  74.9033689
  89.7105312   3.5727867  88.7437057  88.8606834   3.8361707  89.0967274
  90.2815628   3.5178491  89.5099545 117.7585400 103.6115463  70.0946903
 117.9683913 103.2027657  69.2549944 118.4549201 104.2544348  70.2287817
  91.9210178  57.7137119   5.5495235  91.4296657  57.3695088   6.2954018
  92.8187830  57.7955327   5.8713219 116.8734628  53.8763014   5.7023308
 116.1827642  54.5386324   5.6803963 116.4598018  53.0871917   5.3524372
  52.3791122  38.3705997  80.7822704  51.6342211  38.4893584  80.1929760
  52.9434061  37.7424622  80.3314400 105.9847576  85.6342127  10.9426472
 105.6378919  85.8723737  10.0828812 106.7360050  86.2142374  11.0668823
  52.5634432  25.5797672  93.7868595  53.2761145  25.3376508  94.3782139
  52.6196337  26.5330958  93.7217617  20.5023592 111.4502367  73.2528257
  19.6140211 111.4301152  73.6087561  20.4905194 110.8083036  72.5428867
  86.2768299  44.1321196  21.1138889  87.2021085  44.1395511  20.8688614
  86.1303264  44.9853803  21.5221951  93.9504701  58.6107813  13.8688633
  94.0319425  57.8891625  14.4924519  94.8490650  58.9098646  13.7299130
  49.9055767  18.5336030  83.6731720  49.7569370  18.0208325  82.8786850
  49.3649864  18.1071615  84.3381119  23.8805025 108.5801993  56.9195747
  24.4525259 109.3200935  57.1234751  23.2221669 108.5878352  57.6143885
  69.9614555  53.8059265  18.2697651  70.8217675  53.4964228  17.9863998
  69.3443495  53.1833853  17.8852436  89.7354031   0.7699390  80.1553059
  88.9831638   1.3491662  80.2772331  90.0763512   0.9989239  79.2906952
 104.4198782  81.4555599  30.6953499 103.7563402  82.1441890  30.6536266
 104.2170364  80.8823897  29.9560520  64.7861958  23.6292219  82.2595406
  64.5725918  22.7399635  81.9770050  65.0720406  23.5298514  83.1676388
  42.8032225  86.5631409  57.4928713  42.4024790  85.7548971  57.8128386
  42.7259463  86.5080399  56.5403891  36.0533476  10.1333785  90.3954124
  36.7676806   9.9768549  91.0130310  36.4317346  10.7116950  89.7331333
  60.0777197  14.6593034  94.4012737  60.3084946  13.7303507  94.3965340
  59.2611551  14.7057807  93.9039898   3.1984919 103.5354526  60.8497906
   4.1213148 103.3267296  60.7046700   2.8045147 102.7053864  61.1181259
  66.8408442   6.6512859  75.0268173  67.7097034   6.8348813  75.3840446
  66.9921446   6.5027195  74.0934038  80.0317175  51.9910498   3.6845848
  80.5139858  52.5672545   3.0915997  79.8456938  51.2110020   3.1619427
  45.0210017 109.8687867  74.6822262  45.5315798 109.0591479  74.6774960
  44.9086207 110.0756581  75.6100225  21.0889452 102.9660935  95.2806473
  20.2112692 102.6836641  95.5378437  21.1115902 102.8432448  94.3316364
  11.0905283  86.7096872  86.9579601  10.5000370  87.4159570  86.6957855
  11.8797510  87.1578379  87.2621441  62.8761673  13.8417721  77.5892687
  62.2433043  14.5389926  77.4172258  62.9236412  13.7916219  78.5439730
  84.4657898  11.4402032  78.5779428  85.3964806  11.5332246  78.3744907
  84.2453384  12.2368717  79.0605927  38.5452210  59.9944948  10.4374382
  39.2230259  59.7792314  11.0781261  37.7957474  59.4560354  10.6915638
  60.2547026   5.4379576  95.7446575  60.4535532   5.2612036  94.8251724
  61.0152626   5.1066446  96.2221622  88.1722450  13.7408400  33.9966249
  88.4070492  13.7183189  33.0689454  87.6656055  12.9405773  34.1349506
   0.9306227  73.4546711   9.5493767   0.3814160  74.1088809   9.1173908
   1.3104474  73.9166035  10.2967617  36.1208855  43.5269095  13.8899586
  36.4653813  44.3885519  14.1247627  36.8356167  43.1050314  13.4130833
  29.1930615  54.0344954  14.0211460  29.4364583  53.3245100  14.6152088
  29.5293366  53.7590964  13.1683228  75.4991198  19.2402542  74.5811844
  74.6059322  18.9301646  74.4318771  75.5365562  20.0864434  74.1353273
   0.9404217  61.1764653   2.3744461   0.2769553  61.2446393   1.6878674
   1.6791283  60.7390569   1.9511005  10.4310071  62.2958388   6.2646076
   9.6058499  62.6662196   6.5779182  10.3551232  61.3581832   6.4414570
  59.7165298   9.0235895  68.1137514  59.1610622   8.3716780  68.5411882
  59.1107893   9.7129983  67.8416777 103.4041673  46.5516426   1.7940399
 102.5394518  46.5251275   1.3844082 103.2681066  47.0336677   2.6097462
  18.4316176 105.8395822  78.1490660  18.2496851 106.3012059  78.9676189
  19.3861740 105.8449281  78.0781317 105.6007082  26.4878227  11.6954491
 105.8495075  25.7687761  11.1146709 105.6942541  27.2737934  11.1571857
  25.5848711 110.5903515  95.1976681  25.2965134 111.0114402  96.0074615
  25.9864968 111.2959536  94.6906662  28.5988730 108.9265026  94.0816116
  28.1591337 109.1996754  93.2764816  27.9443806 109.0564031  94.7679043
  71.2191153  17.5893307  86.4430618  71.0746336  18.4231162  85.9956646
  72.0440626  17.7096796  86.9133854  53.3681107  11.9325507  63.4320498
  53.0017757  11.0487354  63.4620667  52.6306105  12.5048292  63.6437607
  77.4059469  66.0581459   9.6689388  77.6117903  66.9621040   9.9070999
  78.0875260  65.8143307   9.0426514  95.4210836  42.0290615   7.7221272
  95.4853946  41.2792303   8.3136055  95.0800831  42.7368678   8.2688973
 117.4508363  27.9915239  32.3079083 117.8212005  28.1958987  33.1665680
 118.2054073  27.7402999  31.7752335  61.1227751   0.3018990  82.8170490
  62.0723343   0.2010356  82.7507305  60.9187078   1.0352601  82.2367287
  76.9348526  22.5806117  86.1678791  76.3221550  22.6443338  85.4352283
  77.5298738  23.3206844  86.0475636  32.7686041 101.8797095  70.0191069
  32.5131338 101.8118424  69.0991306  31.9614380 101.7103906  70.5049515
  52.9978895  27.5109506  81.6674423  52.3246765  26.8901920  81.9461441
  53.1935310  27.2624898  80.7639980  84.0952015  16.3335264  93.5236263
  83.7902355  17.0646703  94.0608883  83.6843586  16.4752889  92.6707840
  72.7528238  19.0952325  84.6885109  73.5387659  18.6301172  84.9752140
  72.9943562  19.4757485  83.8440609  33.3458870  86.2428660  84.2277527
  32.8143137  86.9883199  84.5069599  33.3158701  86.2720938  83.2714653
  86.8065453  10.8023167  51.5150404  87.5351143  10.2842093  51.1730099
  87.1918964  11.3200009  52.2219706 116.9712533 110.7200784  82.1628571
 116.7770709 111.5439749  82.6097584 116.1592234 110.4973590  81.7076206
  69.1442299   4.5873961  74.4402838  70.0115013   4.9915698  74.4134760
  68.6717415   4.9855378  73.7092113 117.4962503  91.7027809  24.7663281
 117.7687675  90.7946231  24.8975346 117.5208980  92.0891024  25.6417629
  90.5127525  22.1025062  34.1375494  89.8928928  22.2729158  34.8467541
  90.4416943  22.8686023  33.5680938  95.6108505  87.6689388  22.3442242
  95.2660162  86.8002583  22.1375439  94.8893434  88.1133582  22.7893707
  79.5175761  94.5710451  80.7677460  79.8459070  95.4357726  81.0140705
  78.5812872  94.7036834  80.6194019   4.7164761  12.5650932   6.3862392
   5.4938828  12.1033718   6.7003605   4.9834191  13.4834196   6.3455746
  75.7540464   1.9350107  54.0145063  74.8952723   1.5131584  53.9865351
  75.7921648   2.4541380  53.2112074  98.6525041  67.7166237  32.5969097
  97.7893144  68.0291833  32.3259041  99.0533811  68.4684517  33.0331203
  48.3022499   1.0882436  85.0289249  47.7162027   0.9929223  84.2781258
  48.6263847   1.9867742  84.9671936  96.1375427   3.1229648  50.7122755
  96.0704994   3.7152934  49.9633551  95.8562469   3.6498353  51.4602852
  65.6373232 109.6403654  94.6566105  65.0981730 109.4614046  95.4270172
  65.0278776 109.5879489  93.9203548  67.8784197 103.2175518  61.2504625
  67.3995512 102.8500218  60.5076027  67.1967810 103.4737958  61.8717051
   5.1423775  57.7721773  13.3904049   4.8328816  57.9344370  14.2815373
   5.9769475  57.3178400  13.5057137  48.7537003  17.1404624  85.8817387
  49.6097040  16.9001186  86.2363052  48.2368374  17.3856735  86.6491699
  72.3027945   9.0614486  92.1774960  72.2869730   8.1050646  92.2137165
  71.4178371   9.3055367  91.9063854  47.8285330 100.9387250  63.4147644
  47.7371805 101.4514108  64.2179060  48.6550349 101.2354691  63.0338907
  72.4490023  20.8589387  72.5660229  71.8507195  21.4409399  73.0346060
  72.3353767  20.0077605  72.9888916 111.5502674  70.0734581  27.7732727
 111.0796100  69.8356392  26.9744274 111.6885645  71.0175957  27.6977131
  86.3378889  85.4786183  19.4121334  87.0673496  84.9197246  19.1442558
  86.1592705  86.0231592  18.6454556  63.9104843   2.7691275  79.8919487
  64.4683409   2.0382032  79.6259165  64.1358566   3.4752423  79.2862749
 104.5792306  92.8367014  70.2949190 104.6298040  92.6701898  71.2361670
 105.4013432  92.4920781  69.9462080  18.8688153  73.9972062  65.9982061
  18.6496037  73.0946536  65.7667398  19.7931402  73.9635224  66.2446308
 111.3946993  75.6065859   1.4011547 111.0724384  75.0581159   0.6859180
 111.6556675  76.4241292   0.9771797  59.7521591  21.5955639  80.4478264
  60.4601479  21.8970084  79.8785162  59.2816114  20.9482789  79.9226189
  19.6431368 110.3843995  76.9658804  19.7405785 109.4431360  76.8217993
  19.4068020 110.7349564  76.1071110  35.1757956   5.4257774  73.2667780
  35.7158661   4.6609277  73.0678749  34.7762108   5.2233857  74.1127062
  27.5622195 110.0734113  61.3458252  28.3772677 110.3082798  61.7894077
  26.9113034 110.0328502  62.0464611  57.5096416   8.4051710  87.2513390
  57.5067616   7.5232905  87.6235104  58.2186699   8.8562393  87.7096558
  60.0467968  40.4906178  95.9679985  60.3698254  39.7216749  96.4376926
  59.8389435  41.1221027  96.6566658  69.9798489  37.1083665  82.0706558
  70.3691435  37.4137163  82.8900719  70.2580833  36.1953115  81.9989204
  89.5997173  39.9918606   1.0908005  89.8413879  39.1333594   0.7432339
  90.3883249  40.3001775   1.5371964 106.7240030  52.4015542  19.8307297
 107.3464996  51.6994314  19.6416351 105.9704572  51.9557925  20.2176353
  28.2878035  91.0387583  74.2689228  29.2417544  91.1164184  74.2554235
  28.0554503  90.7855148  73.3755493  26.2431192   2.6466894  67.3136187
  26.5372610   2.0017882  66.6703320  26.5183592   3.4889215  66.9515133
  33.3644319   3.2703996  65.3286123  32.9240775   2.6370743  65.8953762
  32.6975775   3.5255378  64.6910858 109.4312221  47.9303731   3.0474445
 109.9461776  48.1677891   2.2762844 109.8648292  48.3800288   3.7727234
  89.3856525  20.6722784  95.7492065  89.5410538  20.3696823  94.8544884
  90.1648998  21.1833119  95.9679508   5.4093140  88.9567156  91.0599327
   5.1115578  89.2128820  91.9328308   5.5761688  89.7854752  90.6109905
  90.0114280  54.7303542  31.8320438  89.9030000  54.0545139  31.1629364
  90.5669624  55.3906314  31.4177391  70.3990793  16.4413071  93.3767891
  70.3667068  15.6346464  93.8910675  69.5166588  16.8055439  93.4467697
   2.3860997 103.7610139  79.5520687   1.5029352 104.0606482  79.7676516
   2.7571934 103.4863688  80.3905678   1.2848984  56.9101366   2.7144310
   0.8607565  57.7644658   2.7947876   0.5611931  56.2921864   2.6113770
  81.7235088  25.6932783  80.2475262  81.8736744  25.8069324  79.3090296
  81.0781860  24.9885201  80.3032017  98.7366295  26.0734391  58.0620956
  99.3538475  25.3536272  58.1930447  98.9829254  26.7229438  58.7206602
 110.0148565  79.4333030   0.3372547 109.8604900  79.8028399  -0.5321434
 109.3686516  78.7317254   0.4174873  67.5779629  25.2299023  87.7904129
  66.9745159  25.7960987  87.3092651  67.3831749  24.3479800  87.4733925
  85.9205914   0.7324909  74.0484953  86.3619804   0.7195909  74.8977518
  85.4129124  -0.0787782  74.0300798  84.1476536  16.7786884  78.1405544
  83.1946373  16.6950893  78.1090498  84.3447781  16.9252670  79.0656948
  47.2512263 102.2688563  73.0783272  46.7144125 103.0574293  73.1571722
  48.0471438 102.4707521  73.5702562  70.5646992  26.9280982  77.7660322
  70.4108477  27.3418593  76.9167042  69.7071934  26.9282484  78.1913710
  65.0836706  40.8442450  50.3086185  65.5890608  41.6142654  50.5691671
  65.6865072  40.1103973  50.4281616  52.7573984  89.6622391  85.2757263
  53.6041086  89.3833156  84.9271202  52.9729861  90.1309080  86.0820198
  50.8277225  33.8888955  55.1319265  51.4156914  33.4252620  55.7282162
  50.9189081  34.8104596  55.3740788 110.1884062  73.8687064  15.5190632
 109.4845373  74.3482722  15.0822327 110.0736267  74.0684427  16.4481232
  85.9036636  21.6581297  55.2345657  86.6557026  22.1877265  54.9696255
  86.0345554  21.5077090  56.1707687  55.8817816  10.8475327  73.4722471
  55.1314402  11.2116098  73.0024958  55.5781078   9.9952990  73.7848377
  10.1816689  93.9384748   7.9563973   9.3054997  93.6275007   8.1841156
  10.4967152  94.3697478   8.7507317  96.9046688  11.8258250  67.0644665
  97.8128910  11.5249491  67.0354366  96.9658947  12.7788639  66.9996595
  67.6423597  18.9789987  91.5938663  67.8902912  19.4242835  92.4040985
  67.8464699  19.6086502  90.9024143  88.5162562  90.8901329  71.4114046
  89.2066878  90.6459184  72.0277691  88.7981909  91.7338092  71.0579157
  93.3979607  11.8778610  88.6890125  93.9726830  11.2453306  89.1200924
  92.5444984  11.7462480  89.1019249  30.7090878   1.6468847  39.6391535
  31.1952877   0.9500375  40.0798845  31.3263464   2.3769784  39.5923924
  83.3045864  29.5347309  53.6631489  84.1653728  29.8253775  53.9645004
  83.4283829  28.6126328  53.4381151  97.1893406  19.2523551  87.2622681
  96.8521786  18.5286045  86.7343140  96.9289684  20.0394440  86.7838001
  86.9460184 104.3871357  11.6275570  87.1635753 103.7304165  12.2890827
  87.7499754 104.8956920  11.5214607  42.2097700 106.1021049  85.7694149
  42.1987742 106.6862349  86.5276337  41.2885969 105.8928193  85.6149101
  40.2699518   9.7945338  69.9602127  39.9013448   9.1544235  69.3514299
  39.8524523   9.5959723  70.7983685 113.8760597  79.2146208   9.8127434
 113.3632929  79.8400666   9.3007633 114.5514948  79.7464134  10.2337143
   4.7698914  78.2872655   4.6681950   4.8249661  77.3337866   4.7320435
   3.9459931  78.4493519   4.2086861  86.9935322   6.5720624  66.3398981
  86.7893505   6.3638419  65.4282045  87.5155735   7.3729146  66.2915373
 114.1922951  58.6619568  89.6911240 113.3771896  59.1636610  89.7026539
 113.9291573  57.7838182  89.4156933  23.6305540  96.3695021  75.8666754
  23.9171665  95.5372996  75.4904795  24.0544003  96.4032931  76.7242575
  92.6094705  80.1939298   7.5521729  92.0835478  79.5014121   7.9522392
  93.4456951  80.1582195   8.0166027  56.0600901   4.9562737  71.2957239
  56.3934374   5.2977210  72.1254969  56.2152624   4.0130335  71.3452291
  90.2879143  58.5095358  66.1292887  90.2238560  58.6320543  65.1821232
  90.7513714  57.6783991  66.2324810  85.5825138  22.4273109  86.0122871
  86.1369514  23.1761765  86.2314415  84.9833202  22.7603006  85.3442192
  74.1479015  19.9767196  82.2356129  73.7187433  20.8057952  82.0242119
  74.8341608  19.8868299  81.5744019  54.6342039  21.7772841  66.1299610
  54.0946770  21.0036302  66.2930679  55.3249741  21.4683127  65.5437803
 108.5389597  57.6664175  10.3617928 109.2228252  57.1206786  10.7500336
 107.8301937  57.0553114  10.1607201  88.8259888  28.4828281  94.6705914
  87.9673958  28.8332653  94.4334126  89.4117737  29.2389560  94.6338463
  32.5191563 101.1291869  87.9190254  33.0182236 100.3684957  88.2165432
  33.1819695 101.7377550  87.5926018  66.6992807  37.1252990  82.6946354
  66.7456532  38.0792189  82.6304340  67.0693827  36.8114471  81.8695545
  24.2075001  54.9220859  10.6506702  24.4666611  54.8775289   9.7302982
  23.3267437  55.2965316  10.6336281  81.5988255  24.6346474  56.3016701
  81.7492008  25.4293346  56.8136215  81.9193935  23.9260387  56.8596458
  83.8572502  23.4462786  73.1875086  84.3705845  22.6420760  73.2647991
  84.4986629  24.1187453  72.9581547  38.2198399  99.6973534  79.5465040
  38.9819496  99.7649248  78.9713001  37.6368588  99.0829987  79.1004848
  24.8602455 111.3127552  57.5994158  23.9743584 111.3849096  57.9547071
  25.4323405 111.5174103  58.3390427  65.3279686   4.1804489  75.3683949
  64.6755457   3.9274085  74.7152853  65.6148291   5.0518471  75.0952530
  53.3572214  98.9592607  71.3509655  54.0717333  99.4265456  70.9181309
  52.5983637  99.5334883  71.2478733  20.8538186  80.3694560  40.6077930
  20.8494126  79.4290449  40.7862351  21.1101376  80.4375221  39.6880600
  86.0739517  23.4247756  82.8713703  86.6912079  24.0974236  82.5836849
  86.3127422  22.6482940  82.3651314  42.8200150  10.4947221  69.9877310
  41.9515324  10.1257324  69.8270512  43.0920982  10.1123607  70.8220005
  14.0711628  85.1363064  12.7184555  14.4395482  84.7677709  13.5213921
  13.1403576  85.2484609  12.9114601  21.0838067  51.4779507  15.3722355
  20.5308377  50.7933281  14.9957344  21.1807667  51.2290184  16.2913963
  17.8618275  79.7192384  10.3526947  17.5906025  79.8168565  11.2654564
  17.0451485  79.5773961   9.8740170  26.1844288  91.4516308   9.6525356
  26.4379727  90.5326368   9.7385666  26.8012654  91.9236471  10.2119515
  17.6261872  96.4058716  81.2298107  17.7483814  95.7137353  80.5800056
  16.6789835  96.4458842  81.3618851   8.4505784  11.1651851  20.0397656
   9.2264306  11.0148575  19.4996807   8.5559498  12.0585252  20.3669807
  86.3249588   8.5627890  82.3700714  86.2322998   7.6140219  82.2835350
  85.5039787   8.8480210  82.7711678  67.4069834  22.8514719  86.4276695
  68.2408619  22.5748610  86.0477161  67.2183180  22.1930528  87.0963383
  78.7965012  27.5123763  67.0608425  78.5787106  26.6973352  66.6086197
  78.0596113  28.0941057  66.8742418  59.8678827  33.9751625  82.6273155
  60.2971554  33.6534691  83.4200764  60.2393627  34.8466825  82.4906158
  85.8211136  14.5948756  86.9073868  85.8469582  15.5460119  87.0118141
  85.0525856  14.4348562  86.3596821  21.2948739  68.6294927   2.5705597
  22.0485245  69.1984941   2.7270290  21.6392266  67.7422823   2.6730701
  33.8858288  73.9535160  95.3311157  33.8865822  73.8361616  94.3811417
  34.2821186  74.8142571  95.4664326   8.5251557  80.9047724   2.7698204
   8.4326684  81.7509462   2.3320171   7.9770123  80.9781529   3.5510990
  85.8664989  13.1088686  53.5795832  86.7558193  12.8050935  53.7614346
  85.9734249  13.7634850  52.8894567  88.2506973  58.2355663  16.5677616
  89.1461546  58.3142094  16.2388203  87.7231437  58.0642811  15.7876465
 105.8945847  13.7851453  50.9650612 106.6119671  13.1891406  51.1804008
 105.7614517  13.6696351  50.0242281  53.6627483  15.0138187  62.0162821
  54.4520569  14.4891012  62.1500397  53.8305092  15.8252585  62.4955034
  76.7618674  96.3247437  90.8502293  76.1393564  96.4408846  90.1324463
  76.3065832  96.6664274  91.6197777  32.1972388 109.2344285  91.0196590
  32.4543350 110.0974170  90.6950283  32.2809237 109.3016399  91.9708252
  79.8601770   6.1844897  80.5995369  79.1209650   5.7492763  81.0242558
  80.6278133   5.6935805  80.8927536  99.7775555  11.3387656  72.3451424
  99.3716621  10.5431211  72.6892853  99.9166012  11.8892860  73.1157446
   2.3398911  85.1424004   7.3868725   2.8333889  84.5263888   7.9283688
   2.2089230  84.6813204   6.5583298 114.6892816  90.8737137   3.9442322
 114.9268610  90.1979973   3.3092567 113.8203508  91.1660697   3.6690590
  60.7804251   6.3124454  71.1795902  61.5334034   6.8273610  70.8895683
  60.9424019   5.4350656  70.8328915  90.4926872  21.2956524  90.5773926
  90.4697323  22.1964049  90.9004211  89.8611736  21.2829685  89.8581791
  32.9970759 104.3112160  46.5749264  32.2665137 104.9192203  46.4616203
  32.5998038 103.5275907  46.9548416  48.9281100 104.6757270  64.8798656
  49.0070170 105.5891318  64.6047354  49.6484679 104.2286594  64.4355202
   7.3050343  76.4255335   1.8108913   7.1476685  76.3330604   2.7505276
   6.6090523  77.0085742   1.5077183  67.4251747  30.0330663  84.4442654
  67.7974224  30.6383991  83.8029957  66.5172243  29.9163580  84.1645622
  72.1167564   8.2685047  54.8322821  71.5301466   8.9304721  55.1982307
  71.6263485   7.8913790  54.1018677  38.1147742  21.1330986  62.4531555
  38.7707448  21.6061497  61.9411421  37.2781873  21.3860154  62.0627880
  77.0558739   2.9224259  78.6351442  76.2883615   3.3495867  78.2547665
  77.4615049   2.4609432  77.9011631  49.5834017  13.4938872  78.6625957
  50.1269531  13.3716106  79.4409513  50.2015972  13.7425637  77.9754114
  94.0460110  10.1457429  77.9250193  93.4502602  10.2488220  78.6671019
  93.8636684   9.2671651  77.5917292  98.2597763 106.3055469  30.8856651
  97.6132185 106.9830896  30.6878635  99.0902454 106.7775585  30.9469387
  95.7892323  19.5464587  80.9003925  95.3060532  19.3711138  80.0929070
  95.9835815  18.6794007  81.2562943  92.6406956  38.2939529  93.4508991
  91.8064117  38.0599523  93.8576508  93.2924175  37.7812648  93.9290619
 112.3164875  65.2238514  14.2652294 113.1324417  65.2324088  13.7648460
 112.5009424  65.7642986  15.0334236  72.4707907 100.8398135  80.6992149
  72.3224943 100.2111335  81.4056206  71.9971197 100.4758389  79.9512959
 105.3366947  31.2518835  79.8556328 104.4551849  31.3556075  80.2139950
 105.9159088  31.5673876  80.5493164  44.1394901  38.2300043  84.9160004
  44.8170519  38.5487962  85.5122566  44.6148968  37.9854274  84.1220284
  21.4466398  90.3383274  70.0906038  20.9193438  90.0587315  70.8389425
  22.3204344  90.4825373  70.4538155  98.0272388  13.8232350  94.0120316
  98.4440613  13.3968854  93.2632160  98.1668472  14.7584653  93.8634205
  34.7283238 104.4596035  93.3536720  35.0851076 103.8328023  92.7243423
  35.3208464 104.4095094  94.1037655  62.8060961  16.1356795  73.0143213
  61.9071770  16.4617229  73.0575514  63.1974220  16.4010763  73.8465881
  97.4172336  89.5524885   0.5083916  96.6408474  89.5359327   1.0680172
  97.1701080  90.1124241  -0.2275589  13.1117283 111.1378004   7.8738281
  12.6062523 110.6674625   7.2108719  13.2240426 112.0163156   7.5107357
 102.3089218  13.0549943  84.8676872 102.7883625  13.8722301  84.7317123
 101.4207840  13.2452440  84.5656109  64.0904093   2.3186736  72.0105600
  63.6218977   2.6690087  72.7681828  63.7777948   2.8420621  71.2726116
   4.4812029  87.9898662  61.4570665   3.5532873  87.8141303  61.3011026
   4.6726006  87.5491185  62.2849178 109.7449381  68.4101941  15.2298328
 110.6189996  68.5178568  14.8547909 109.5153696  69.2803694  15.5559132
  76.0171175  21.7620635  69.4529676  75.6264782  22.6324606  69.5306683
  76.4665842  21.7758250  68.6079645  13.3286732 107.4184952  82.1161747
  13.6642044 107.9019157  81.3612270  14.1126030 107.1132995  82.5728321
  68.8430166  31.8128586  92.9501343  69.2957067  31.2797427  93.6036587
  69.5461035  32.2390747  92.4599934  35.4247308  27.5104094  55.4427385
  34.6287560  26.9930434  55.5651617  35.1672411  28.2067204  54.8385239
  87.7719879  26.2300611  93.4855175  88.5690689  25.7028723  93.4310150
  88.0300713  27.0032692  93.9872837  46.1467379 108.8844795  58.1800795
  46.4934176 108.0829773  58.5720539  45.7137125 109.3371617  58.9038181
  98.7269497   1.7300692  67.7281284  98.4687042   1.2576704  66.9366837
  99.3168163   1.1295215  68.1837893  45.1000690  34.2810798  92.5448704
  44.7671318  35.1578498  92.7363300  45.1459980  33.8506055  93.3985710
   7.0030945  85.7776661  74.9363708   6.6513031  85.8989043  74.0544558
   7.5192803  86.5671916  75.0989580   0.2941500  59.1110583   4.2794201
   0.4364573  60.0540723   4.1975376   0.4322659  58.9277907   5.2086994
  32.2641009  82.3958177  84.7065067  32.2989624  81.4514799  84.8589516
  32.9732769  82.7512498  85.2422047  83.3764744  16.6555595  84.7574520
  83.2459831  15.7149279  84.8775101  84.3250465  16.7739713  84.8066807
 100.4238510   2.0306949  64.6106052  99.8815346   1.3032991  64.9155951
 100.3530025   1.9986811  63.6565685  25.0175160 107.5507773  66.3592958
  24.0660446 107.5625510  66.2553883  25.2544897 108.4675003  66.4996338
  44.2234898  12.9364085  72.1848679  44.6548843  13.1579268  71.3596058
  43.2918453  13.0721450  72.0121002  67.9406261  25.6237173  75.1810789
  67.9796457  25.9141850  74.2698526  68.1158495  26.4139223  75.6920671
  16.8238579  87.5877001   5.8686516  17.1343361  88.4886433   5.9588596
  17.5985753  87.0498683   6.0322926  58.5740709   6.4575297  73.0713558
  58.4016895   5.5534512  73.3343363  59.3396902   6.3988936  72.4998474
  40.3831005  14.2671549  66.7782354  40.3492975  13.3170617  66.8896484
  41.2009621  14.4240201  66.3062954  95.8514435  80.4745032   8.8638374
  96.1422331  79.9844553   8.0947277  96.6245348  80.5178787   9.4265816
  57.8750628  89.2015881  75.3062201  57.2597616  89.0157742  74.5969248
  57.5896376  88.6373849  76.0248566  31.5597409  98.1386323  65.6945229
  30.7171028  97.7012200  65.8164406  32.1029347  97.8168816  66.4139986
 108.8566190  62.8085305   3.5271713 109.4751484  62.4474098   4.1621944
 109.2183906  62.5647862   2.6751492  81.0883904   2.8547469  75.2046776
  81.3683128   3.7517253  75.0221825  81.3355541   2.3627192  74.4217014
  56.6211176   4.4871598  74.2869949  57.2280312   4.2630312  74.9924374
  55.7532692   4.4034413  74.6820498  78.9989424  28.2085752  83.3710003
  79.2126179  27.9789853  82.4666405  78.0541086  28.3617020  83.3623886
  55.2608048  65.2903243  10.6408855  55.8613907  64.5833220  10.4049370
  55.5082642  66.0160376  10.0678799  44.3270254   2.8510779  64.1944838
  44.7667599   3.6204731  64.5562840  44.5058060   2.1540886  64.8257351
  26.7304486 105.4655529  87.9260921  26.8167132 104.5958180  87.5357723
  27.0529383 106.0636825  87.2519493  92.1781158  22.6482725  72.8849411
  91.9457436  23.4050727  72.3469019  92.3468018  21.9485378  72.2539520
  74.7573280  16.6028988  80.7179642  75.0875330  15.9428430  81.3274860
  74.2867851  17.2260654  81.2715721  97.2586918   4.1754600  95.6981850
  98.1200409   3.8315201  95.9348774  96.6442776   3.4984842  95.9817791
  18.0339354  87.6860948  63.9826536  17.1346682  87.9265041  63.7595940
  17.9664582  87.2832842  64.8483467  87.1222687   2.4038699  67.4004555
  87.6679516   2.9946929  66.8814278  87.7471256   1.8598109  67.8798056
  15.8724820  61.0032393   1.2371704  16.7007767  60.9180989   0.7650539
  15.9713398  61.8042822   1.7517445  85.1401329   4.7611356  77.0064497
  84.6299267   5.3153825  76.4159107  85.2860546   3.9547607  76.5117788
   8.9435994  74.4930364   0.8142349   9.6923958  74.8840799   0.3640911
   8.4363972  75.2410378   1.1296246  76.6488283  92.1156759  82.7080250
  77.4033469  92.5125511  83.1432629  75.8899611  92.4899287  83.1555653
  43.3811587  85.7545156  60.6347561  42.6205462  86.1859960  60.2454901
  43.6836737  86.3639064  61.3080740  16.7148816  79.8946716  12.7591583
  15.7992589  80.1464726  12.6388905  16.9752347  80.3209163  13.5757134
  66.6784763  28.4230781  93.3644295  66.3635492  29.2773533  93.0690193
  65.9880543  28.1004691  93.9436245  58.5706347 106.8135739  69.6935558
  58.4592551 107.6558767  69.2527008  58.5321444 107.0245550  70.6264210
 101.9350082  60.5654980   6.0437080 102.6203472  60.0042774   5.6809780
 102.0828706  60.5434878   6.9891617   1.0292040  95.7565595  10.1862118
   1.0021769  94.8009350  10.1384327   1.8756234  95.9915401   9.8059532
  53.0302637 108.8840241  75.4719067  52.4417799 109.6363158  75.5350113
  52.4483126 108.1346605  75.3453445 111.9694835  72.2863783  11.3740608
 111.2610418  71.7413689  11.7165730 112.7366764  72.0320536  11.8868610
   8.1414639  73.9002372   8.9491341   8.1881272  74.8520543   8.8591454
   7.3963105  73.6445023   8.4054634  70.7447624  38.0926490  84.4329739
  71.4600039  37.7246284  84.9518394  70.2722025  38.6582613  85.0437069
  84.9675179  12.6081216  38.8573241  84.9917603  11.6954112  39.1447306
  84.6434116  13.0902529  39.6180725  63.0852127   9.4964898  60.0670624
  63.8333511  10.0793338  60.1967287  62.6464128   9.8395693  59.2886114
  94.8558712  17.8862667  78.4314299  95.0041485  16.9577312  78.6105061
  94.1144562  17.8980374  77.8261185  76.5563447  52.9267039   8.9341232
  76.0142476  53.3533599   9.5976898  77.2810847  53.5350497   8.7895462
  20.7554375  52.6146411   6.0070869  19.9927269  52.1238865   5.7010433
  21.4858948  52.0026119   5.9171936  89.6360588  40.5955648  76.2359142
  88.7623119  40.2352047  76.0844088  90.2266693  39.9854875  75.7940912
  92.3169518  26.3382840  65.0190878  91.9568253  26.8075609  65.7716322
  91.8447590  26.6943479  64.2664385  82.8630829  29.8385930  62.0721149
  83.3368111  29.0545917  62.3498869  83.5491943  30.4791522  61.8845797
  45.8368510  87.5822325  87.3010826  46.4551466  87.1222515  87.8688431
  45.9726351  88.5086460  87.4999619   1.4180617  18.2950556  91.0672283
   1.9349627  17.7815020  91.6879654   0.9025244  18.8859904  91.6160965
  18.6380993  77.7884700   8.6197636  18.4945523  78.5943176   9.1159794
  18.3951603  77.0879342   9.2251179  81.1093521  14.5868111  89.4845295
  81.8296242  13.9794254  89.3156433  80.3753281  14.2335939  88.9818668
  98.0741787  32.8385448  78.4404516  98.1378651  31.9468141  78.7824917
  97.7270317  33.3509278  79.1706467  78.7462759  21.0475254  90.5568123
  77.8212214  21.2929273  90.5735683  78.8754034  20.5451131  91.3612556
 114.3397934  46.3283648  11.5423271 114.2919571  46.9334252  12.2824928
 115.1037723  45.7824601  11.7282269  86.9184685  21.9636393  95.5535698
  87.5634956  21.2617826  95.6406212  87.3156738  22.7108192  96.0009861
  97.6877785  39.2325830  53.4010267  97.2504425  40.0839520  53.3890820
  98.0268955  39.1250253  52.5123978  77.3885972  78.3823659   2.1601460
  77.1699101  79.3083216   2.2650883  76.6912991  78.0329801   1.6052219
  76.9434183 102.2729362  89.1941929  77.2619169 102.5632180  90.0489044
  76.1246889 102.7525635  89.0681648  33.0297631 111.2174419  87.2328568
  32.9795950 111.4122674  88.1686687  32.3631399 111.7777465  86.8354797
  52.7834940  19.0018022  79.5869017  53.3977509  18.8931072  78.8608837
  53.0273199  19.8380268  79.9837780  38.3840531 110.4120429  84.4124985
  38.7386339 110.6011993  83.5437489  37.4345988 110.4507686  84.2973042
  47.7326315  65.6462855  76.9940901  48.3951777  65.1802249  76.4841413
  48.2355326  66.2115140  77.5804710   9.2740952  45.3575637   1.8001434
  10.1981007  45.5658831   1.6621086   8.8277756  45.7341470   1.0417149
  24.3149983  78.0458619   1.5549633  24.4336068  78.3256890   2.4626324
  25.1934659  77.8030302   1.2624619  26.2408482  99.0835096   1.4268086
  25.8341156  99.7696640   0.8976528  26.7750489  99.5575287   2.0641205
   0.7641749  30.9891272  67.7621555   0.7677893  30.3350449  67.0633030
   0.5573897  30.4925466  68.5539103 115.0967676 103.2395746  30.2268288
 115.5810529 103.3662559  31.0427067 115.6330520 103.6696245  29.5607349
  82.0411587   8.2256883  74.5759249  82.6657009   8.9207870  74.3685198
  81.3210201   8.6749387  75.0184250  73.1590939   9.9272799  94.9052143
  73.1245375  10.0636899  93.9584160  74.0814304  10.0477958  95.1310539
 101.6382248  71.6144206   5.8397934 101.1521227  70.9094288   6.2674973
 102.5562937  71.3561250   5.9214375  83.9281940   3.9714456  72.2123432
  83.7237549   3.1566978  71.7534065  84.4519234   4.4732487  71.5877390
  90.7568962  61.8664386  25.7235405  91.0535938  61.4990015  24.8909542
  90.2954752  62.6690252  25.4802677   4.7558533  80.5619623  31.3169548
   4.0881096  81.0627844  31.7854950   4.4296586  79.6620871  31.3246510
  72.1622419  24.5031214  76.0276747  71.4543009  25.1471663  76.0436583
  72.9402733  25.0082302  75.7915258   6.2950854  42.5555038  68.9131308
   5.5197768  42.6781130  68.3653259   6.9818549  43.0550051  68.4714508
  77.5161982   2.5239253  73.8388634  77.4664211   1.9058216  73.1096840
  78.2461166   3.1010002  73.6142731 113.8225269   3.5471827  53.6176968
 114.3868446   2.7837759  53.7401295 113.2111835   3.5135904  54.3534708
  76.2223339   9.8152852  94.7809124  76.7767906   9.1406405  94.3889141
  76.2988615  10.5626500  94.1877651 103.2825405  63.2003607   7.9595348
 104.1958839  63.4360750   8.1222603 103.3283645  62.3447712   7.5328037
  32.5060337 102.2077371  63.9098120  33.3834236 102.5852973  63.8476324
  32.4489611 101.6103430  63.1640911  43.3097952  97.6884646  92.9002953
  42.7463072  98.4595544  92.9646301  42.7687567  96.9686861  93.2250023
  79.9737453  29.2179918  89.3173504  79.6390390  29.3872309  88.4366894
  80.7185650  29.8122334  89.4087887  89.8276806  30.7638741  89.9471188
  90.2667332  30.0517726  90.4122925  88.9684772  30.4080248  89.7204685
 110.4404861  50.7171680  34.4119427 110.1471359  51.6258891  34.3455765
 110.6687147  50.4730506  33.5149738  46.6413927  46.3824415  69.7034883
  46.9988012  47.2127581  70.0182390  47.3038244  46.0510111  69.0972090
   8.2782763  95.9841938  49.9099398   7.8136032  96.6710920  49.4319487
   7.5890082  95.5020113  50.3667164  92.7402860  98.2898189  12.7446529
  93.6428768  98.3243849  12.4278519  92.7035648  97.4951555  13.2770035
 113.9624435  75.0447180   2.5810310 113.6406357  75.4127528   3.4039661
 113.2002908  74.6094395   2.1990749  94.9360275  14.7096229  78.6948633
  95.7565975  14.2760193  78.9291286  94.5287132  14.1231298  78.0574036
  91.4625168  22.5122285  77.3261786  91.5399361  21.8220925  76.6674280
  92.3648548  22.7811360  77.4985313  25.1833552 105.1093722  39.4066429
  25.2648085 105.5261273  38.5487890  24.7480362 104.2758925  39.2276454
  65.0476759 105.2774490  31.2580252  64.9032419 104.6216853  30.5758619
  65.9838789 105.2217210  31.4494586  36.1326957   1.7924690  76.7364311
  37.0710945   1.6037187  76.7325926  35.9510303   2.0857656  77.6292992
  81.6042072  76.5530016  11.6177342  82.3333866  76.0722067  11.2261078
  81.3071615  77.1433570  10.9252903   8.0029791 111.2205317  60.0006437
   8.6537379 111.8487146  60.3138971   8.0624169 111.2697645  59.0465593
  16.9847905  90.5590250   6.5268871  17.8146206  90.9299542   6.8269512
  16.3212239  90.9891941   7.0661995  18.4234845  71.3417055   1.1113522
  17.8310906  71.7589058   0.4858467  17.9145848  70.6183089   1.4773438
  15.8694684  45.9561004   5.9100887  16.4072358  45.4852523   5.2734253
  15.6306683  46.7700221   5.4665443  68.7340260  19.4553900  81.8832779
  69.3360901  19.9669921  82.4236679  69.1137934  18.5768902  81.8676186
  91.8983936  18.5839140  51.3794279  91.4037228  19.2383444  51.8726349
  92.4907112  18.1959021  52.0235109   2.5787961  84.5795347   4.4767353
   3.4716641  84.4065358   4.7752258   2.4910676  84.0662076   3.6735985
 116.4600212  79.7131945  19.2292091 116.0795385  80.5861880  19.3259022
 116.1896450  79.2452432  20.0192425  84.9280930  10.1645041  84.4180012
  85.0354576   9.7288954  85.2635479  85.5622864  10.8812511  84.4355869
  21.0762631 101.7540981   4.8646805  20.8443390 102.4473049   5.4826614
  22.0284401 101.8122246   4.7858498 114.4960785  46.3905573  49.5826340
 114.9904156  47.0571661  50.0595999 113.6528587  46.3491774  50.0337362
  33.0817084  14.4470942  80.6142235  33.9738517  14.7725630  80.7342148
  33.1557898  13.7973583  79.9152279  95.2471542   5.2078182  48.5730982
  95.7673359   4.5064554  48.1810093  95.7183170   6.0100245  48.3479309
  29.0094697  74.4491126  12.4140331  29.6904027  73.9145793  12.8224918
  29.2851769  74.5316483  11.5011284 116.1840851  98.9105465  25.7434151
 116.6889173  98.6704017  26.5204021 116.7214138  98.6157991  25.0081322
  88.3063126  27.0673299  88.1022263  88.3378696  27.5097132  87.2539806
  87.9381752  27.7191520  88.6987495  90.3506851  32.2257876  95.4789734
  90.7335281  32.1606064  96.3538551  90.7367611  31.4966536  94.9936485
  93.6152458  23.7840533  75.1662016  93.6256599  22.9770827  74.6514988
  92.7169228  24.1055393  75.0894117   1.1794697  94.5380975  25.7404491
   2.0842873  94.4658567  25.4366180   1.1283146  93.9388968  26.4851448
  59.9446154  16.7667079  82.5095463  59.1917229  16.8306231  81.9219303
  60.4797935  17.5313735  82.2971630  75.9221792  41.5804815  90.5707264
  76.2997723  41.3549519  91.4208984  76.1635733  42.4970388  90.4369926
  17.2758042  95.0794603   2.6963779  18.1881272  95.3677727   2.6684639
  16.8664490  95.6431748   3.3527920  52.9128187  32.8890187   9.6120903
  53.4661215  33.5038812   9.1304085  53.4018439  32.0662553   9.5995304
  88.4166336  12.3369455  86.5161419  89.0968227  11.7856097  86.9029331
  88.4543896  13.1512892  87.0177937 110.8460743  74.0440585  20.8344147
 110.3545791  73.3251311  21.2316677 111.3810808  74.3915190  21.5480396
  52.5503844 109.6178059  78.4370470  52.1881979 110.2165216  77.7839041
  53.4876078 109.5915839  78.2443094 102.9328537  32.1789408  80.7522488
 102.0046806  32.1137500  80.9769154 103.0344677  33.0667686  80.4092216
  84.5283031  43.3390379  94.4813538  85.4554176  43.1011009  94.4907761
  84.4755173  44.0726566  93.8687801  11.5614068  49.8685779  21.5875504
  11.0755288  49.0761162  21.8159267  11.3372551  50.0312670  20.6712982
  75.5156279  37.4617910  95.1231670  74.8801184  36.9937921  95.6647778
  75.0378466  37.6718736  94.3207836  13.3622014  66.1315133  17.3348782
  12.8155266  66.8191244  17.7150890  14.1406762  66.5910389  17.0201561
  62.6981211  26.1801028  84.6751785  63.5925293  26.2826943  85.0003529
  62.2942638  25.5557656  85.2779484 110.3742790  32.5664449  89.4678593
 110.0503826  33.1285286  90.1716900 110.1256275  31.6813993  89.7344971
  87.9501755  80.5707051  12.8772614  87.3065645  80.0496437  12.3971626
  88.7972004  80.2426769  12.5753090  89.0133286   0.5694245  92.6581573
  88.3161354   0.0176525  92.3036003  89.7827625   0.3504331  92.1325684
   3.6948048  82.8816320   8.2737610   3.5933911  82.0979454   7.7335999
   3.8652646  82.5456144   9.1536877  48.1539189  77.1071746  15.2138397
  47.8522145  76.2632610  14.8776600  47.5827729  77.2853686  15.9610245
  94.5320225  30.3263927  92.1484280  95.3109169  30.7233620  91.7585850
  93.8272953  30.9459519  91.9593811  31.6362320  80.7976891   3.5451195
  30.9274899  81.2887360   3.1294415  31.2152993  80.3384377   4.2718479
  39.7151696  62.1433605   9.3926880  38.9064442  62.6397808   9.5182488
  39.4908272  61.2501051   9.6534512  12.2780471  20.3306913  77.9498529
  12.3751979  20.2413106  78.8979053  12.0910792  19.4433141  77.6435280
  39.7485512   1.2942893  14.1240761  40.1675909   1.9944960  14.6244213
  40.4107207   1.0256869  13.4872028  80.6796074  14.8128879  63.2719707
  81.5586472  14.9831641  63.6103916  80.7658100  13.9950490  62.7821350
  81.7508602  43.4486341  94.5195103  81.6218758  43.8345623  93.6531067
  82.6559639  43.1372738  94.5106888  90.3728771  19.4348347  75.8153725
  91.1673832  19.9033153  75.5594206  90.2701664  18.7555134  75.1488829
  90.7238293  36.8810964  57.3314714  91.1717892  37.7049565  57.5233412
  90.2085972  37.0658517  56.5462112 104.7902567  95.6068064   7.1617004
 104.3406898  95.7288338   7.9979012 104.1060955  95.3061082   6.5635845
 102.3977596  92.6802923  -0.0315597 102.1695120  93.0546643   0.8193180
 102.2476799  93.3916165  -0.6542328  70.7725859  44.3634367  93.7029839
  70.5544853  45.2564383  93.4361267  69.9675846  43.8665152  93.5571384
  23.7207049  86.4515419  71.0994864  24.4286125  86.2211223  70.4978180
  23.0072802  86.7404766  70.5304813 107.8617937  83.9516188  14.0922710
 107.7733261  84.6669795  14.7220776 108.3421356  83.2729747  14.5665524
 101.7372322  44.9885654  94.7135830 101.4473820  45.7769394  95.1725864
 101.7676353  45.2454996  93.7920094  98.3048630  44.0177679  81.7424393
  98.3535290  44.6207714  82.4842262  97.3843765  44.0342188  81.4803982
   8.9013325  73.8782527   4.5571873   7.9947506  73.5991897   4.4289276
   9.2802178  73.8729264   3.6781761  88.8693047  38.9365220  72.3054314
  88.6890316  38.1859875  72.8714943  88.0072212  39.2181683  71.9993019
  71.3122702   8.0138546  95.6168175  72.0817566   8.5649139  95.4738045
  71.0441637   7.7442086  94.7383881  93.4046555  12.9225135  73.1527901
  93.6696529  12.9858875  72.2351885  93.3160210  11.9828415  73.3121395
  13.0536305  90.9845354  21.1538956  12.8937279  90.0451566  21.0631725
  13.4641015  91.2385465  20.3273270  70.9811592  29.4103241  84.3114376
  70.7898188  30.2785754  83.9568043  71.5207958  28.9913607  83.6409950
  93.1681538  15.5517769  64.6441698  93.2196712  16.4663494  64.9219036
  92.8476238  15.0848234  65.4158258   1.4234690   1.8628705  89.7289658
   0.6925444   2.3269144  90.1371956   1.1649470   1.7680787  88.8122272
 107.6550865  47.3236084  94.8433304 106.7553520  47.0917940  94.6131992
 107.6382351  47.4342871  95.7939625  99.8599052   4.9382663  71.8314886
 100.3497410   4.4522917  71.1680746  98.9870739   4.5454824  71.8203354
  83.9955139   0.9679393  63.8565540  83.5025406   1.4645942  63.2034540
  84.2595959   1.6208598  64.5047760 101.8460066  90.2277400   1.6634342
 100.9393722  89.9284531   1.7317650 101.8374330  90.8545829   0.9400913
 103.9711475  31.0559058  85.6729507 103.6434937  31.7828441  85.1433945
 104.6138287  30.6216216  85.1120663 100.3023369  73.0435015  10.0284931
 101.0201008  72.4358954   9.8499939  99.6000988  72.4906077  10.3711292
  70.0022078  22.3374510  85.8157158  70.3292990  23.2183313  85.6332588
  70.7443142  21.8845892  86.2162495  86.8080711  12.3161900  84.1335773
  87.2553921  12.5651550  84.9423695  86.4563179  13.1381321  83.7916470
  88.6912632  31.1213470  87.3020840  88.2856274  31.5957260  86.5763664
  89.6315861  31.1880708  87.1360207 115.8962661  79.0664579  21.9000313
 115.6220466  79.9712445  22.0496819 116.3895590  78.8325335  22.6862785
  29.5238244  95.7976534   3.4818432  29.2535721  94.9240281   3.1990406
  29.3454968  95.8108474   4.4221947   5.7105975  58.0738354  94.0860271
   6.5480857  57.8317690  93.6907578   5.6776862  57.5745678  94.9020386
  93.5485744  28.9295459  84.8378181  93.5243320  29.7930241  85.2501869
  93.1290817  29.0585089  83.9871502  37.5783795 109.2916338  56.0630322
  38.3279579 108.6965115  56.0770178  37.8089398 109.9818761  56.6848373
  14.3875824  65.2885725  19.6748707  13.5366379  65.2375414  20.1102135
  14.1842591  65.5747046  18.7843582  50.0092888  40.1969671  85.0132179
  49.4287777  40.9024429  85.2987671  50.8135557  40.3308249  85.5146885
  10.7665001 100.1359560   4.6625111   9.9023091 100.3315832   4.3003914
  11.2817322 100.9244301   4.4919941  11.8840079  34.5326114  83.3667946
  11.7211966  33.7993503  83.9601231  11.7467646  34.1681910  82.4923801
  89.5163631  10.3116560  69.1433144  90.4303741  10.3493869  68.8615370
  89.5183182  10.7050121  70.0159550 117.4258072  84.8389103  31.3732311
 117.3036653  83.9354898  31.0814259 118.3505279  84.8894932  31.6152260
  89.9713230  29.2437673  80.4357243  89.9546623  28.2876015  80.3944778
  89.9398708  29.5235515  79.5208693  86.1023903  17.9399371  84.5660591
  86.4375496  17.7960038  85.4510307  86.4136887  18.8141251  84.3312836
   0.7176863  74.4719996  42.0965073   0.5672823  75.0140681  41.3220570
   0.0069987  74.7052206  42.6938030 117.4197942  85.4100086  24.3307945
 117.9210073  85.8592846  23.6502335 116.5790064  85.8670975  24.3502018
  80.1911163  24.2030668  43.7173748  79.8796177  25.0713730  43.4619379
  79.4388485  23.6279821  43.5773849  61.2098360  28.0101752  86.1574364
  61.7518520  27.8409481  86.9280243  60.7007790  27.2078538  86.0417843
  13.9126544   6.8812251  79.4382334  14.5688395   7.3607624  78.9325714
  14.1599898   7.0274752  80.3512859  31.5124035  52.5932693  95.2136135
  31.6633272  53.3902550  94.7054100  32.1686959  52.6251650  95.9096622
 113.4767467  63.6460669   0.8387730 112.6705724  63.9618333   0.4306099
 113.3948166  63.8993319   1.7582199 104.0150959  99.2221643  12.0017979
 104.9352390  99.2125990  12.2653744 103.5679275  99.6857597  12.7098534
  94.3254089   1.5107407  55.9184027  95.1249313   1.4977324  55.3922510
  93.6698532   1.9122098  55.3480530  93.0971146  28.1231809  88.8461304
  93.9897823  28.4679508  88.8688564  92.8541088  28.0266833  89.7669220
 111.0807323   2.8008235  89.5521641 111.4869595   2.0277506  89.1602898
 110.9270477   3.3907202  88.8141727  21.5149342  75.1649250   5.7241222
  22.0654809  74.3907537   5.6067154  20.8381402  75.0816466   5.0523731
  20.4600274  89.2558123   3.7102291  19.8769604  89.9937917   3.5323212
  20.8148324  89.0189077   2.8533623  81.4463806  19.6280372  56.6982508
  81.0351944  20.2856278  56.1372375  80.7313824  19.0400648  56.9417572
  91.1596489  26.5946889  80.4738903  91.7488575  27.3307800  80.6389141
  91.6172314  26.0629606  79.8226500 117.4183542  76.5459634   0.8377049
 117.7479917  75.6960811   1.1297199 116.4687807  76.4329626   0.7956383
   3.8877808  74.4042863   2.5555775   3.4914338  73.9617659   1.8050358
   4.3271576  75.1669349   2.1793530   0.7018315 110.1841928  14.8311398
   0.5744730 111.1328174  14.8425552   1.5583931 110.0526239  15.2376148
  12.8449761  82.9298426  15.4000065  12.0187508  82.8085543  15.8678314
  12.7413975  83.7647583  14.9434731  78.5449553  23.2035017  27.2339964
  78.2294273  23.2503986  28.1364799  79.3820190  23.6675572  27.2485018
  75.4466677  34.7251439  94.1892719  76.2929153  35.1204896  93.9799881
  75.5125332  34.4948387  95.1160145  84.4282150  29.5179558  58.2358646
  84.3906116  30.0515985  59.0296173  84.3371296  30.1467752  57.5199604
   6.7911374 103.5434200   1.1409256   7.0762764 102.7453615   0.6959221
   7.5791775 104.0844776   1.1907455  79.6375227  11.2847161  87.0255089
  80.2454567  10.6572533  87.4165821  79.3295527  10.8545280  86.2278080
  19.5330559  91.3255550   2.0422813  18.6469304  91.5655805   1.7713520
  20.1016652  91.7298819   1.3869640  97.4890405  96.4510585  28.8868115
  96.6090280  96.4935161  28.5126373  97.3487694  96.2073709  29.8017761
 113.3904839   9.4350958  67.8802252 113.9791870  10.1051772  67.5328732
 112.5155354   9.8105806  67.7817202 118.5293770  16.8537259  94.3950081
 118.3567810  15.9614241  94.6954060 117.7247047  17.1157134  93.9476871
 103.2101440  47.0935631  66.4062357 104.0921307  47.2345114  66.7504168
 102.7246571  46.7150784  67.1392298  44.2165410  99.5982935   1.1756870
  44.7524201  99.4119026   0.4047653  44.3683182 100.5263712   1.3541863
  96.5650082  29.6753669  59.6874523  96.9051743  30.5098724  60.0101233
  95.6839943  29.8807311  59.3746042   5.9920935  19.6359587  82.1526432
   5.3697543  18.9791608  82.4649620   5.4883818  20.4494548  82.1256161
  96.4106846  23.0103254  88.5777760  96.8323612  23.3745360  89.3560886
  96.3192368  23.7555456  87.9840469  99.4886780   4.5833835  90.3347683
  99.8511696   3.9161000  90.9174824  99.8246670   4.3530479  89.4685745
   7.4442231  86.5455319   6.1276981   8.1582867  86.5868570   5.4915783
   7.5553547  85.6976439   6.5577671  31.8116223  76.0749389   6.5453407
  30.9336888  76.0309936   6.1664936  31.7622220  76.7877485   7.1822807
   7.4813037   9.0375519  72.7743959   7.3517661   8.0999792  72.6315308
   7.7101760   9.1092533  73.7010622   8.0853419   8.8887972  60.6931305
   8.2974772   8.6859983  59.7820330   8.2703643   8.0786544  61.1681700
  72.0463866 110.9084505  76.4712715  72.7189940 110.5958005  77.0763111
  72.2908610 111.8158710  76.2894726  62.2799110  38.9498353  88.4567547
  62.6525402  38.1093025  88.1905079  62.8043032  39.6021795  87.9923248
 102.1559048  27.3806238  35.9430337 103.0382156  27.0235062  35.8419228
 101.7152405  26.7673588  36.5312171   1.9387584  24.5115733  70.7819510
   2.0378260  25.2301121  71.4065504   2.4428706  23.7922955  71.1624050
  10.9874301  11.9638610  92.0358276  10.1789908  12.4655330  92.1406460
  10.7466559  11.2395620  91.4581966 107.3033935  78.3955743  22.5875160
 108.1929666  78.0473425  22.6477310 107.3720390  79.2879655  22.9268715
  87.0533466  18.7149763  92.9240131  86.3569736  18.1580412  93.2720375
  87.8611183  18.2427454  93.1258583  95.9471130  11.5748835  80.1618767
  96.2815475  10.7690406  80.5555820  96.6687679  11.8942034  79.6201324
  16.0209595  81.1501648  57.7420208  15.7856404  80.3909685  58.2753822
  16.1185109  81.8643595  58.3718082   7.5215088  68.6816575   0.8743736
   8.2007348  68.0163016   0.9847137   7.8718316  69.4566824   1.3135120
 117.8385812  79.4846393   5.0623962 118.7421734  79.1708495   5.0982163
 117.3634750  78.7943174   4.5998261 112.2325611  26.3133526  63.5653114
 113.1739807  26.3774490  63.7261248 111.8294048  26.6472149  64.3667078
 114.6292496  18.2807624  50.4274797 114.9032497  18.5318696  49.5453787
 114.7273827  17.3288023  50.4468679 105.8004093  50.5134678  64.5295286
 105.0547123  50.1238346  64.0730715 106.4722252  50.6073046  63.8541842
  90.7092094  49.0191841  45.2902985  90.7396603  48.8850117  46.2375593
  91.3035679  49.7528505  45.1330853  17.1920066  11.7893815  76.8258715
  17.9832892  12.3120308  76.9560003  17.4068026  10.9332955  77.1962881
  45.5165625  25.6345034  85.6374836  45.9468889  25.7173538  86.4884758
  44.7522068  26.2074161  85.6988144 111.4003468  40.2553511  95.9270096
 110.7803345  40.9785318  96.0209084 110.8671474  39.5205784  95.6236362
  79.6009302  21.7097974  62.0455027  80.3666115  21.3018537  61.6411018
  78.8531923  21.2848377  61.6253519  17.7930789  14.9637592  88.2468033
  18.5015540  14.3267429  88.3390617  17.7650027  15.4146504  89.0906811
  80.8406258  37.6442885  91.2311363  80.7690334  36.7580628  91.5857029
  80.0235844  37.7766347  90.7503605  72.7184153  23.8131690  83.9273357
  72.7243328  24.4652343  83.2266140  71.8195724  23.8232422  84.2562962
  87.9576987  31.0748154   3.6137840  87.8450316  31.9193894   4.0499470
  88.0282133  30.4431493   4.3295071  12.7328639  29.2652011  88.6672020
  12.5087123  29.5722938  89.5456600  12.8990893  28.3288407  88.7759686
  95.6073380  40.3750229  82.1975994  96.4277267  40.2477837  82.6740646
  95.0442410  39.6604514  82.4951649 102.4511433  42.2214174  65.9008217
 101.8019009  42.5794220  65.2953863 102.0840073  42.3845339  66.7696381
  21.0809474  36.3718462  57.0134592  20.6040149  35.6340408  57.3934698
  20.7319693  36.4509034  56.1256599  15.8034949  45.5134487  81.6513348
  16.5977244  45.4378653  81.1224556  15.8722930  44.8034430  82.2896099
  14.0483718  46.1447430  64.5921564  14.9691348  46.2189245  64.3412971
  13.7174372  47.0422173  64.5567656 100.6542587  29.1382909  70.1950312
 100.9613037  28.2352519  70.1145649  99.9945259  29.1061211  70.8878136
 105.3889942  16.1990356  91.1392212 105.5390263  16.9536114  90.5697155
 105.8320141  15.4742002  90.6981182  96.5090942  46.8511963  93.3165836
  96.8254566  46.4157343  94.1081142  97.2978210  47.0057726  92.7967358
 100.6899834  38.8866925  78.0209303 101.5243053  38.6546826  77.6131201
 100.0490570  38.3165741  77.5961924 106.9149971  36.3752127  56.7391920
 107.8364468  36.6232109  56.8143749 106.5703011  36.9409418  56.0482740
  34.5302712 106.0246183  -0.2959755  34.5170056 105.2821590   0.3080246
  34.8542153 106.7556669   0.2301952 112.8383446  31.3864136  91.9781971
 112.2135353  31.9145298  92.4751282 113.0059338  30.6263280  92.5353527
  47.4742257 104.8968460   3.2851193  47.0755612 105.1187040   2.4436543
  47.1001183 105.5269529   3.9009449  88.1817150  17.5229228  76.0044098
  89.0689659  17.7932274  75.7678652  87.7430820  17.3805046  75.1656294
 115.8346653  43.3392429  86.0173607 116.7499542  43.6188936  86.0004807
 115.3586197  44.0979099  86.3550568  14.3378882  56.8213367  66.9794512
  13.4871440  56.3970757  67.0910835  14.1396289  57.6393366  66.5235996
  82.8008556  35.1563501  89.7692108  82.0882797  34.8313475  90.3195190
  82.3755836  35.4040527  88.9482212   2.5693564  18.6760294  61.1236429
   3.4714179  18.4689069  61.3678312   2.6459365  19.4354844  60.5460691
 103.6904812  28.3127427  90.8072090 104.3386364  28.1545043  91.4935589
 103.2877350  29.1476178  91.0459900   8.4931235  62.9371452  93.8229084
   8.5574965  62.9814434  92.8689003   7.8986792  62.2055483  93.9891338
 117.6816971 101.3089611   8.8537285 117.2755033 100.5613805   8.4151432
 116.9759828 101.9502784   8.9368984  98.0873585  68.1302404  86.0637093
  97.5785923  68.9402056  86.1002922  98.2257938  67.9763508  85.1291656
  85.9975529  30.1219630  94.8507977  85.1023006  29.7840142  94.8274326
  86.0282135  30.6646585  95.6386852 106.6951084  32.3108721  82.1201992
 106.3296318  33.0226398  82.6455975 107.4953175  32.6773930  81.7439461
  29.0583741  90.0782444  38.6791584  28.8650738  89.8882724  39.5971844
  29.2897164  91.0070278  38.6703369  89.8300266  19.8095822  93.3110237
  89.5098782  19.9616778  92.4218655  89.5896721  18.9025831  93.5002613
 117.2117424   8.6516380  63.4825850 117.3926640   8.7037843  62.5440836
 117.5490570   7.7949244  63.7442923  99.7222233  23.4316564  80.8702278
  98.9258957  23.9550018  80.9607792  99.4660759  22.5545168  81.1552620
  64.7391718  11.5820224  -0.0218895  64.0574473  11.9949204   0.5082008
  65.5260771  11.6289193   0.5210850  94.7972679  10.7182109  65.8264446
  95.4852581  11.0843611  66.3821793  95.2253723  10.0038505  65.3545856
  88.6636639  44.1249609  90.5620193  88.6182594  43.1688976  90.5728245
  88.2877159  44.3920898  91.4007950   5.5700051 105.9945442   4.1140530
   5.6310402 106.1201669   5.0610039   6.1031376 106.6982748   3.7442276
  50.3784691  95.5874278   8.8566849  50.8982502  96.3519384   8.6085197
  50.9732853  95.0543858   9.3842194  98.8683224  22.6277804  55.8636904
  99.6525574  23.1725144  55.9306049  98.7622070  22.4750304  54.9247360
 110.6517887  20.8569789  69.5992374 111.0777378  21.6975498  69.4312000
 111.2788105  20.3741407  70.1377058  36.0243165 111.5298559  10.0523350
  35.5100380 111.9273760  10.7550022  35.4320370 110.8926727   9.6530506
  36.5743577  86.3082768   5.6323978  36.1301648  85.5907346   5.1806709
  37.5062977  86.1152841   5.5300686  38.7484186  12.1551043  28.1273529
  39.2260760  11.9409043  28.9287254  38.9219683  11.4187009  27.5409863
 105.3609657  58.8435125  55.9259558 105.8546448  58.8536739  56.7459631
 105.7774925  59.5162344  55.3872681   8.4577023  97.0781042  15.7409451
   7.6099621  96.6501476  15.6208584   8.4550702  97.7965166  15.1084015
  85.4440212  71.0720873  88.0951691  85.8269787  70.5229568  88.7792873
  85.2644634  70.4674053  87.3752022   9.7054516  91.4458515   5.0645039
   9.6813523  90.5360581   4.7679779  10.2320134  91.4234688   5.8635399
  89.7792339  34.2780256  78.4871578  88.8570118  34.3912673  78.7172079
  89.8554993  33.3534384  78.2514572 104.1410906  94.2399074  14.5703480
 104.8232013  94.7396518  15.0189182 104.4048340  94.2470624  13.6502239
 110.8976078  50.6513405  85.5265522 109.9548912  50.6674147  85.6916332
 111.0347462  51.3203287  84.8558235  16.4051854  69.8489095  16.3455460
  16.4242302  70.7189085  15.9468338  17.1906983  69.8184849  16.8916866
 108.7049675  49.6260643  93.5994148 108.4676933  48.8896084  94.1629410
 108.7795830  50.3703403  94.1966724 108.1047344  17.1939695  66.3323736
 108.7107182  17.9253495  66.2136030 107.9607391  17.1533465  67.2778082
  41.3442170 104.5888855   3.4458801  41.2394749 103.7522031   2.9928753
  41.8863236 105.1138641   2.8570244  35.4985881  48.2176685  89.2718029
  34.5691037  48.2166529  89.0431309  35.7899427  49.1103458  89.0861511
  99.1293812  12.2891784  81.3328266  98.9168549  12.4127364  82.2579193
  98.5817814  12.9263151  80.8741093  23.4483181  90.4946114   9.6309540
  23.8062512  89.6597816   9.9329063  24.0455376  91.1534335   9.9852440
   6.1222319  12.8569400  45.8719730   5.5356936  13.3581054  46.4385748
   6.7392020  12.4408817  46.4740372  19.8833882 108.7929298  25.4990646
  19.9804722 108.7289764  26.4491722  19.0519082 109.2502119  25.3735039
  22.9403626  97.5452377  32.8968212  23.5666977  97.2964431  33.5765526
  23.3357464  97.2356703  32.0819065  35.5813633  97.8601886   4.6753189
  36.4332520  97.6842500   5.0747654  34.9500977  97.6986219   5.3764984
  43.3197056 100.3597643  15.5168983  44.0416180  99.7536089  15.6831905
  42.8470360 100.4030992  16.3481209  86.7843151  54.4193792  87.7014542
  86.2197399  53.6465740  87.6854515  87.5027084  54.2035198  87.1068478
 117.3118782  21.7777753  61.5001965 116.6971302  21.1434603  61.1314631
 117.6349258  21.3615680  62.2993517 106.5697670  45.2614021  89.4094658
 105.8136463  45.7861805  89.6723747 107.1675587  45.3121853  90.1553154
  16.9049393  84.7400023  26.4880917  17.0275532  85.4772379  27.0861504
  17.7933728  84.4642998  26.2624714  97.0026875  60.2003670  96.6564846
  97.8229618  60.6856680  96.7451572  96.6174793  60.5275774  95.8435917
  15.3144394 100.3113319   1.7341969  14.9139630  99.7985603   1.0321114
  14.9667107  99.9277116   2.5392696 106.7818832   4.4930881  80.9558487
 105.9715080   4.1969317  80.5413437 107.2810459   3.6903751  81.1065865
  85.1803017  57.1581602  58.6469936  86.0611534  57.2509050  59.0099335
  84.7268581  56.5825987  59.2629051  92.5704193  58.7414122  79.6174622
  92.2941208  59.5442820  80.0593853  93.3878803  58.4980392  80.0519180
  12.7855353  43.8574982  94.4936562  13.5390525  43.8974762  93.9047146
  12.3986869  42.9974604  94.3295860  20.5563979  34.9261808  88.0786896
  21.2845855  35.1920104  87.5171661  19.9014621  34.5787907  87.4732018
 109.5897293  46.0179234  81.4584446 108.8686371  46.6238165  81.2877083
 109.5674610  45.8798885  82.4053764   5.0088059  91.7058875   4.4020149
   4.2743908  91.7373540   3.7889263   4.8903977  90.8824922   4.8755428
   4.1424041  57.4549723  41.5087128   4.1678004  58.3689022  41.2252998
   5.0191836  57.1209717  41.3191652  89.3742085  68.4956789  81.4750099
  90.1440620  68.5245275  82.0431042  89.4864464  69.2383432  80.8816433
  30.8236634  98.8072015   8.0631706  30.9207665  97.8635885   7.9351303
  31.7097889  99.1549684   7.9627869 108.0421543 106.8510723  70.6765652
 108.0077267 106.6194916  69.7484398 107.1268749 106.9796944  70.9254456
  38.7323146  22.3572803  87.5576973  38.2712416  21.9742918  88.3039951
  38.1522612  22.2017598  86.8123245  50.7487904  96.2124683  26.6318676
  51.5856682  96.2171461  27.0964691  50.3821980  97.0824386  26.7899773
  53.9749575   3.9885193  75.2523422  53.5403013   4.7579771  75.6200981
  53.3213329   3.5988835  74.6716595  51.0781626  23.9043164  84.6767139
  51.5657191  24.5911121  85.1315022  50.7505755  24.3283010  83.8835144
   4.6332489  79.5120479  37.4655411   4.1173302  78.7470271  37.2109673
   4.4876133  80.1441695  36.7616627 113.3304882  43.3826876  77.6152706
 112.8340626  44.2010593  77.6229811 112.8028584  42.7874947  77.0827532
  26.9531874  47.1368074  66.9081497  27.2994666  47.8255367  66.3407135
  26.7620902  46.4107847  66.3143444  29.0936314 102.5536873  21.7161057
  29.2150055 101.9417335  22.4420616  29.5342003 102.1370794  20.9754536
 108.3112717  34.3525815  41.5377951 108.9553356  34.0673089  42.1859026
 108.7380791  34.2031765  40.6941462 116.4865667  91.7016341  16.2694618
 116.9723875  91.5830280  15.4532883 115.6761009  92.1366955  16.0047123
  29.6396958  89.3252994   3.9628765  29.1375386  89.1120531   4.7493908
  29.1603600  88.9020588   3.2506058  75.8474684  32.7013111  91.6679096
  75.3468561  32.5983095  90.8585835  75.2017975  32.5865269  92.3651695
  40.8009755  84.3397452   1.1944172  40.1444756  84.3804599   1.8898079
  41.0561406  85.2512886   1.0522530  81.0849190   6.5112031  46.5190649
  81.9519711   6.8135214  46.7893553  80.8984280   7.0028180  45.7192087
 100.7401848  55.0004148  80.4771805  99.8981857  54.8352242  80.9014225
 100.8045864  55.9545612  80.4361153 111.9235611  22.1440387  79.0336752
 112.2070312  21.6439009  78.2683372 112.2838688  21.6648245  79.7798443
 101.5900135  53.2489109  78.6440277 101.4802361  53.9195204  79.3181705
 102.5280857  53.0585003  78.6461210  71.7060757  44.5159340  84.7795391
  71.3693428  44.7174835  83.9064884  72.5523663  44.9614620  84.8185730
 110.7916641   2.3849459  76.0713768 110.3536892   3.1787676  76.3783836
 111.1051559   2.6080722  75.1949215  94.7557831  44.5022249  43.1593370
  93.8551331  44.3775654  43.4585476  95.0716591  45.2558136  43.6578894
 101.4346790  26.1702943  83.6825657 100.7898235  26.8535948  83.4995461
 101.9013214  26.4827824  84.4576931  91.0475254  21.9400716  79.7780895
  91.1892891  22.3077297  78.9057589  90.6132603  21.1023498  79.6172619
  15.4699551  95.6798174  11.8338749  15.4223572  95.2613880  10.9742901
  14.7242581  95.3223087  12.3159096 115.5280685  41.5369701  47.9417992
 115.7211113  42.2647238  48.5328436 114.6764755  41.7553282  47.5631857
 112.2389984  50.4023170  76.6456985 112.5978661  49.7792387  77.2775364
 112.9971600  50.9052277  76.3481712 108.7461090  34.9403262  94.1604233
 109.5219707  35.0900316  94.7006512 108.5750675  34.0020442  94.2416954
  15.7012706   8.4853369  73.7896490  16.5511279   8.0758518  73.9518023
  15.2385096   7.8627253  73.2289028 110.3119469  27.2931218  81.1158180
 109.6400356  27.9209828  81.3814354 109.8615456  26.4485312  81.1097717
  95.2009678  58.9548063  83.1940174  95.7646465  58.4994078  83.8193989
  94.4507504  59.2433882  83.7137508  23.7375103 107.5390388  27.6313946
  24.2244755 106.7408420  27.4265263  24.1682850 108.2212593  27.1163723
 100.9263039  59.9666548  93.6148453 101.6286659  60.5586624  93.8840008
 100.2134037  60.5467510  93.3474445  16.3454377  83.1847359  11.6343185
  17.0373379  83.8101889  11.8495342  16.7915951  82.4924733  11.1465141
  94.7779560  97.5271130  61.5731668  95.5149746  97.1223927  62.0305872
  94.5712948  96.9170284  60.8651304  64.4971197   3.1506736   0.2233288
  64.4438284   2.7018172  -0.6204250  65.1275843   2.6371867   0.7283852
 104.4720268  51.9766283  82.4506569 103.6272049  52.3131180  82.1518612
 104.2633152  51.4658117  83.2327938 102.9347801  68.4511900  90.7833004
 102.2231388  68.9114952  90.3384304 102.6865005  68.4626436  91.7076683
  13.1433903  88.2791211  23.8136265  13.6587464  87.7238990  24.3987534
  12.9807984  89.0748955  24.3201229   4.5266108  70.1550007  87.5485611
   4.9183898  70.0983334  88.4200668   3.6655574  70.5454922  87.6979637
  35.3676449 105.3470661  12.8349754  35.5998646 106.2692072  12.7255795
  34.7865044 105.1574136  12.0984051  79.4520491  15.5661828   5.4886505
  79.1349524  16.4690215   5.5124065  80.3993052  15.6478650   5.3779289
  48.7156790   7.7944333   3.8674519  47.8775328   7.5075394   4.2299912
  48.4956091   8.5527903   3.3264324  -0.2067991  76.0013533  68.7794018
   0.6896071  76.0000801  69.1150999  -0.1112409  75.8403158  67.8406954
  76.3785839  68.7427568  67.5568581  75.5674171  69.1161966  67.2122049
  76.6158676  69.3165779  68.2853222  27.7839999  54.3227482  72.9149723
  27.0463900  54.4231749  72.3132420  28.3614306  53.6932278  72.4830961
   7.3520808  31.3990450  95.8202839   7.4795203  30.5894279  95.3258038
   8.1814437  31.8682337  95.7294655   8.2925277  66.2866068  52.6839590
   8.8136153  65.7508135  53.2819748   8.2535414  67.1457052  53.1042719
  34.6413647  66.0238101  16.5762398  34.1031682  65.4122730  16.0736534
  35.4632508  66.0762979  16.0884163   0.9214644  56.6182327  83.2233810
   0.5094867  56.1565304  83.9536858   1.5665297  55.9989738  82.8818512
  83.3079433  69.6203756  84.9521828  83.1960773  69.3342924  84.0456104
  84.2554092  69.6198177  85.0883389  35.6932324   8.1522471  12.8826782
  36.3577002   8.1135947  13.5705921  35.4053848   7.2455508  12.7764961
  94.2879868  66.2679529  88.3714676  93.9261055  66.0490465  87.5127697
  95.2358532  66.2014198  88.2559586  85.2426815  34.7100353  95.5908775
  85.5587292  34.5143318  96.4729500  86.0049820  34.5751524  95.0279140
  62.2415482 103.7585642   4.8917267  61.9144188 104.0590955   4.0438435
  61.9195782 102.8603698   4.9679730  34.8395114  61.7918253  63.2910967
  34.1661887  61.1933708  62.9674959  34.6236758  62.6341438  62.8909206
  24.8019539 101.4211227  11.1859295  24.9596917 101.6439773  10.2684948
  25.6104313 100.9955932  11.4714500  27.7715926  89.4168282  57.4879074
  27.5869803  89.0584373  56.6197443  27.3327212  88.8183022  58.0923891
  80.8639353  26.9592721   1.0546658  80.1071757  27.0828778   0.4817173
  81.0250872  26.0158688   1.0384247   6.6833834  83.2738113  92.8447056
   7.6032309  83.0905533  92.6535797   6.6458468  84.2242050  92.9523277
  83.2946032   9.5416505  34.0988895  83.8174647   9.4318444  34.8931095
  82.6000803   8.8876111  34.1770336  52.8533667  17.0350415   3.0115101
  53.3411043  16.8142134   3.8049671  53.0495661  16.3221890   2.4035809
  11.2018542  71.3638449  86.3898087  10.6355719  72.1289349  86.2888432
  11.6467528  71.2821579  85.5462360 116.5578175  28.9590216  92.7219486
 117.2157478  29.4112897  93.2499790 117.0558739  28.3144188  92.2192955
  73.3660620  10.6174189  11.7843601  73.8935297   9.9981648  12.2888825
  72.6942652  10.0768430  11.3687870 110.7507133  54.4166231  92.8085995
 111.4384842  54.3208265  93.4673977 109.9508762  54.1391611  93.2552719
  61.1672133   3.5440976  30.0413677  60.4018515   2.9693133  30.0327656
  61.8403261   3.0537230  29.5694801  94.5208549  57.1580219  68.4392548
  94.4357681  56.5146923  69.1428995  93.6296177  57.4770975  68.2973957
  89.8885822  47.0827055  85.2916718  90.4156017  46.3794756  84.9122620
  90.5255699  47.6562071  85.7177734 117.2299671  48.3867502  73.5038328
 116.3115311  48.1272745  73.4305668 117.3903751  48.4364510  74.4461870
 102.3616409  28.5592890  59.0342331 102.2768211  28.3114338  59.9548912
 102.7148151  27.7786040  58.6075783  85.4828930  70.4981709  92.4999523
  86.2576675  70.0698614  92.8639603  85.5274105  70.3162003  91.5612602
 100.7995510  43.5838032  83.6473656 100.4687119  43.4842634  82.7546883
 101.6493893  43.1434345  83.6383247  85.5382919  75.4970503  89.0458584
  86.3652992  75.9070063  89.2993069  85.4756069  74.7204828  89.6019650
 100.9715080  61.2574339  58.8298035 100.7302475  62.1355009  59.1248083
 101.7517662  61.3914776  58.2917976  82.7520752  80.5853271  81.8328285
  82.4856949  80.1625347  81.0164261  83.3229637  81.3021088  81.5561771
  77.6712513  70.3297091  73.0389881  77.4657822  69.7309923  72.3209667
  78.1084728  71.0690928  72.6166391   8.4259259  87.1205975  11.2904617
   8.1853997  86.3492848  11.8037388   8.2360112  86.8745877  10.3851196
  81.8270874  18.7977850  91.4732552  81.3094234  18.0495358  91.7705441
  81.9778061  18.6302972  90.5429554 110.4772663  60.4106092  78.7355661
 110.6306076  59.4891071  78.5268784 111.1532116  60.8821344  78.2487488
 111.3876534  65.1690769  47.9444838 110.4474926  65.0136375  47.8540945
 111.6488075  64.6301889  48.6912346  66.6177576  16.5308434  14.0610001
  66.3262766  16.3247449  13.1728527  67.4931830  16.9005067  13.9460442
  62.5269335  10.3996188  17.5788853  62.5389212  10.3761441  16.6220448
  63.3574122  10.8106858  17.8188011  93.7090111  76.4019728  83.9156055
  94.3298626  75.9366465  83.3550262  94.0983963  77.2679281  84.0369987
 114.1998100  56.1632919  46.7313337 114.2025852  55.8542919  45.8253860
 113.8339424  55.4340982  47.2319841  97.6624107  56.2461901  47.8058624
  97.2420979  56.8289232  48.4383059  97.7119923  56.7619896  47.0010519
  34.5613133 100.7106878   3.8739082  33.7588727 100.2154733   3.7093613
  35.1415574 100.0879337   4.3117687   3.7362359  15.9373290   4.4179413
   4.2591928  15.5210645   5.1031086   3.9936707  16.8588073   4.4466660
   6.3416420  77.8080513  14.9004242   5.7753216  78.4890916  14.5375320
   5.7965218  77.3643638  15.5502102  14.1065364  63.7362957  54.3165207
  13.8787513  62.9858971  54.8653841  15.0520282  63.6607027  54.1878605
 107.1037292  69.3837690  52.1336937 106.7386532  69.7886848  52.9204559
 106.3516712  68.9786243  51.7018366  33.5957163  20.5760104   9.1935608
  33.5115689  20.9225375  10.0818512  32.7096003  20.6201989   8.8342926
  21.5384900 106.2387945   1.6075012  20.6728016 105.9472944   1.8935940
  21.4346730 106.4160444   0.6726048   5.0082259  15.3283691  85.1056290
   5.7699351  15.3433049  85.6851196   4.9989466  16.1952567  84.6998596
  85.1060104  69.9771643  82.3703766  85.4881191  69.2290974  82.8293133
  85.1459026  69.7362089  81.4448643  34.2203270  76.1105634  18.0007622
  34.1607701  76.4265062  18.9023563  35.0065362  76.5301229  17.6513931
 108.1735897  45.1993608  57.3815584 107.4579430  45.2895117  58.0108023
 108.5427952  44.3346548  57.5610018 104.1594315  84.7206688  65.7111216
 104.6848392  83.9675903  65.9813690 103.7908649  84.4645596  64.8656607
  12.5039820  63.3434916  52.0237780  12.9878955  62.5750732  52.3264265
  12.8902392  64.0748549  52.5055933  93.1090086  45.0455911   6.2194130
  93.6130446  45.8407742   6.0466358  93.5827654  44.6110875   6.9286320
 109.7044563  48.0059481  64.5015287 109.8783875  48.9452696  64.5620203
 110.5565357  47.5947475  64.6467686 114.8982620  63.8318777  75.8434296
 115.2417564  63.8569546  76.7365217 115.1601791  64.6700239  75.4624510
  52.5888556  21.9290215   8.3843300  51.9409197  21.2445409   8.2173130
  52.5186747  22.5143964   7.6302406 110.0400543  30.4345107  72.9638624
 110.8928394  30.6976581  73.3098841 109.6125698  29.9878049  73.6945772
 103.0203629  70.0320911  71.2867022 103.3991718  70.4188919  70.4973221
 103.7750244  69.8259783  71.8382835  14.4124179  59.2947054  91.7724609
  13.8053756  58.5630751  91.6608715  14.8598056  59.1108751  92.5984669
  26.7910515 102.5585844   4.5243713  26.1743676 102.3731472   5.2325699
  26.5014397 103.3986093   4.1684029  86.0637283  92.0969868  78.3076525
  85.3832150  92.7205372  78.5612345  86.7415619  92.6352692  77.8989649
   6.8599276  98.7994289  57.7339602   6.0927253  98.3272171  57.4104691
   7.1329455  98.3098412  58.5098457 111.4292145  69.2295361  76.3178968
 111.3098907  69.0752411  77.2550154 112.3242283  68.9407253  76.1396599
 116.5757084  41.7300749  94.3270493 115.8575439  42.3628664  94.3204975
 117.2330856  42.1198130  94.9034023  39.5904004  85.7863929   5.3852913
  40.3711831  85.4563309   4.9406788  39.5218312  85.2525355   6.1768314
  37.2425227  67.3428822  75.9115314  37.6311641  67.8106356  75.1723433
  37.8115325  66.5840816  76.0406780 105.4639929  36.4759404  43.7346336
 106.3909357  36.3570363  43.5275909 105.3625983  36.0948617  44.6068356
  85.8876705  69.2149782  86.2090111  85.9662437  68.2627583  86.1512375
  86.7693329  69.5150805  86.4300346 116.3547802  97.0090294  75.9830999
 117.1806526  96.7064571  76.3607454 116.5708923  97.2241306  75.0757647
  42.3645358  37.1942210  90.6188965  42.7495150  38.0434537  90.4024982
  42.8310351  36.5708923  90.0620556 116.1781597  31.8127179  86.0248089
 116.3301945  31.8403053  86.9694519 117.0443535  31.6600251  85.6471539
  85.8338165  72.9070425  79.8982954  85.6846237  72.6740503  78.9819479
  84.9669456  72.8603411  80.3015041  31.1713158  88.5230185   1.7079422
  31.8267952  88.8427235   2.3279163  30.6252896  87.9282953   2.2221348
  91.4413851  50.2025372   1.2841198  91.9763869  50.9947640   1.3329575
  91.6177290  49.8477799   0.4127476  58.8414019  14.2809111  12.5078175
  58.8265818  13.9711005  13.4133694  58.0601710  14.8283822  12.4291679
   8.2934623  63.7368298  61.6777372   7.9984813  62.8488111  61.8793201
   7.5696616  64.1235924  61.1850357 111.4809227  90.1980114  92.9638958
 111.4802361  89.3204880  92.5815582 112.0717144  90.7024670  92.4046707
  96.2383955  36.3360650  10.3451225  96.6994684  35.5094106  10.2027103
  96.3053244  36.7949826   9.5077774  86.8958378  69.5507288  64.7868919
  85.9827805  69.2643499  64.8102951  87.3091698  68.9805031  64.1386366
  92.8008478   4.4207532  29.3254063  93.1904524   4.7673756  28.5227272
  93.5433787   4.0804393  29.8244831  10.1542031 107.8043796   4.5753834
  10.4691731 108.2755329   3.8040039  10.8400380 107.1629144   4.7608349
 117.6631737  98.9727974  94.8056507 117.5950718  99.3867874  95.6659985
 118.6046124  98.8951111  94.6510792 105.7286930  60.6597710  84.4985867
 105.5085373  61.5253448  84.8429012 106.3058281  60.2785063  85.1602364
  16.6652255  82.8136158  64.5475531  15.9834533  83.4013748  64.8730659
  17.4786238  83.3060455  64.6577549  90.9110737  40.5989408  89.7781849
  91.0291195  41.4123344  89.2875862  90.0543880  40.6926680  90.1947594
 111.5713215 104.7629356  73.2166004 112.4173355 104.6623325  73.6529207
 110.9810257 104.1874695  73.7030411  -0.1431764  70.8110382   9.9756786
   0.5949627  70.5811145  10.5400536  -0.2082170  71.7636754  10.0426266
  20.5039250  94.4246961   6.6051456  21.3825261  94.1682650   6.3248989
  19.9802910  94.3998648   5.8042595  89.3004894  66.5096807  71.6430759
  89.0251350  65.6474066  71.3318014  88.4819889  66.9698238  71.8289948
 114.7920036  51.9182873  88.0638790 115.5519485  51.3785410  87.8461742
 115.1223373  52.5508022  88.7018776  79.6227473  23.8823039  23.4434578
  80.0916403  23.1178004  23.1089375  78.8279265  23.9272553  22.9119751
   0.2056937  56.0853767  41.8044996   0.6969790  55.3489685  41.4403963
   0.2629428  56.7663097  41.1342144 109.8369980  39.5346284  74.7761440
 110.1576996  39.1810441  73.9464712 108.9131546  39.2854357  74.8015690
 114.6194553  56.1453962  56.3773298 113.9963245  56.3546896  55.6815338
 115.4758930  56.3474131  56.0005903 114.1475201 101.6551876  73.7581491
 114.5792389 101.9391060  72.9523945 114.7176743 100.9698677  74.1066933
  11.7972808  54.2628145  78.8322830  12.4807124  53.7606287  79.2760944
  11.0839515  54.3110275  79.4687271  87.4897385  46.6582060  53.2152367
  87.1956062  47.4005175  53.7431479  88.3429337  46.4265060  53.5821247
 110.0977421  78.1407499  67.2873878 111.0444069  78.0480099  67.3943949
 109.7877216  78.4360456  68.1434965  91.0072422  52.1503782  92.1440887
  90.3260994  52.7942848  91.9500351  91.0078716  51.5664244  91.3856506
  43.9026677  66.3329710   8.3276627  43.7871109  65.5125459   7.8483078
  43.5064923  66.1682691   9.1833183  10.8041989  89.6805622   2.8908608
  11.1300599  89.4381811   3.7576363  11.2102639  89.0490557   2.2971127
  89.8165035  22.4507785  74.4730902  89.1701698  23.1139994  74.7152138
  90.6142616  22.9482198  74.2932081   4.4397406  56.8796635  78.3739901
   3.6285548  56.9794416  77.8757477   4.2651038  56.1538696  78.9731169
 109.5238018  62.1026897  88.7709713 109.7957897  62.8112268  89.3542671
 110.2155209  62.0569658  88.1109238  86.7414492  21.8546063   2.0755074
  87.2524660  21.0499102   2.1624634  87.2105139  22.3661429   1.4163086
  69.7506189  73.4763479  89.7931576  69.5864439  73.9496136  90.6088161
  69.0251493  72.8554964  89.7262955  28.2722603 107.5263836   7.7598736
  28.5954224 107.2610094   6.8988392  28.2721268 108.4831526   7.7312061
 115.9912014  83.0747509  92.4239254 116.3746643  82.3668003  92.9415989
 116.5353680  83.8372421  92.6207256 105.8067417  78.0505228  86.3980675
 106.0223007  78.6435890  85.6783199 106.5634632  77.4679756  86.4632130
  97.0396614  68.9037800  71.8111897  96.4159393  69.5720673  71.5273094
  96.5079212  68.1178713  71.9369936 101.0510731  40.8375025  79.6573877
 100.6075478  40.1044703  79.2305565 100.6764412  40.8642673  80.5378246
   5.0616412  71.1626911  93.8984489   4.3818812  71.0442305  94.5618725
   5.8410697  70.7580996  94.2792702  12.2602706  66.0667801  76.2033272
  12.6855807  66.1611080  77.0556450  11.9197802  65.1721859  76.2032557
  95.1509476  53.2811022  82.7341366  94.2764759  52.9772472  82.4908066
  95.4193020  52.6959801  83.4425545 109.7523594  87.1589565  60.8369970
 109.3781281  87.1564007  61.7180061 110.1948261  86.3134575  60.7622576
  24.2885737  31.5866351  86.7348194  25.1817946  31.3038492  86.9308186
  24.2096572  31.4902902  85.7857609  87.1511381   4.4236285  28.1165287
  87.6927584   4.5014340  27.3311493  87.7098006   3.9717728  28.7489483
  88.4634781  69.1836882  87.1001816  89.0797329  69.8711252  86.8474102
  88.9038944  68.7163925  87.8100395 105.0524330  75.2483749  87.9588413
 105.3126812  75.7258034  87.1710873 104.3041515  74.7194719  87.6821232
  20.0855975  80.5696201  80.2409554  19.4646029  80.1140118  80.8093071
  19.5541148  81.2139034  79.7733450  97.5100517  36.6237307  82.3328686
  98.2612896  37.0231342  81.8942833  96.7486191  37.0502043  81.9397163
  37.2713124  83.3207871  18.4872696  36.5750538  83.7826325  18.0201981
  37.4593102  83.8743307  19.2452118  95.2998257  39.8326373  91.0431671
  94.5938492  40.2794838  90.5760956  95.4373360  40.3596115  91.8303299
 111.0924053 104.2453957  34.4722271 110.2631378 104.4902992  34.0616441
 111.0675621 104.6660423  35.3316832  18.2093768  54.3956900  77.3691416
  17.8861766  54.9565554  76.6640091  17.8757815  53.5245991  77.1543074
  92.0301533  36.5169764  86.4399624  92.1163273  37.1266103  87.1728706
  92.7358341  36.7611217  85.8410931   4.2469172  69.9978638  67.4162960
   4.7106986  69.2189789  67.7236557   3.3586364  69.6913385  67.2339773
 101.4677143  47.0336628  57.5493526 102.3767662  47.1718836  57.8153467
 101.3022232  46.1090326  57.7334881  76.6222304  28.3465726   1.4508984
  76.3480681  28.7340791   2.2821018  76.2423342  27.4680287   1.4593479
  36.1841427 106.5669538   5.6231091  35.4598843 106.7840101   6.2101147
  36.5724980 105.7789041   6.0030911 115.5402088  64.6485472  52.6256037
 114.6656990  64.9806404  52.8284931 115.9003925  65.2843809  52.0073605
 102.3577404  45.2166462  91.9507980 103.1004906  44.9485922  91.4097786
 101.5918732  45.0705528  91.3955212  30.1621203  97.9437351  90.3372002
  29.5016436  98.1395054  89.6726227  30.5462889  98.7940311  90.5508423
  63.9446848  13.6161715  18.5825989  64.5108526  14.1042239  17.9846928
  64.2955034  12.7256448  18.5713169  89.6675014  65.0320768  62.0498276
  90.4234791  65.0216818  62.6368713  88.9239407  64.8172235  62.6130247
  49.0606611  30.9344537  43.8090107  49.2508429  30.2095277  44.4044563
  49.8830813  31.4210660  43.7537262  13.5248523  33.9350319  71.8654013
  12.9952292  34.7189474  71.7197561  14.2797713  34.0452003  71.2873077
  10.1427703  52.6025105  92.3200035  10.9155516  52.6702976  91.7592430
  10.4958873  52.5303316  93.2067490 104.0521830  41.4073331   4.0467045
 104.7023504  41.3200719   3.3496353 103.8085764  42.3329026   4.0325233
  90.7282352  93.3353996  85.7968521  91.1669636  94.1614914  86.0001278
  91.1059761  92.7060699  86.4112568  34.6838700  98.8552000  16.5123722
  33.7550770  99.0099098  16.6845104  34.7224938  98.6427881  15.5798409
  80.6922453  29.3829591  10.8108971  80.2340239  30.1251275  11.2051556
  80.3040522  28.6133057  11.2270424 112.3390579  76.0232115  77.1920443
 112.1027851  75.8029079  78.0930853 111.5476227  76.4187479  76.8267822
 100.8078766  90.1075459  91.4549255 100.3076172  89.6107006  92.1023273
 101.4630890  89.4888306  91.1322594  58.8240927   2.1442515  13.7608120
  57.9346197   2.3661763  14.0361664  59.2873972   1.9555575  14.5768902
 114.6003819  31.8789411  72.1171665 114.8661995  31.4904618  72.9506254
 114.1772461  31.1629415  71.6433144 108.2925320  49.4031763  88.8359070
 107.4018764  49.6624756  89.0719700 108.7553310  49.3475676  89.6719456
 107.1833515  67.5650215  92.9218578 106.7580986  66.8425322  93.3838177
 107.4871731  67.1784019  92.1006107 106.2136078  98.5210228  94.9529743
 105.6611919  97.7397823  94.9799156 106.7631340  98.3992100  94.1787529
  54.0033549   6.1342675  14.0003273  54.6819990   6.8058974  13.9326164
  53.9986914   5.7110650  13.1417820  90.4481602  67.7780676  88.5617447
  90.8736706  67.0438862  89.0046215  90.5706120  67.5989294  87.6294613
   5.1342349  52.6406574  60.0077915   4.2917876  53.0299997  59.7734118
   4.9753051  52.2151518  60.8503580 110.4336262  18.2841909  78.4683323
 110.0115490  18.0227423  77.6499605 109.7280216  18.6660647  78.9903831
  14.3106209  99.8932745  10.7621643  15.2568947  99.7988559  10.6532356
  14.0056454 100.2347805   9.9215672 107.2295380  64.8276043  79.4077969
 106.9860744  64.6719599  78.4952593 106.4886093  65.3101587  79.7744036
 100.4996204  78.1374073  88.0853653 100.3573608  78.6567450  87.2939873
  99.7752190  77.5117922  88.0947304  93.4901428  50.2259541  49.4147491
  93.6019707  51.1764574  49.3982315  92.5417614  50.0963259  49.4145012
  19.1175990  43.1871843  82.9859638  19.9107985  43.6367798  82.6945305
  18.6693625  43.8267756  83.5393524 104.1030884  83.6610222  96.4415550
 104.0709972  83.7407684  95.4882145 104.9823284  83.9570713  96.6772079
 114.2987919  58.7360620  92.8089142 114.3044281  59.0182686  91.8942833
 113.5811329  58.1047487  92.8603649 114.1905212  35.8119631  68.9713287
 114.9680138  35.2653694  68.8574028 114.4658947  36.6827917  68.6848640
  61.7391413  14.7768170  44.3907043  61.4571017  14.9658353  43.4957478
  61.0394114  15.1278169  44.9415276   2.5331263  40.2889013  77.8978443
   3.1074385  40.1255274  77.1497059   2.6406626  41.2218237  78.0831099
   0.1572280  61.3570881  73.6543512   0.8800654  61.9567108  73.4694433
   0.5804209  60.5129957  73.8113308 109.2504883  54.2931890  82.3413277
 109.3880558  53.3610344  82.5098419 108.5995865  54.5604038  82.9902840
  90.7173824  29.4291449  69.3893576  91.1949062  29.7643733  70.1481867
  90.1357174  30.1460743  69.1365528   6.7665725  46.5940380  90.8308220
   7.2927432  47.0450068  91.4911175   5.9644370  46.3474035  91.2912560
  30.6748360   0.8630521  19.5673058  30.1112765   1.5979916  19.3254349
  30.4214972   0.1599938  18.9691803 114.0949726  22.7579713  70.1750946
 114.4552708  22.7245522  71.0612631 114.8608589  22.8507948  69.6084929
 100.6928444  46.9731474  80.8357430 100.7519627  47.0642424  81.7867661
 101.4726925  47.4178362  80.5036068 114.0175915  30.2582693  78.9482927
 113.9432621  30.1386738  78.0015087 113.4256935  29.6040082  79.3195534
  70.7951641  92.8032303  93.9910889  70.1155472  93.3920479  93.6629868
  70.8699703  93.0182838  94.9208164  50.2899950  11.6630370   0.7141754
  49.5777529  12.2122342   1.0417912  50.3886717  11.9203812  -0.2024868
  90.9410000  53.4434652  96.5681648  90.9567833  54.1909504  95.9704685
  90.4946709  52.7535725  96.0771751  24.7365510  90.7469084   4.8515770
  24.2836606  91.0058166   5.6541321  24.1947495  91.1004712   4.1461155
  62.7798861  11.6336591   3.9945480  63.5874670  12.1102959   4.1865513
  62.8682726  10.8098275   4.4738457   0.6798606  47.4324894  87.4868965
   1.4469485  46.8721724  87.6045799   1.0386805  48.2732630  87.2030258
  56.8584650  11.1781651  27.6000378  57.3864096  11.8164832  27.1204063
  55.9893721  11.5760571  27.6509258  62.6266878   0.6359870   2.0571873
  62.8098601   0.0812060   2.8154060  63.2739657   0.3702409   1.4040062
  11.4674907  89.9188519  73.8582897  11.8397670  90.6598949  74.3363047
  12.2069793  89.3269157  73.7204313 107.7772045  44.5741415  77.6062489
 107.8727436  45.2783680  78.2474756 107.8779411  45.0068998  76.7584276
 114.2420959  64.3391800  67.2481108 114.5016289  63.8339663  66.4776325
 113.2933903  64.4343662  67.1636868  89.8875826  28.1696755   2.6285431
  89.7942274  29.0456635   2.2541592  88.9894312  27.8828294   2.7937099
  35.4634320  83.5959484  26.5980026  34.7396695  83.7274291  25.9855434
  35.1653611  84.0022995  27.4118015 102.4613190 103.7642288  69.0322113
 102.6715851 104.1460705  68.1800270 101.5824127 104.0880203  69.2294598
  19.0204959  84.8768425  63.7726068  18.7474017  85.7916355  63.7033796
  19.4819026  84.7019005  62.9524040  47.2917002  27.0678098  11.0378143
  47.9115885  27.6208646  10.5623219  47.7255076  26.8832642  11.8708775
  95.2993298  83.2148933  86.8511963  95.5693245  84.1059685  86.6291237
  96.1041451  82.7863598  87.1425247 107.0469856  75.5190754  57.5579691
 106.6790295  75.9881544  58.3068419 107.0886135  74.6065235  57.8438902
  31.2388646 108.1310178  25.8407471  31.2553345 109.0191366  26.1973927
  31.3068902 108.2519438  24.8936531  77.0489454  72.0946836  81.0638046
  76.4120293  72.5841141  81.5844059  76.8842649  72.3709345  80.1622486
  95.6547832  38.5579538  65.2441263  96.2778568  37.9798412  65.6843376
  95.3081799  38.0320883  64.5233154  47.3334824 108.3840944  24.3611118
  47.8673207 107.8660251  24.9634811  46.5617405 107.8418209  24.1980717
  96.0084248  46.6798925  89.4156837  95.5891800  46.3242292  88.6321259
  96.2280655  47.5816250  89.1814423  83.4272671  78.5503435  91.7745972
  83.9412594  78.6990166  90.9809113  83.2327461  79.4285297  92.1019840
  86.9271010   6.0327250   5.2372810  87.0451754   6.4047057   6.1113045
  86.5305536   5.1756198   5.3933308  65.2541464   2.8785331   3.5762379
  64.4669073   2.4631745   3.2241604  65.1045912   2.9130799   4.5210526
  83.0426138   2.9881245   7.4354336  83.2350367   2.1824366   7.9150841
  82.2217482   2.8046233   6.9785473   1.8937813   4.9233394  86.7933941
   1.4740025   5.7235675  86.4777184   1.7645585   4.2904143  86.0870361
   4.6802096  68.4802532  93.2680130   4.9747901  69.1265774  92.6263618
   3.7621932  68.7006474  93.4258556  15.1776557  88.6463833  51.1291552
  14.3230204  88.7185574  51.5541458  15.1412349  89.2764473  50.4094791
  75.5843466  42.0350129  31.0866138  76.3512915  41.4931638  31.2721417
  75.4257792  42.5124890  31.9009182  22.0081000  94.3168640  72.5994062
  22.4866824  95.0743675  72.9361105  22.6498370  93.8444996  72.0690584
   0.4271273  82.3919678  61.2100124   1.1712699  82.9939747  61.2184954
   0.8233218  81.5210247  61.2371159  54.1723650   8.1113965   4.1360828
  54.1407316   7.2692830   4.5900414  53.3675879   8.5567338   4.4011089
  58.6753195   1.6102464   0.8007404  59.2925757   1.6588837   0.0707695
  58.2734316   2.4783999   0.8328316 109.4537449  92.9181480  91.3634872
 109.7033596  92.2103119  90.7694435 109.6319389  92.5712585  92.2376442
   7.1088271  56.9551945  54.2949057   8.0635981  57.0210886  54.3123198
   6.8994479  56.3270617  54.9861670 112.1765249  30.3104836  25.1564953
 113.0557650  30.6527573  25.3178284 112.3042124  29.3695599  25.0357506
  94.8767775  41.1085851   5.3889725  95.1852911  41.3161713   6.2709972
  94.0052241  41.5014893   5.3414318  32.7218281  72.0028593  10.0051853
  33.2887398  72.6872505  10.3607819  33.2326161  71.1982943  10.0946209
 110.0719070  97.6429176  82.4807167 110.8512878  97.8708267  82.9875183
 109.6255493  98.4777832  82.3393154  21.9973616  60.4479027  87.5661850
  21.1651091  60.5803871  88.0200958  21.7617373  60.4135895  86.6390800
   4.5780616  74.0639353  67.9045868   5.2393870  73.8024664  67.2638702
   5.0787215  74.4619179  68.6167574  42.3648756  29.8503930  11.0749123
  42.2878950  28.9447362  10.7747719  42.0311945  29.8346192  11.9719288
  73.9745825   5.4212291   5.9231731  74.5649260   4.7301728   5.6228897
  73.9428061   5.3128154   6.8736813 101.5152645  85.6715965  90.8143711
 101.0865974  85.1865005  90.1092815 102.4482059  85.6229019  90.6058216
  94.9122524  96.1585712  59.3654013  95.8292580  96.0634995  59.1079283
  94.4685650  96.4487934  58.5684395 105.6339073 108.5405064  94.4287777
 104.7035789 108.6659908  94.6158028 105.6493950 108.0729961  93.5936642
  12.4750571  83.4731674  72.1984291  11.7550616  83.0254459  71.7541552
  13.2070784  82.8585243  72.1475506  28.9907776 107.2224666  17.8234741
  28.8121830 108.1628324  17.8165791  29.8003136 107.1287300  17.3213741
  76.8547951 101.5915586  -0.0596645  77.6073205 101.0094215   0.0454876
  76.0938488 101.0233452   0.0600788  63.1293774  94.5093632  77.2033787
  63.3792257  94.5447922  78.1267166  62.2679424  94.9255276  77.1722078
  93.1822699  22.1639973  17.7351067  93.3156222  22.8005654  17.0328018
  93.0459517  21.3321168  17.2816441  91.8936175  39.3081815  57.6682636
  92.6078814  38.9881284  57.1172306  91.6814249  40.1696259  57.3089287
  13.2029681  66.2807226  92.5132465  13.3848719  66.8273830  93.2776451
  13.4230857  65.3930473  92.7957726 103.7214661  74.0697050  82.3502350
 103.1418133  74.2855024  81.6197205 103.1366825  73.9861488  83.1034088
  64.2876148  93.5194874  94.7738171  64.9745941  93.6993790  94.1320038
  64.6836948  93.7401485  95.6168270  99.8682785  31.1761689  59.8356247
  99.7136211  30.2684879  59.5740271 100.7464314  31.1693716  60.2164459
  12.5518565  70.8763504  94.2042732  13.4242968  71.1592817  93.9303684
  12.2307162  70.3485250  93.4731770 112.7617073  67.3679161  96.0322952
 113.4401321  67.4743366  95.3654861 111.9385624  67.4761581  95.5559063
  10.3454261  54.6564198  68.7676191   9.4935565  54.4909286  69.1715479
  10.9719329  54.5707130  69.4862080  84.4757652  73.4098196  90.9386158
  83.9092255  72.6449871  90.8371067  85.3447533  73.0439711  91.1036777
  84.8310869  15.0661094   5.8648941  84.7771948  15.7929332   6.4854214
  84.2124575  14.4176966   6.2011883 101.8670082  86.0332489  84.6359348
 101.4566231  86.7743015  85.0816441 101.3080502  85.8714390  83.8759232
  60.8831518   9.4115407   1.1760494  61.7202013   8.9487893   1.2139961
  60.4674071   9.2239577   2.0175907  96.9416904  74.4976330  70.6333303
  96.2164116  74.1975260  70.0854826  97.6695061  74.6165800  70.0231123
 101.8948858   9.0553338   3.4496662 102.4566668   9.7708470   3.7474319
 102.4942320   8.3219535   3.3112309 118.1226540  61.4888811  69.1365576
 117.4304008  61.1618471  68.5620356 117.7072144  62.1918583  69.6360254
 113.1260586  79.3508625  65.1956606 113.6355686  80.0879955  64.8591232
 112.2475815  79.4845867  64.8398018 109.4581032  88.0319405  76.2849045
 109.2133045  88.7802982  75.7405996 108.6735249  87.4839973  76.3055992
  12.4514727  72.3312759  96.5374756  12.5248198  72.0387411  95.6290245
  12.2758345  71.5315008  97.0331955  21.7443692 110.2392580  28.6511299
  21.2767731 109.4628431  28.3432934  22.4668919 109.8920109  29.1742107
  97.1501255  99.5167923  60.8161926  97.8246403  98.9303684  60.4735947
  96.9036865  99.1327095  61.6576052   4.4767813  43.0533695  54.1175508
   5.0270991  43.3903170  53.4105492   3.5973124  43.3668995  53.9066792
  50.0352877  48.8387257  29.7748158  50.7553023  48.3071667  29.4352982
  50.3982752  49.7222764  29.8365471 108.2632654   7.8481776  14.6322987
 107.3816794   7.9733617  14.2810604 108.6157149   7.1088607  14.1368935
 102.0415401  66.1378384  51.7765903 101.8660545  67.0696449  51.9076395
 101.2439251  65.7987213  51.3703442 115.5096817 109.2942047  93.0457020
 116.2448597 108.7632465  92.7394009 114.7540474 108.9575100  92.5641537
  37.5796240  12.5852115  19.8451397  38.5282915  12.6632888  19.7443172
  37.3227804  13.3779246  20.3161785  14.3517910 104.1526176  15.5942699
  14.1237961 103.2517244  15.3648159  13.9923321 104.6797992  14.8807594
  55.9983557  14.1384370  10.8286831  56.4987200  13.3860499  11.1445496
  55.1467436  14.0570599  11.2580654 100.0523472  67.8490353  47.3623800
  99.3609333  68.4056234  47.7206945 100.7904530  68.4427166  47.2246218
   2.3632102  75.8068943  70.1981115   3.0214457  75.6387472  69.5238113
   2.5903086  75.2077341  70.9092140  63.9130133  33.3330018  14.2305157
  64.1053408  32.4542672  14.5577213  63.1140726  33.5903603  14.6906254
  43.5501211  14.7789389  13.6445686  44.4303339  14.7653586  14.0204403
  43.6872023  14.6339423  12.7083942  73.9990633  29.9624402   6.3746712
  74.3845576  30.8341462   6.4628098  73.9764708  29.6191174   7.2678921
  66.7975634  19.1204554   4.0692398  67.5886362  18.6141402   4.2538330
  66.1215037  18.7148864   4.6120903  14.7448783  64.2501736  94.4782162
  15.2183013  64.9666548  94.9010086  14.1699748  63.9065313  95.1620483
  99.4222069  88.9315224  93.7232971 100.0215912  89.4528389  94.2573452
  98.6310291  88.8550663  94.2566109  75.3185194  10.1563126  15.2210686
  75.4144304  11.0041577  14.7872517  74.4089907  10.1412589  15.5190155
  10.3883414  81.8521786  71.4707613   9.5258860  81.6901207  71.8530416
  10.4039340  81.3151264  70.6785679  29.0426957 110.8188488  24.1444180
  28.5039364 110.4977371  24.8675034  28.5120141 110.6636717  23.3630535
  70.6845396  58.8453919  33.1732342  70.8842676  58.5390336  32.2886536
  70.6455534  58.0471665  33.7000629 111.2449104  83.3905055  23.5112736
 112.1545727  83.0964972  23.5592911 110.7442409  82.5930835  23.3390019
  59.5234507  18.3803946   5.6182453  60.1582068  18.3810050   6.3347027
  59.1073054  17.5198037   5.6676838  17.2148757  98.3673000  70.7913256
  18.0428462  98.8181210  70.6255960  16.7229991  98.9679527  71.3512373
  98.0042744  39.1147447  90.2711105  98.3393383  39.7252941  90.9277630
  97.1190643  39.4268680  90.0834560  98.2566547  82.7956009  70.6174564
  97.3568821  82.7417088  70.2953625  98.2923794  82.1633434  71.3352394
   8.2632975  31.1694813  38.2783890   8.8238673  31.6662669  37.6824045
   8.7312464  31.1815977  39.1133142  92.4978542  72.8700209  77.6824951
  91.8186283  72.3588657  78.1224871  93.3101368  72.3988199  77.8679800
  92.2140884  58.5244894  73.2909107  92.2279549  58.8709879  74.1830873
  91.3892651  58.0421305  73.2340956 109.1677570  78.2816935  81.0620117
 109.2431545  79.1782284  80.7352448 109.6686649  77.7564096  80.4379940
 102.2703266  74.6376562  80.1874638 101.9167614  74.0533781  79.5167637
 102.5929451  75.3951836  79.6993065   3.4697490  76.8227386  85.6495857
   4.1378073  77.0519590  86.2956429   2.7454905  76.4721584  86.1680222
  94.3515015  66.7343903  53.0466318  93.8506985  67.4740458  53.3906412
  94.6104622  67.0089006  52.1669626  31.7466580 101.5960075   6.0935185
  31.5164219 101.9256021   6.9621918  32.0809304 100.7133819   6.2530872
 101.7321032   0.6556136  18.5334847 101.7813032  -0.3001588  18.5157749
 102.5960272   0.9343297  18.8370964  80.4765146  21.8187577  17.5033161
  80.1785010  21.4932353  18.3526966  79.8417013  22.4962241  17.2703049
 101.7784023  68.8548183  81.1527538 101.6785240  69.5547485  80.5074978
 102.4715042  69.1639328  81.7360878  82.7404594  89.0552521  84.6707344
  82.7971935  89.0359020  83.7154102  81.8761158  89.4244671  84.8519039
  70.8145159  20.3684766   2.6812622  71.7357176  20.5929429   2.8125546
  70.4080599  21.1850173   2.3909447  65.4949778  42.0593793   2.2123024
  65.3508871  42.1829755   3.1504890  65.7513731  42.9246766   1.8933270
  14.5485358 100.1054668  68.4593773  14.2445140 100.5472469  69.2522383
  13.7817149 100.0864315  67.8867912   2.0534949  79.0833282  66.5232038
   2.4219184  79.3101263  65.6693554   1.6244941  78.2393074  66.3824177
  59.5974081  17.8188426  30.1495812  59.3700712  17.7191502  29.2251274
  60.5204886  17.5701005  30.1973984 107.1700668  93.9132404  73.7959719
 106.6926289  94.5172596  74.3646908 106.5091896  93.2845592  73.5057402
  18.5452227  75.0635242  86.9163132  18.7963538  75.9734631  86.7576599
  18.9434581  74.8487329  87.7598190  18.9924674  69.2279053  84.3862629
  18.9196925  69.8136806  85.1397896  18.3184390  69.5336151  83.7792587
   6.1802439  51.7503452  93.8495159   5.6313853  52.0946550  94.5541000
   6.2586550  50.8159494  94.0418243  82.3924541  88.3963108  37.6307750
  83.2126999  88.5675907  38.0934644  82.6641750  88.0307388  36.7888975
  39.6702975  17.9091126   9.8076794  40.1004141  17.2524173   9.2599747
  40.1063030  17.8357322  10.6566498   7.8117327  78.7550879  41.5695047
   8.5571532  78.4579515  42.0913124   8.2026152  79.2779922  40.8694983
  51.9413965   2.9674203   3.7587997  51.8534678   2.0460088   4.0027306
  52.8435057   3.1908185   3.9879963  15.9991889 111.4955616  89.0030384
  15.5739550 110.7064247  89.3387127  16.6845183 111.1688328  88.4201145
  31.6607051  67.2521877  77.6575756  31.0138659  67.7849722  77.1950102
  31.2306266  66.4058304  77.7797890  97.2162342  66.9284821  88.3224869
  97.9393291  66.3464355  88.5561085  97.4972534  67.3443270  87.5074196
  93.9476525 104.2017795   5.8242676  94.3562829 104.0829136   4.9668762
  93.5618149 105.0769521   5.7864353  44.9385088  33.7910134  14.4538376
  44.8105639  34.3340833  13.6760590  45.8797186  33.8328320  14.6229622
  76.7830866   7.1141774  33.7479183  77.3022001   7.9148537  33.6725876
  76.5442293   7.0698125  34.6737740  17.6845031 108.7209702  94.7618389
  18.5589080 108.9807892  94.4717598  17.0901446 109.2794037  94.2607117
  99.7035599  56.3929844  71.7154837  99.4098854  56.8754005  72.4883127
  99.7064018  57.0438480  71.0136271   1.7474227  71.0732365  87.8688335
   1.5975337  70.2858973  88.3921528   1.3420539  70.8797741  87.0235634
  48.7484854  73.3158261   0.2412579  48.2674235  73.0468327   1.0238525
  49.1468924  72.5086457  -0.0842407   4.6588855  62.4664402  94.0989113
   4.5947222  62.6253986  93.1571865   4.7873072  63.3349705  94.4802094
  30.7471423  60.2002335  72.1287107  30.9086947  60.0866890  71.1921024
  30.1378302  59.4971085  72.3536301   2.8782325  45.2838612  84.8463535
   2.8497748  44.3754339  85.1466560   3.8107257  45.4982901  84.8199463
  16.6722064  77.6686049  95.0428295  15.9743266  78.0106878  95.6015491
  16.4643054  78.0006838  94.1694832   1.3374762  50.4221201  84.3077278
   1.4291339  50.4140806  85.2604961   2.2316794  50.5245972  83.9819431
  53.5473269  43.4582478   6.7727825  54.0117949  43.6772782   7.5805733
  52.7079886  43.1047875   7.0674202  12.3085265  90.2071095  95.4024410
  13.2520633  90.0507927  95.4415226  11.9871096  89.9497318  96.2665462
 102.5152969  58.6639595  82.0965767 103.4709740  58.6629057  82.0426464
 102.3252678  58.9967728  82.9737091 104.1103762  55.2835805   7.4358055
 103.6904162  54.6098668   7.9705689 103.6401289  55.2555997   6.6025517
 110.2218819  59.6131468  75.6249762 110.1701641  59.7531128  74.6794796
 109.4130325  59.1501284  75.8431578  58.1714552  41.6809422  22.5585434
  58.9755457  41.1698109  22.6503155  57.9740065  41.6507680  21.6224167
  93.6635780  27.9133654  91.7089367  93.9624119  28.7820888  91.9777298
  93.2546711  27.5474453  92.4932289  82.2499180  38.3044815  30.7282472
  81.3229847  38.1519532  30.9120083  82.6534271  37.4392843  30.7978678
  64.4637966  18.2807612  80.4909515  65.1682615  17.7829218  80.0760841
  64.1414022  17.7063227  81.1854362  78.8444567   3.5583895  88.4645462
  78.5494280   3.0728242  89.2348862  78.7825251   2.9286921  87.7462959
 112.4383987 105.8403314  91.8399715 111.7994131 106.0266293  92.5278854
 113.1789959 106.4129753  92.0395374  67.4902868  15.6000590  69.5818186
  68.0942202  16.2713671  69.8993778  66.7778540  16.0923791  69.1740322
   1.5822445  22.3331143   2.4717590   1.3753830  22.1333791   1.5587780
   1.3790738  23.2638146   2.5652954  45.4373472 101.9478084  68.0983496
  46.1525553 101.6086860  67.5601101  45.7990187 101.9810123  68.9839649
  80.8829880  12.8160453  72.3262119  80.6894684  13.2912242  71.5181398
  80.3256416  13.2286525  72.9860306  11.0923707  68.0580343   3.5929367
  11.9346177  68.1587257   3.1494114  10.6743371  68.9151825   3.5106060
  78.6256266   8.1571156  65.8061981  78.4164953   8.2893932  66.7308617
  79.5495987   8.3961922  65.7330322  65.7635229 101.7437054  79.1233969
  66.5743273 101.3240785  79.4110584  65.3002184 101.0616035  78.6372757
  47.7030676  79.0742154  57.7687216  48.6370676  79.2550917  57.6630402
  47.2665518  79.8129530  57.3445225  49.4016266  34.5848107  57.4747324
  49.6894550  33.8348150  56.9542599  49.0708971  34.2002320  58.2864904
  77.9244947  22.5860333  78.3931637  77.4671507  23.1580138  77.7768040
  77.9039478  21.7230606  77.9795361  20.6854474  80.3359963   0.6425545
  20.5586659  79.9819924  -0.2376965  20.0809514  79.8360874   1.1911079
  46.1655443  95.4542465  62.8446388  46.7368716  96.1305148  63.2086182
  45.2794665  95.7565827  63.0438757  74.0172434   5.5855829  58.4064293
  74.9153996   5.2651215  58.3236599  73.5823011   5.2884108  57.6072121
  21.7728203  81.4413638  74.3499279  22.2821062  81.5154858  73.5428524
  21.9542044  80.5566759  74.6671963  61.9227552  10.5677462  78.8545084
  61.4993429  10.2492726  79.6517086  62.8401423  10.6852806  79.1011286
  31.0650652 102.1386309  92.3686409  30.7404440 102.1738357  93.2684231
  31.1638993 103.0559231  92.1136093  63.2923031   9.7628117  31.5777135
  63.6311245   8.8987845  31.8120027  62.3417807   9.6510804  31.5617323
  81.7242336   0.4488985  83.9097881  80.8949089  -0.0086694  83.7716484
  81.6176701   1.2818046  83.4502888  94.2168999  35.3423285  71.2172747
  93.9948177  36.0772038  71.7890024  94.3115044  34.5972610  71.8107033
  46.9368284 102.4497254  78.5523033  47.1477526 102.7733893  77.6765251
  46.8223875 103.2408262  79.0788889   2.3061328  57.3022461  80.8521080
   1.6760211  57.0705700  81.5343857   1.8238215  57.8894567  80.2700520
  90.0881941  80.2224065  21.0277149  90.1258690  80.7538487  20.2324936
  90.9812767  79.8971202  21.1409447  39.7877806  80.6689663  75.5334473
  39.3192118  81.4935107  75.4038143  39.2234963  80.1620431  76.1172676
 113.9133013  97.8531499  93.8330936 114.3442048  97.0952232  94.2281914
 113.9423812  97.6815112  92.8918552  88.0832958   8.4389478  87.1552277
  88.9828396   8.5974848  87.4414444  88.1737137   7.9061729  86.3651657
 102.3584843   2.2045042  75.5533552 103.2289505   2.4932975  75.2792788
 102.4051666   1.2487049  75.5309916  95.5904102   2.0298652  53.3966827
  95.6927109   2.9498470  53.1529570  96.4754009   1.6687191  53.3455753
  66.1677599   2.2038639  61.6621494  66.9264460   2.7706221  61.8014717
  66.4574909   1.5736595  61.0025024 102.8667909  60.0548180   8.4686920
 103.8148195  60.1481588   8.3750698 102.7573139  59.3432562   9.0995094
  19.9918288  75.6822843  89.2092609  20.8870190  75.8428259  88.9107800
  20.0525921  74.8802848  89.7282410   9.0822654  41.5866375   3.5305563
   8.9695411  42.0497847   4.3606281   9.9230819  41.8975782   3.1950513
  73.0228710  24.0885854  87.8945923  73.3572102  24.4839644  87.0895290
  72.0864296  24.2867422  87.8877831  13.1707876  92.1674366  73.9718533
  13.5529154  92.8990335  73.4871054  13.0566042  92.5028772  74.8610497
  64.8531073 101.6419006  63.3171749  65.0472563 101.7075778  64.2521763
  65.5096930 101.0333426  62.9783821  42.0729941 101.7327727  73.5643721
  41.4746588 101.1491079  74.0308142  42.6903265 102.0277030  74.2338037
  57.5040722  10.8399904  76.0581636  57.1367073  10.8342946  75.1742887
  58.3916759  11.1804521  75.9464359   5.2593552  84.8882939   5.3220055
   5.5440079  85.2508141   6.1609242   5.7978093  84.1057231   5.2041885
  13.7183224  74.9389233  17.1379349  13.2218110  75.2023722  17.9127190
  14.5120656  74.5345511  17.4881908  33.0262106  51.7833371  56.7929792
  33.3631962  52.3161263  57.5132608  32.6374548  52.4157853  56.1887407
  76.1476183   9.5984197  85.9624672  76.2518978   9.0227449  86.7200661
  77.0329380   9.6954483  85.6117249  66.4720440   0.4487116  59.4640207
  66.6370344  -0.2845150  60.0568008  67.3039913   0.5811646  59.0095377
  73.8297671  86.8435855  70.0531054  73.6043757  87.1545572  70.9298801
  74.7068613  87.1920986  69.8934841  50.9220522  92.8555770  61.6839600
  50.4037398  92.3756630  61.0379982  50.5446165  93.7352080  61.6882133
  94.3378067  21.0974193  32.6118612  93.7998486  21.8791771  32.4866080
  93.7283421  20.4378366  32.9431295  67.9239290 111.5107932  74.7005463
  68.3833617 111.0785722  75.4205036  68.5133093 111.4204196  73.9517498
  18.8430088  93.3801646  80.6341553  18.0215376  92.9050405  80.5089378
  18.8936966  93.5260994  81.5788078  16.5129298 108.9586319  79.7712135
  16.7347401 109.7298304  79.2494059  17.3527735 108.6497242  80.1110268
  22.8213375  61.1694093  95.9636593  23.5522717  60.5703444  95.8117104
  23.2096499  62.0419974  95.9001923  62.2056723   0.5873278  65.5858707
  61.9870472   0.3291423  64.6904516  62.5769520   1.4652134  65.4981279
  35.9576910 100.3909809  67.1027040  36.3625639 100.4264171  67.9693413
  35.5440253 101.2476082  66.9963932  18.5336703  83.8187189  71.6891003
  18.8676708  83.0605955  72.1686029  18.8092345  84.5724769  72.2107744
 101.4022541  11.3220584  64.7975302 100.4968739  11.5170336  64.5556498
 101.3317585  10.6163549  65.4403687  99.7087002  15.1651752  77.3756170
  99.9114609  15.6333983  76.5657473 100.2211094  14.3585479  77.3206329
  30.2528446  96.5552921  57.9256487  30.1686734  95.6430991  57.6480675
  29.5264500  97.0050068  57.4939823  40.9923588  57.3988307  22.1382401
  40.0536667  57.2522815  22.2549603  41.3979279  56.5711600  22.3965141
  77.4511868  44.3053199   0.5398914  77.0414359  45.1699080   0.5112145
  76.7263729  43.6925329   0.4159233  80.5455303  10.2091575  66.3498306
  79.8158169  10.5366778  66.8756390  81.2793922  10.1606452  66.9624710
  28.7587773  56.6138553  15.2610275  28.8262211  55.6668081  15.1394341
  28.9977299  56.9821596  14.4104454  55.7830143  23.9266419  94.0273952
  56.6914177  23.7042952  93.8234425  55.4191494  23.1255007  94.4042301
  27.9010218  93.0754990  63.1206131  26.9868964  93.0015380  62.8465033
  27.8811329  93.6841769  63.8590908 112.7230167  55.7386684  83.4567642
 112.2732639  55.7905102  82.6133919 113.3636570  55.0364923  83.3438015
  84.1504114 100.8620269  90.6976414  84.1903609 101.6688121  91.2111855
  83.2958906 100.8939583  90.2675247  84.3862724  13.0697954  66.7734194
  84.4917202  12.3568642  66.1434650  83.9324665  12.6691043  67.5148630
  59.7893637  95.3876300  80.4094982  59.5925349  95.9101970  81.1869335
  59.0461081  95.5379827  79.8253727 112.8607542  91.5011479  11.1408112
 112.4904758  91.9610097  10.3873798 113.5061580  92.1101810  11.4996407
 100.3952408  34.0352297  77.3225927  99.6857643  33.6042094  77.7991438
 100.0211716  34.2337489  76.4641619  90.5539036  37.8020263  82.5319862
  90.1764965  37.2446370  81.8514729  91.1330223  38.3992600  82.0585251
 104.0991497  51.6513157  75.5548048 104.1576099  52.3554420  76.2005806
 104.9616241  51.6345930  75.1399469  91.9499588  29.6466970  74.4130230
  91.5363693  28.9498353  74.9224901  91.7553711  30.4473400  74.9001932
   7.7614533  83.5327961   0.9717342   6.8952977  83.8518359   1.2251446
   7.5924622  82.9315473   0.2463600  81.9879532  10.1814723  81.0786438
  82.4230671   9.6959889  80.3777790  82.2609234  11.0893381  80.9463501
 110.2482635  94.8870970  27.7379486 110.4008896  94.8060538  26.7964813
 110.9098226  95.5118968  28.0349323  64.3033695  10.6824756  87.5090122
  63.4697485  10.7867575  87.0502853  64.0609455  10.6052780  88.4317875
  52.9014158  44.3130112  46.0530138  53.2750368  43.4321451  46.0797358
  52.8405046  44.5191431  45.1202583  49.6056669 111.4387074  58.1851149
  48.9006537 111.4999009  57.5405693  50.3155630 110.9938747  57.7220821
  22.6557688  63.8898897  82.9169273  23.1462912  63.9308882  82.0959854
  22.8895907  63.0415249  83.2935333   8.0609530  98.5340328  86.1071777
   7.1662539  98.3979554  85.7953739   8.0357712  98.2741899  87.0280933
  45.3180903  96.6835172  59.6014547  45.1139181  97.5732739  59.8893499
  44.8684901  96.5945942  58.7611055  75.6006735 100.2200384  96.1101913
  75.0279825 100.7416077  95.5478573  76.3337916  99.9762065  95.5451107
 112.1552402  69.3594720  11.8062279 111.5058691  69.5922662  12.4698231
 112.6749307  68.6659195  12.2125980   6.0258137  78.4193064   7.0850060
   6.9685303  78.4467890   6.9214031   5.6303727  78.4576513   6.2141487
  14.6680372 106.7858378  78.7727118  15.1945370 107.5600876  78.9716196
  14.7964304 106.2089796  79.5256948  75.3376436  20.8020782  35.1447105
  75.3222990  20.0026751  34.6184492  75.5940056  20.5084276  36.0189390
  53.9768904 109.6643355  61.1188745  54.3799513 110.0929863  60.3638697
  53.4667700 110.3548306  61.5422297  30.5072628  71.7672302  19.3532345
  31.3040673  71.5056266  18.8918278  30.5388104  71.2837173  20.1787350
  71.0568142  14.3178046  51.7237520  71.5124655  14.4315839  50.8896828
  70.8101273  13.3930433  51.7377090  60.9760237  26.3019204  66.8063021
  61.4514208  25.7537770  66.1819887  60.7444191  25.7069921  67.5194979
  63.3488607   6.4808530  90.3564739  62.9622984   7.2156399  90.8328056
  64.2026711   6.8043315  90.0690746  64.2734861   4.5979431  77.9966497
  64.7503328   4.4209361  77.1857738  63.7570572   5.3807157  77.8048182
  82.0665073  19.0026140  66.6710901  81.2736225  19.4123411  66.3251209
  82.0741653  18.1285250  66.2810326  55.7988280  88.4693332  49.1903210
  55.1156729  88.4354920  49.8599434  55.6513708  89.3007607  48.7395287
  17.0228993  88.0951764   9.2862865  17.6762616  87.5908353   8.8015244
  16.9717537  88.9303352   8.8213894 107.3462772   2.1415624  59.3915462
 107.5861073   2.2306469  60.3139210 107.1710968   3.0369627  59.1020632
  58.6890620 110.9807095  71.5692759  59.2338770 110.8129976  72.3382235
  57.7915686 110.9523995  71.9008493  99.6849632  17.8413677  31.4135242
  99.7717571  17.8507400  30.4603124  99.4222641  18.7337959  31.6388941
  27.6549834 107.3987840  57.1149349  26.9686430 107.8171040  57.6347208
  28.3842152 107.2889416  57.7251720  99.2548561  10.8468056  42.1822023
  98.7676239  11.6217077  41.9022655  98.8857555  10.1316595  41.6639709
  70.0781536  24.6087313  94.1534615  69.6030664  25.4379058  94.2081928
  70.2036524  24.4660735  93.2153130  75.5207729  21.6499400  73.1933641
  75.8172369  22.4556684  72.7701139  74.7583914  21.9159436  73.7074089
  46.4622515 109.7997143  68.8493252  47.0983618 110.2092696  68.2629204
  46.3383215 108.9204914  68.4917784  12.8309874  30.1459384  71.6300154
  12.0437865  29.6013856  71.6309690  12.5509410  30.9710884  71.2338734
  33.5139530 101.8203432  44.4623899  32.8861063 102.3604174  43.9824295
  34.0665262 102.4498827  44.9256086  60.5943602 110.2234707  73.7856960
  61.0718458 109.6957559  73.1455708  61.2389010 110.4145584  74.4670820
  67.8198767  22.9349160  94.9399948  66.9707108  23.3751559  94.9034023
  68.4600544  23.6444020  94.8849487 104.4873238  19.8401725  69.4420528
 104.9687672  19.9688220  68.6248016 103.7373924  19.2988074  69.1955709
  77.7495146   0.8781759  71.6130590  77.0579290   1.1641361  71.0162592
  78.2770538   0.2705126  71.0947180  42.5615233 100.7403655  47.6260948
  41.9896334 100.5893786  48.3786726  43.0719679 101.5141870  47.8645945
   5.0712794 105.0433237  66.2983131   5.4752892 105.2336026  67.1449518
   5.7223910 104.5161683  65.8352900  17.7275675 104.9006117  69.7145033
  18.5523957 105.0678856  70.1704836  17.6342839 103.9480920  69.7298861
  67.7544785  22.6665783  66.0168171  68.2078886  23.4663057  65.7501936
  67.0062637  22.9746056  66.5282154  69.4113541   6.3545853  88.6800194
  68.9795208   5.5644906  89.0048313  69.7584152   6.1031967  87.8241062
  60.4994249  16.1445856  76.1686563  60.5095053  15.7056916  75.3180647
  60.3244162  17.0627582  75.9623480  58.9882708  13.0480790  61.6242456
  59.9052811  13.2650232  61.4561510  58.7027979  13.6966109  62.2677851
  92.6027012  14.0786922  66.9415617  91.6785622  13.9577508  67.1596527
  92.8693104  13.2436633  66.5570164  71.6349077  16.5999758  44.9678898
  71.3725615  16.3991749  44.0695095  70.9600019  17.1995068  45.2861643
   6.2083834  94.4596083  51.5248585   6.1479824  93.5983868  51.1114788
   6.9166439  94.3700809  52.1624947  11.2332951  19.4464018   9.7330734
  11.2005269  20.3509547  10.0444290  11.9549691  19.0508343  10.2218887
  25.4747027  93.7516982  87.7771759  25.4599064  93.2605595  86.9557190
  26.3595408  94.1138048  87.8238297  45.7276457 104.4069786  80.0715065
  45.2776640 105.2378352  80.2245712  45.4129618 103.8320954  80.7691574
  82.3821259  15.8601809  74.5751143  82.0429134  16.5903127  75.0928783
  83.1407261  16.2229323  74.1177750 103.4242821  15.6991196  56.9499016
 102.7931213  16.3919711  56.7554188 103.9933300  15.6707048  56.1807394
  95.3660393  28.0374074  67.3358870  95.9063530  28.8238907  67.4116278
  95.3509808  27.8465676  66.3980293 105.6370831  18.6179471  90.1741219
 105.0200653  18.7379074  90.8960152 106.0887527  19.4588661  90.1028538
 116.8124485  22.5452971  87.3496628 116.1286545  21.9091344  87.1400166
 117.6319790  22.0801759  87.1815777 117.5948906  71.6853237  74.8799276
 118.3335495  71.7878151  75.4800224 117.7850819  72.2878408  74.1608763
  92.5277042  21.8364716  60.5455971  92.8204632  21.9061017  61.4542627
  92.0694733  20.9970498  60.5052519   1.8488347  69.0886749  24.5578548
   1.9773423  68.9915647  23.6142990   2.6957356  69.3920113  24.8849461
  76.9129562  25.9430838  52.7022457  77.3196030  25.2244234  53.1863928
  76.0279751  26.0036540  53.0619383  92.8459358  32.2394371  56.9130659
  92.9850292  32.4639249  55.9930182  92.0431900  32.7019334  57.1537399
 117.1164894  31.5715694  88.9214897 117.7069473  30.8432508  88.7287521
 116.6310406  31.2878108  89.6961212 102.7590275   0.7094134  67.7031612
 102.8060436   1.6147873  67.3960495 103.2491684   0.7096335  68.5253477
  87.1468258   5.5043519  11.5624619  86.5637589   4.7998303  11.8451476
  87.8154659   5.0654113  11.0366392  43.5521637  70.8451559  11.5992615
  44.4604146  70.9933092  11.8626282  43.0359017  71.3596989  12.2197029
  53.1340170   9.6311009  55.9198284  53.1336212  10.5667973  56.1215782
  52.6794291   9.5669949  55.0799036  80.9160995  26.7801547  52.8212166
  81.7016792  26.7799497  52.2743130  81.2489033  26.8014836  53.7184429
   0.6565814  20.0802326  93.1101608   1.1199240  20.9165192  93.1567669
   0.0578265  20.0962186  93.8567924 112.0063669  90.5334975   8.4845898
 111.9671518  90.4926802   7.5290653 112.9278404  90.3799607   8.6932632
   1.5205912   1.7100936  48.2024145   1.1969905   0.8403861  48.4372044
   0.7608752   2.1549284  47.8266573  92.5814819  36.6398716  91.2066078
  92.5603962  37.3426700  91.8561172  92.4968433  37.0885944  90.3653526
 108.0589485  41.1746073  60.2242804 107.4179268  40.5916882  60.6311226
 108.1201363  41.9186974  60.8232975   0.7522158  45.0136805  58.2887506
   1.0404353  44.6761608  57.4406672  -0.1736493  44.7760057  58.3390141
  80.2957916  22.8041148  88.8578129  80.7992077  21.9904184  88.8842201
  79.8617840  22.8450179  89.7099876  86.6070956 104.9713547  39.9498105
  87.1763819 105.7365186  40.0314426  85.9815806 105.0604064  40.6688643
 109.9558544  33.9427257  67.0292187 109.2966461  33.9257860  67.7230406
 109.7376633  34.7169638  66.5103865  95.6693840  14.0835094  82.1648884
  95.9189034  13.5752094  82.9366398  95.5993080  13.4356284  81.4637661
  96.4796066  14.9328268  22.7680755  95.8932018  14.6202219  23.4570146
  96.6882229  15.8321452  23.0209327   6.1928515  16.2343776  80.0275421
   5.5435233  16.0327446  79.3537807   5.6955199  16.2401414  80.8453751
  17.2970807  92.5115158   8.7174770  18.0831372  92.3987915   8.1830189
  17.6151406  92.4847104   9.6198914  82.5512617  92.6359947  59.6693182
  83.2462805  93.1977041  60.0123358  81.8476694  92.7043004  60.3147078
 100.5095005   8.3024240  64.5369482 100.2813911   7.4032938  64.3008041
 100.4678249   8.7848341  63.7112522 114.0957260  29.5315433  50.7117271
 114.3597412  29.7802997  51.5975332 113.4639549  28.8239670  50.8399200
  74.8911207 110.2191957  91.1054039  74.2666167 109.8853932  90.4613590
  74.3484228 110.4991366  91.8425179  66.9091415   8.3954400  80.0790596
  66.6133928   8.0479890  79.2376089  67.7760601   8.7581438  79.8970556
  22.8442036  75.1939573  20.1515171  23.5903203  75.7763459  20.2942345
  22.8159176  75.0689985  19.2029354  97.3246288  28.9824271  62.1369457
  97.0615673  28.8590479  61.2249088  96.6065025  29.4799113  62.5281429
  49.9613016 103.0316282  87.7136326  50.0413149 102.0874823  87.5779152
  49.4596403 103.1153740  88.5245323  41.4259755  77.3634578   1.6316006
  40.4839455  77.3249699   1.7968914  41.5574013  78.2018615   1.1888287
  85.1125145  16.0212553  90.1706409  84.9762917  16.8681836  90.5953598
  84.5861816  16.0662031  89.3724060  80.4514027   7.8521216  26.4892960
  80.6299591   8.1208903  27.3904681  81.3151360   7.6757449  26.1163497
 104.8366261  34.5259166  56.4686060 104.9802971  33.9747047  55.6993532
 105.6513405  35.0189447  56.5655279  87.9078102  26.6009784  79.6521711
  87.8503895  26.1971426  80.5181122  88.7370872  26.2838030  79.2944908
  75.0274324  22.7491307  63.3534956  75.1104736  23.0402637  62.4454308
  74.2100668  22.2513175  63.3716154 115.8813572  13.6484361  83.4398842
 116.7956638  13.9313769  83.4252357 115.8201885  13.0753732  84.2041397
 106.5008640  47.9429007  53.0265522 105.7016945  47.4287271  52.9117250
 107.1582317  47.3050070  53.3043766  92.9180336  28.5291958  55.9658289
  92.2181225  28.8284469  56.5461779  92.9032040  27.5753689  56.0447311
  48.1407564 109.2316821  85.1618958  48.4908503 108.8142399  84.3748760
  47.1920412 109.2246998  85.0348759  89.8013973  35.7722664  71.8854475
  90.1168728  36.3158107  71.1634588  89.1523647  36.3176107  72.3299551
  73.2674074   1.0659904  66.0648394  72.6794243   0.6063468  66.6642046
  73.1925249   1.9868630  66.3150787   0.4255061  49.4649792  65.1839352
   0.7161097  49.6123123  66.0839748   0.2073531  48.5335112  65.1521254
  79.4048023  16.4920545  82.5960350  80.0330639  17.2141898  82.6025200
  79.1190815  16.4149749  83.5063362 108.0917072  29.3065572  85.8549500
 108.7714958  28.6999083  86.1483765 108.5638237  29.9703026  85.3521633
  94.2370319  21.5430927  40.0270653  94.8481369  21.5514231  40.7637644
  94.6096897  22.1626282  39.3997383  97.3381329  36.0273314  62.4724483
  96.9241905  35.7064462  61.6712523  96.6874790  35.8717942  63.1570578
 100.2577782  21.5740228  59.3379450  99.5739937  21.1726141  58.8017130
  99.9541664  21.4593935  60.2384472  29.1416472 107.7614228  73.6141109
  29.2387694 107.2865523  72.7887058  29.6471709 107.2497864  74.2457008
  85.6486130  21.6475892  63.1922483  85.5752468  21.2512255  64.0604305
  86.4927387  22.0986938  63.2054567  92.2437477  20.1488161  46.4455080
  92.0133591  20.0895786  47.3726797  92.3501110  19.2393625  46.1665630
  78.2713795  11.4363575  70.3470945  77.5939512  10.8800042  70.7315254
  78.1850815  12.2713506  70.8070612  77.1273041  15.8706820  71.4623260
  77.8971434  16.4367163  71.5187216  76.3869095  16.4762592  71.4259529
  79.5333147  15.6033576  77.9821968  80.1404095  16.1361253  78.4958315
  80.0971413  15.0771618  77.4152279 113.2228565  17.2742784  65.1430225
 113.1192970  17.9954433  65.7638502 113.9902687  16.7961371  65.4571772
  60.5840874   8.7870967  87.8070450  60.3696203   7.8719199  87.9878426
  61.3191366   8.7445182  87.1953964  93.5227489  56.0776615  63.8991833
  94.4734192  56.1501408  63.9841318  93.3888435  55.6783438  63.0396223
  99.5027351   6.4028573  83.5249710 100.1320457   7.0019197  83.9266205
  99.4214630   5.6847310  84.1526031  68.6770361 104.9109949  47.5117445
  68.5696619 104.6686525  48.4315157  68.7328547 105.8665229  47.5207663
  68.1722962  78.2724096   6.4816830  67.8241288  77.5365330   6.9851658
  68.9444100  77.9173042   6.0412571 108.0080032  42.2035646  82.6405239
 107.8594112  42.8477573  81.9482994 108.8902950  41.8719435  82.4737072
  95.3717518  39.7414947  86.6084385  95.1264572  40.1173258  87.4539089
  96.2410641  40.1002359  86.4300156 101.0125923  11.7058575  68.3192301
 100.5697727  11.2931824  67.5777197 100.7864857  12.6331866  68.2473516
  39.8103588  97.8534193  57.4462461  39.9737614  97.0478411  57.9367304
  39.1654700  97.6041491  56.7842674 109.7299004   4.6079779  71.6198015
 109.4111824   3.7245402  71.4348984 108.9641285   5.0733101  71.9563770
  88.7705326  23.1421590  81.5088081  89.1208363  23.0951071  82.3983574
  89.4592476  22.7669978  80.9600258  54.7299593  96.9224424  55.4281664
  55.5562895  97.4055536  55.4244041  54.2947024  97.1860630  54.6174335
  96.1220282 107.5962437  64.3818617  95.6257838 108.3491034  64.0606594
  96.2956446 107.0724658  63.5997200 100.0525379  36.2932849  48.2788897
  99.3570995  36.4051557  47.6307583  99.6255875  36.4591861  49.1193771
 105.8196259  53.4731531  29.8579741 105.0980854  54.0755272  30.0389528
 105.4647827  52.6071501  30.0588727  34.7255963 111.0498502  64.0153313
  34.0843266 110.3519845  64.1494513  34.4896906 111.7186884  64.6581650
 106.6967964   4.9287030  61.9184875 107.5079060   4.8592180  62.4219751
 106.2275696   4.1159505  62.1068859  36.6705643  40.0480633  85.8194485
  37.3005044  39.3294984  85.8749428  35.9503399  39.6953624  85.2968576
  38.8155430 109.3996778  64.6156263  39.7049254 109.1252684  64.3921852
  38.9053076 109.8363675  65.4626656  68.7971020  17.0698142  71.7471647
  69.3917751  17.5466502  71.1681747  69.0943146  17.2902572  72.6299429
  77.3457432   5.7649583  50.0385427  77.9456043   5.8181536  49.2945242
  77.0482922   6.6650426  50.1712179  66.3497197  52.8620072   1.6848633
  66.8759095  53.3280674   1.0351345  65.9821259  53.5531077   2.2357628
  23.0294167  50.5241974  13.8716385  22.3490368  50.7263841  14.5138523
  23.2657753  51.3730873  13.4978077   4.9258189   0.5589971  51.6000175
   4.2390685   1.1674429  51.3272572   5.1408248   0.8255669  52.4938583
  94.4255543   8.3447981  58.1646872  94.7699356   9.2313278  58.2728529
  93.6097527   8.4624773  57.6780224  90.1170826   0.3816554  54.6218014
  90.4351521   0.4602333  53.7224197  89.2119598   0.6907195  54.5836163
 106.9200325  46.4609194  79.3627501 106.0139942  46.6408539  79.6136332
 107.4445152  46.9911242  79.9627829  62.1568220 110.3397542  45.7267761
  62.8883093 110.8276701  45.3485012  61.4818114 111.0008467  45.8802605
  63.2212466 103.3682854  33.0513835  62.3606699 102.9535712  32.9909873
  63.0805987 104.2595090  32.7317429  32.3583083  25.0995398  79.4551373
  31.5186839  25.0421333  79.9111795  32.5193934  24.2111802  79.1371775
  61.4698029  14.4780087  61.5688896  61.0798645  15.3518379  61.5934324
  62.2799015  14.5911074  61.0717201   9.3548541  44.4436026  46.3153982
   9.7726970  44.7816133  47.1074724   9.9355845  43.7429762  46.0185814
 105.5475140  26.5681410  70.9218073 106.2264156  25.9062982  70.7903337
 105.6490612  26.8373561  71.8347359  91.0813618  10.8775997  60.3353548
  90.2995968  10.8222294  59.7858000  91.6474342  11.5038788  59.8841715
  99.6249485  49.5582151  95.5578327  98.8969994  50.1719475  95.6560898
  99.4947529  49.1686583  94.6932316  71.4794970  22.7809119  65.3725433
  71.0547304  23.5651636  65.7200384  71.7353201  23.0216718  64.4821405
  65.2116871  22.6342607  84.8381042  66.0388803  22.7292061  85.3103065
  64.6967411  22.0325112  85.3756523  11.7066912  46.2186050  54.8065472
  12.2694163  46.2630606  55.5795908  12.0498709  45.4807186  54.3025923
  96.6972351  49.3106127  88.7556839  96.7472363  50.2308130  88.4969044
  97.0643425  48.8324308  88.0121708 116.0854340  29.9477839  62.3135138
 115.2604103  30.3911972  62.1161509 116.7228794  30.3560400  61.7276669
  62.3147202  35.6574655  90.0429630  61.5642834  36.0475349  89.5947075
  62.2558308  35.9869576  90.9397316  67.4193304  83.7084789  66.0422659
  67.5202482  82.9456754  65.4729033  67.5231188  83.3614297  66.9282770
  94.0514278  15.5595565  75.7849741  94.0106297  14.6195602  75.9609652
  94.0596008  15.9653962  76.6518402  81.8949699  22.9669476  58.4051657
  81.8357849  22.1348000  58.8744879  81.2755775  23.5407925  58.8560390
  50.6279867   6.7135913  12.7125523  51.0683840   7.2057540  13.4054157
  49.7064322   6.9597108  12.7925942  60.3683394 110.6066723  82.5030231
  60.2976816 109.9276599  83.1739807  59.8377054 110.2810713  81.7759418
  82.9223728  26.3793492  57.9389238  83.5566998  26.6293645  57.2670984
  83.3130169  26.6780043  58.7601614  11.6232907  55.0656805   7.6542923
  11.0565697  55.0752077   8.4256336  11.7031132  54.1392519   7.4271557
 108.1813717   5.8137530  83.0850124 108.7818718   6.3159651  82.5341797
 107.7331066   5.2261090  82.4767685   0.3024344  21.9933748  74.8503637
   0.1251178  22.5843000  75.5822086   1.1025767  21.5327144  75.1029253
 107.0245171  35.1318431  64.4346619 106.7197895  34.2474794  64.2315006
 106.3731575  35.4749870  65.0463963 107.0999146   4.3078950  94.1726112
 106.5702152   4.6989602  93.4778309 107.3449802   3.4477317  93.8315868
  97.8298187  22.9127192  64.6676588  98.1945896  23.1797910  65.5113649
  98.3506775  22.1515274  64.4116879  82.1232128   8.6371022  92.4940968
  82.1617985   9.2729437  93.2085514  82.4017906   9.1281718  91.7211342
 110.3655815  31.0387731  58.2120132 109.5958233  30.4804492  58.3215141
 110.0494003  31.9223142  58.4007406  89.5157909  16.2278545  87.0769691
  89.6091747  16.8554926  87.7936172  89.1242599  16.7338037  86.3649654
  73.0350703  87.2680206  90.5871677  72.3749655  86.6869564  90.9651375
  72.9276102  88.0928035  91.0608864  89.9303150  44.3834257  95.6786823
  89.9860764  44.6916723  96.5831757  90.6919479  43.8134527  95.5725098
  97.0575905  47.9799795  52.2146606  97.3754787  48.0639172  51.3156986
  96.4174938  47.2692823  52.1769810 103.8394928  10.8598781  85.2853584
 103.4124374  11.7145026  85.2264500 104.0423012  10.6304526  84.3784523
  97.7247620  25.2116203  81.3960648  97.5186062  25.1416707  82.3281860
  97.4152184  26.0824704  81.1470032 100.1651603  51.1970882   7.0698998
  99.6008045  51.5631108   6.3889000  99.6002371  50.5906387   7.5487682
 108.7778950  21.5946627  59.5170879 107.9654789  21.4424992  59.0343189
 108.5456562  21.4375687  60.4323053  94.9415970  33.2794714  72.6671171
  94.2886925  33.0362892  73.3234835  95.7822037  33.1527996  73.1070757
  82.1337318  10.7552850  90.4831982  82.1236038  10.8139443  89.5278454
  82.6171017  11.5316617  90.7657242  52.1858918  87.6413705  11.2486908
  51.6909825  87.8322531  12.0454666  51.8931042  88.3019115  10.6208393
  69.9340057  32.4127054  46.4329815  70.0657558  32.9202962  47.2337484
  69.0977859  32.7242923  46.0867500  84.2804623  36.7707038  60.5061102
  83.3638287  36.9911957  60.6716108  84.7750187  37.3573995  61.0783291
  41.7198597  62.6999672  12.4269745  41.5171086  62.7321966  11.4920494
  41.2207161  63.4237684  12.8053925   8.7229018  42.0404816  44.0066433
   9.6122126  42.3366356  44.2006969   8.6196284  41.2396526  44.5206928
  73.4859037  17.7932048  87.8928947  73.5849142  16.9242918  88.2820225
  73.8387108  18.3920062  88.5510731  75.9629631  28.5482550  66.6035318
  75.2392673  27.9375291  66.4638472  76.2192202  28.8214588  65.7226658
  87.7713108  17.7922833  42.5716019  88.2336617  18.0463219  43.3703041
  88.1244278  16.9294703  42.3545837  88.4433174  14.1705954  71.4961386
  87.9095173  14.2634761  72.2852278  87.8779221  14.4768453  70.7870770
  41.0658282 101.2339206  53.7639618  41.8694990 101.1553891  53.2499790
  40.5184906 100.5077190  53.4651470  77.2844410  13.8617742  37.5779390
  77.4794388  13.6445725  38.4895468  78.1081915  14.2053890  37.2321153
  93.8799858  33.9871001  65.2783251  93.4841633  34.2648506  66.1044025
  94.6196270  33.4385729  65.5396318  97.5181103   1.9102763  17.7314270
  98.3793736   2.2927183  17.5635123  97.7032852   1.1084858  18.2203805
 116.7934227  37.0938396  35.6310296 116.7998695  37.4182725  36.5315461
 117.5362873  37.5301981  35.2139139 109.9514103  61.5677357  81.4593983
 109.9233437  60.6805182  81.1012173 109.0684223  61.9101667  81.3204670
  64.9095076  88.2151599  66.7810678  65.6819838  88.3469934  66.2314034
  65.1912421  88.4782691  67.6572084 109.6789646  37.6542306  69.5946598
 110.2196980  36.8740249  69.4717216 108.7956524  37.3735809  69.3554163
  87.7292538  16.7808664  58.7833548  86.9443321  16.2367749  58.8473845
  88.1465340  16.7011881  59.6411180  84.9877357  27.9479790  65.4052353
  85.6620979  28.3857584  64.8857975  84.2773438  27.7829766  64.7852707
  97.9987335  44.0643644  53.3129501  97.4840927  44.2841053  54.0895414
  98.9013767  44.0202236  53.6284065  88.0459708  98.9974995  60.0614405
  88.9713877  99.2017980  60.1959229  87.5861185  99.5323558  60.7085085
  52.7048718 101.0355760  22.7338383  52.4147069 101.7624809  23.2848808
  51.9677102 100.4249860  22.7350590 110.3078365  51.1069107  72.3847866
 109.5239735  50.9889412  71.8482447 110.1241684  51.8864536  72.9090118
  72.8307104  30.5710506  91.5612602  73.2596922  29.7826314  91.2286949
  72.0658827  30.6837678  90.9968376   3.8853221  23.7803078  45.9557056
   4.7106223  23.3344316  46.1462545   3.2097487  23.1429267  46.1871529
  48.2566374   7.3552186   8.6391136  49.1274660   7.5128133   9.0038750
  47.6548975   7.5922829   9.3447659 109.3214321  34.7167945  75.6975603
 110.0823021  34.1363358  75.7171392 108.7232208  34.3495631  76.3483381
  78.7072706   8.2617545  69.1753817  79.3803358   7.9076242  69.7565985
  77.9126310   7.7818358  69.4087362 114.5763016  26.1869860  71.0263729
 114.4430161  26.6292334  70.1879930 115.5207062  26.0374951  71.0708332
 108.0314857  90.1107194  18.2871029 108.5154087  90.1164128  17.4612686
 107.2599441  90.6508996  18.1163380  97.7832508  47.9329681  86.5905476
  97.5733566  46.9991589  86.6039562  97.3157787  48.2725906  85.8274174
  73.9286184  22.6771116  75.0300074  73.9058495  23.5882521  74.7375393
  73.2271099  22.6160836  75.6783819  19.1994988  72.0394565   3.5719654
  19.9612557  71.6304995   3.9827320  19.2489754  71.7707707   2.6545879
 112.6095581  30.6222486  95.7531261 112.5441456  31.5682435  95.8836937
 112.5618172  30.5075979  94.8040199 117.7312851  16.4194369  47.6427555
 117.6103497  15.4966891  47.8666878 118.2480240  16.4046681  46.8371534
 108.7042141  23.9522982  86.8898869 108.2187080  23.3033800  87.3992252
 109.6154404  23.8344598  87.1582317  41.1414580  23.1577706  68.2775021
  41.5826659  22.7248311  69.0083456  40.9516959  22.4514627  67.6599646
  18.4561001  52.0728545  13.8280270  18.7480675  51.2315424  14.1789982
  18.0086838  52.4958362  14.5609161 100.3289890  58.1355238  95.7645893
 100.8307266  58.6125183  96.4256191 100.1481342  58.7857676  95.0858307
  83.1590462   3.3762458  47.1303320  82.8916454   2.5229588  46.7888260
  82.5720501   3.5328391  47.8700209 114.3156528  26.8094158  65.2670097
 115.0889206  26.6109610  65.7951212 114.1916656  27.7530527  65.3690434
  44.3857783   2.8895575   2.5356266  43.9428347   2.3045260   1.9209930
  43.9688223   3.7403209   2.3993179   5.3024726  18.3310366  62.5058365
   6.0619979  18.8907075  62.3442030   5.0674109  18.5036981  63.4175158
 109.5528889   4.5400718  62.5542259 110.1197815   5.2029002  62.9485893
 109.8009205   4.5320797  61.6297579  89.3693924  64.0933514  67.9414797
  89.0236855  63.2314301  68.1734419  90.2310658  64.1255760  68.3570766
  96.4210129  46.2822151  64.7524643  95.7558155  46.1444283  65.4268169
  96.5441799  45.4189920  64.3576050  88.9507294  31.5086508  68.9629841
  88.8632298  32.4487829  68.8057423  88.0741405  31.2269807  69.2247105
  58.2849997   8.9800746  24.0887711  59.2358511   9.0429026  24.1791794
  58.1191271   9.1700131  23.1653854  13.5355412  79.9007227  22.5228283
  14.2718827  80.1989295  21.9888756  12.8217637  79.7748996  21.8975899
  16.6129338  88.6388494   3.2406113  16.4932572  88.0983664   4.0214989
  16.9396245  89.4740583   3.5751698   9.3096690   9.3371260  53.9542627
   8.5282378   9.8899382  53.9550161  10.0238375   9.9322391  53.7261534
 102.5946331  13.5141873  48.8625860 103.3829689  14.0161991  49.0693521
 102.0501709  14.1197205  48.3594799  84.6877289  23.9365673  60.6473827
  83.8056755  23.8162398  60.2956247  85.2535534  23.9507294  59.8754549
  50.5041807 100.8005257  65.3791714  50.4917067  99.8577697  65.5443573
  50.3059119 100.8828885  64.4463634   5.8189904  98.6695768   0.5887386
   6.2572419  97.8201772   0.6406757   5.5890213  98.7643148  -0.3355816
  82.9249304  70.8659978  55.6375265  83.3186072  71.6210456  56.0747385
  83.0038374  70.1537557  56.2721252  77.2540426   5.1954997  61.4359903
  76.8075132   6.0376501  61.5233183  78.0094433   5.3816247  60.8783531
  78.2101393   1.3998149  67.6128626  77.4835300   1.7033811  68.1570339
  77.9309654   1.5840463  66.7160082  28.3604674  22.9059291  25.2218223
  27.7612643  23.2167101  25.9005022  29.1695075  22.7028155  25.6913185
  13.1267678  49.8373343   3.4523937  13.8474404  49.8295523   2.8224823
  13.3313595  50.5635448   4.0414593 106.8798161  41.9339180  72.7674770
 107.0133114  41.1944962  72.1744585 106.8864250  41.5440655  73.6416626
 101.7270470  35.9114552  80.6705189 101.8880558  35.2215815  80.0267982
 102.5562191  36.3865972  80.7248497  92.5739973 105.9837545  57.1479464
  92.0850580 106.2625606  57.9221869  92.3188132 105.0701566  57.0196819
  47.8983134 110.0500659  48.5824203  48.7590330 110.3625120  48.3035469
  47.4087923 110.8469211  48.7864399   3.5788380  47.1049012  13.4613678
   4.0708958  46.3420053  13.1578800   3.1984555  47.4766649  12.6655457
  92.8583050   8.1172055  68.1713820  92.3843288   8.0631006  67.3415279
  92.9528236   9.0560097  68.3324480  40.4701203  11.1215789   6.7635414
  40.8229941  11.9785649   7.0028851  39.7698897  10.9654147   7.3972008
  91.2165260  10.5732429  85.2182293  90.4103374  10.9279001  84.8433876
  91.2990761   9.7027838  84.8287201   0.8727889  14.2800343  40.7374763
   1.1883311  13.7114453  41.4398813  -0.0381417  14.0165579  40.6070280
  76.1837578  21.5946245  90.5339241  76.4210367  21.9479060  91.3913155
  75.8355951  22.3457050  90.0534058  82.9321194  18.9533782  79.8719168
  83.2350445  19.7714233  79.4778681  83.3745193  18.9178300  80.7200050
  35.7675587 103.5490801   0.5313561  35.7772099 102.6956703   0.9647533
  36.0743748 103.3698227  -0.3574398 101.1426163  42.6908970  96.0836983
 100.6676292  43.1872702  96.7502117 101.6109562  43.3555031  95.5785370
  88.3755875  27.9972792  13.0785179  88.6051178  28.7611985  13.6076403
  88.8347626  28.1332517  12.2497261 117.1006203   9.0992379  81.5181065
 117.9786301   9.2491823  81.1676216 116.6741848   9.9548495  81.4700031
   3.4166371 100.5796816   6.8031189   3.0949818  99.8118974   6.3306019
   3.9226471 101.0666086   6.1526749 110.7194328  29.3785119  49.1247749
 110.0001431  28.7611818  48.9915276 110.5661392  30.0679541  48.4787083
  48.6064928  99.1864962  33.0465674  49.0362185 100.0354941  33.1503582
  47.7103155  99.3330593  33.3492517  81.7740440  28.0461121  76.9339705
  82.5230122  28.2856822  76.3881826  81.2532234  27.4619150  76.3828850
 106.4292145  53.7236404  56.9838810 105.9679222  54.4723701  57.3618174
 105.9249592  52.9621458  57.2703934  25.0608956  94.2889454  19.6008942
  24.9156033  94.0235068  20.5090019  25.6867157  95.0108411  19.6595642
   0.4056029  58.9293051  66.6927290   0.6716590  59.8485279  66.6711664
  -0.3593583  58.8878441  66.1188459 115.4356766  34.3196344  84.4812584
 115.5764961  33.4403467  84.8323250 116.2677670  34.7706747  84.6241283
  83.6386299  27.4285173  63.1119251  84.3924999  26.8425679  63.1795740
  82.9997540  26.9380903  62.5946760 102.9955292  37.3459578  57.4772882
 102.5395775  36.5047073  57.4520779 103.6030865  37.2671485  58.2127476
 100.3446674  27.3663592  75.9730911 100.1910591  28.0751348  75.3483725
 100.5369663  27.8118300  76.7982006  88.2163906  34.1640782  69.0084028
  87.9929161  34.8680401  68.3995247  89.0296173  34.4540358  69.4217062
 107.2793102  52.0876789  33.5648060 107.9207325  52.6429749  34.0080285
 107.6633167  51.9178104  32.7046251 101.9432449  34.7207713  57.3620510
 101.0504627  34.3818283  57.4274921 102.3666382  34.1569686  56.7146730
  92.0529652   2.6590100  76.1847591  91.5647125   2.5556707  77.0015574
  92.8695583   3.0846220  76.4460468  86.9540119  35.4206038  78.9571142
  86.7097855  35.8685589  78.1472254  86.1898899  35.5191445  79.5251226
 101.1810303  70.0857735  74.0571547 101.7186260  69.3891668  73.6803675
 101.0482883  70.7020426  73.3368587   1.5388446  72.1778965  55.9043455
   1.9838290  71.5250731  56.4447594   1.3164096  71.7107916  55.0990105
 105.9069824  36.6876721  71.0923243 106.5449047  36.5822434  71.7981339
 105.7625103  35.7996893  70.7654428  79.4097805  24.9970627  32.0699501
  79.6494436  25.9219527  32.1280241  80.2323914  24.5273829  32.2076011
 108.5940647  39.6026778  64.2784166 108.5303783  38.6616683  64.1150808
 107.7980614  39.9673200  63.8915777  86.6951180  19.6197248  65.3363466
  86.4437580  19.8393404  66.2334633  87.5463676  20.0406623  65.2162504
  99.5091820   5.4122061  46.5381813  99.4896317   4.8688740  47.3259878
  99.4037724   4.7919595  45.8167839   5.0811343  44.6149731  59.7010565
   4.5492320  45.3165245  59.3253708   5.6697612  44.3549871  58.9924288
 111.4419460   1.0488718  63.9154339 110.6733036   1.5314339  64.2196608
 111.5273094   1.2910800  62.9933310  24.5703368   3.1824407  73.2473755
  24.7979598   3.8067701  73.9363098  23.8650946   3.6092362  72.7608347
  91.1766052  19.4001758  43.3281517  91.3155174  20.2226090  43.7977648
  91.9515800  19.3068707  42.7741289  70.3770876  21.3418722  74.2546177
  69.9564743  22.0416284  74.7542810  70.5910015  20.6761050  74.9082422
 109.6069717  58.0186701  81.8904114 109.6958256  57.4183655  82.6306629
 108.6663437  58.0450726  81.7150211  76.3374233  13.4131229  66.6222668
  76.2404442  13.6643183  67.5408125  77.0269108  13.9870965  66.2885094
  18.0106406  64.6252537  62.6954889  18.7804179  65.1940060  62.6812458
  18.2761340  63.8504219  62.2001314 111.2041855  53.3634233  57.1155071
 111.1435032  52.4106264  57.1842241 111.2826538  53.5313177  56.1764193
  33.6195486  96.3141258  59.0037632  34.4892233  96.1538644  58.6374044
  33.0176800  96.1230106  58.2844114   4.9572425  26.1456418  75.9685802
   4.9025111  27.0608568  75.6935930   5.6927447  26.1230564  76.5807533
 102.7330780   5.1620251  89.0614605 103.2311916   5.3445274  88.2647133
 101.9460678   4.7121459  88.7541389  35.8178746 108.1166317   1.0310432
  36.7581402 108.2044651   0.8747742  35.7559620 107.6111604   1.8415329
  83.6853331   0.8780724  11.1117622  83.1495970   0.4638535  11.7882607
  83.2578390   0.6405932  10.2889130 104.1290665  64.2633533  70.7264185
 104.3983936  64.2652798  71.6449451 104.9406052  64.1211462  70.2391624
 116.0183430  66.0760117  61.7533970 116.2176704  65.3881454  62.3884869
 115.1910686  66.4498091  62.0569229  27.4146210  78.3959295  22.3544285
  28.0901276  77.7249457  22.2559711  27.7317368  79.1333749  21.8330452
 114.7224236  13.1479681  68.0527878 115.0715733  12.3741531  67.6105928
 114.5601845  13.7741983  67.3472786 117.9521751  22.3177218  72.2482920
 118.1574440  21.5291643  71.7460251 118.3673954  22.1748042  73.0988216
 105.4716396   2.3929180  55.0573730 105.2355957   2.5514734  54.1433811
 104.7228050   2.7170008  55.5578184  61.7231499  71.7896344   3.9236042
  61.0702549  71.2878157   3.4356091  61.2453782  72.5532831   4.2473480
 106.4342880  18.3583260  71.5474463 105.7243347  17.7249360  71.4424706
 106.6720963  18.6019909  70.6528473  88.1751060  24.4715047  53.4645081
  87.4497318  24.3452978  52.8528500  88.8446712  23.8526964  53.1729603
  17.1367602  42.5727177  60.8784914  17.3159747  43.2824230  61.4952850
  16.2406497  42.7330494  60.5826759  93.8905334  32.5266242  75.1271677
  93.2954884  31.8206263  75.3796101  94.3262100  32.7756071  75.9422874
 111.9065952   0.4618993  82.4286652 112.8312588   0.3826195  82.1942711
 111.5378666   1.0365315  81.7577934  78.8089085  54.1126204  21.4615369
  79.6111631  53.6292171  21.2641954  78.4242296  53.6456585  22.2032952
  85.0572890 108.0458842  74.9811888  85.3211706 107.6681228  74.1422033
  84.1103094 107.9111163  75.0172806   0.0835089  59.6486568  76.6979074
   0.5319266  59.5061922  75.8643246  -0.0784059  60.5916834  76.7246675
  64.6446532 104.0620197  44.9622869  64.3704813 104.6021063  45.7034779
  65.2802485 103.4502919  45.3338337   6.1049323  15.4802692  62.0274591
   6.7281871  15.2917266  62.7290583   5.9136157  16.4134359  62.1214199
  89.7059155  28.9526558  84.3117809  90.1716042  28.8151240  85.1366806
  89.8954868  28.1688070  83.7961483   5.4253457  40.6726128   5.9671852
   4.5536111  41.0601575   6.0453579   5.7521508  40.6348283   6.8660709
 100.6145382  46.6324902  83.8232136 100.7069683  45.7056856  83.6024761
  99.6767998  46.7502165  83.9748955   6.6704898  42.9256153  64.4744396
   5.7208400  42.8223181  64.4133663   6.9598250  42.1768093  64.9957895
  21.0939919 103.8657858   6.6091892  21.9012295 104.2019226   6.9985554
  20.4532086 103.8998510   7.3194477  19.1707455  74.9410893   7.6248047
  19.9849831  74.8120059   7.1384022  19.1537034  75.8782508   7.8188965
 106.8163681  44.0483904  80.8801365 106.2561798  44.3170023  81.6083336
 106.7584610  44.7704411  80.2544117  92.8271770  45.3979111  93.1999493
  93.1185913  44.9689913  92.3953819  91.8824577  45.5026197  93.0869007
 111.5233612  24.5367503  57.5091887 111.7776585  23.7320709  57.0574617
 111.0397720  24.2367697  58.2788515  93.2900429  38.0459523  50.9117603
  92.4549103  37.6492977  50.6638718  93.7266064  37.3759842  51.4378595
  98.9923573  20.7890415  82.0563698  99.4096756  20.1904893  81.4368534
  98.4115696  20.2313781  82.5739861   5.2039771  32.7461433  61.6365671
   5.5827002  32.0356393  61.1188936   4.7483687  32.3040199  62.3529291
   6.5508418  64.8749304  35.3025317   7.4149661  65.0834990  35.6575298
   5.9360080  65.2394009  35.9392142  74.9877947 107.0753251  76.8785763
  74.0648859 107.0089225  76.6334867  74.9907225 106.9740273  77.8303957
  59.0391176 105.6107099  89.6174049  58.3517760 105.5939056  90.2833748
  59.7102278 105.0151254  89.9507713 100.2126694   6.1741030  68.6789608
 100.6431007   6.3081312  67.8345680 100.0166798   5.2374631  68.7018967
 108.3387947  46.0650873  54.2453146 108.5869122  45.3964567  54.8837519
 108.8529110  45.8544827  53.4658527 100.3052330  13.1864440  74.2340612
 100.5203915  13.8902819  73.6220551  99.5774174  13.5323775  74.7506332
  51.9113463 110.6898678  41.1793947  52.4289816 111.3936527  40.7882786
  52.5397604 110.1931066  41.7033720 117.3830318  25.2387357  56.3378143
 116.7379475  25.9444380  56.3835096 117.2264767  24.7196889  57.1266842
  26.3164477  45.7052422  39.9019289  26.1790232  46.6449690  39.7824979
  26.9751696  45.6455421  40.5938482  94.6252728  17.2086382  56.9632339
  94.7488976  16.6321969  57.7173328  94.6004868  16.6171038  56.2110996
  92.7613163  54.1559362  33.7978840  91.8451595  54.3996572  33.9301395
  93.0854511  53.9570332  34.6762943 111.3319302  38.6446357  65.5438232
 110.4444790  38.3028388  65.6526136 111.2499619  39.5827818  65.7152700
  38.8405835 104.3842079  12.4201653  38.1194054 104.7212316  12.9517147
  39.1564213 105.1460697  11.9343254 101.2127686  76.9598150  54.1960239
 101.3567734  77.4606419  54.9989319 100.2838802  76.7300177  54.2204285
 118.0585957  52.5221491  86.2920666 117.7493858  51.7352915  86.7409229
 117.3464489  52.7531290  85.6956387  29.6641974  58.9921522  66.6534519
  29.5747046  59.8400545  67.0885229  28.9939837  58.4425879  67.0596790
  90.2341366  37.6657200  69.9827003  89.9156380  38.2526231  70.6685066
  90.8418655  38.2010698  69.4724989  93.2810116  27.2859192  60.0546741
  93.6147976  28.1240153  60.3746986  92.9984188  26.8236113  60.8437490
  82.1085644  47.2681570  57.1235085  83.0617523  47.3049688  57.0441532
  81.8675995  46.4298439  56.7292929 111.3022709  10.7822919  60.0385332
 110.4034805  10.4831338  59.9010181 111.8391418  10.1628852  59.5442247
  89.7430611  35.4433155  91.0894966  89.6509838  34.6361446  91.5956879
  90.6696892  35.6703711  91.1672115 110.3419781  22.0104241  85.4442120
 110.5398560  22.3311400  86.3241100 109.6900654  22.6245356  85.1064205
 114.2255783  38.9335775  75.3694391 114.0358067  39.2734981  74.4949818
 115.0424576  39.3640518  75.6216669  98.9982891  40.2847242  46.1742353
  99.7809601  40.2620840  45.6236362  99.2631245  40.7843685  46.9465351
 112.1572399  20.4820776  81.6774273 112.2811794  19.7200584  82.2432899
 112.0022392  21.2072086  82.2827244 116.0719776  48.2348394  60.8586645
 115.6805229  48.1612253  59.9882746 115.4450035  47.8050232  61.4403915
  88.2470131  35.5726504  57.8673792  88.0983829  35.9383893  56.9953823
  89.1675568  35.7593560  58.0516958  73.2906103  19.8563504  51.9469357
  72.3727369  19.5861626  51.9740057  73.3647013  20.5217171  52.6310587
 116.8760586  33.9596534  42.4098492 117.3405075  34.7937799  42.3409224
 117.3627853  33.4684849  43.0717278  91.9618511  39.3838167  80.8119106
  91.8724632  40.2264738  80.3667450  92.6784325  38.9453745  80.3530884
 100.9617901  36.2713313  89.8025894 101.5869236  35.5880713  90.0446510
 101.4990616  36.9592667  89.4097614  69.2475449 102.3939659   7.1235535
  69.4600712 103.3067562   6.9289181  70.0864350 101.9976999   7.3590633
 109.5814896  50.2259350  75.7753372 109.2066193  49.4538021  76.1990213
 110.5048466  50.2128077  76.0272741 113.7248898  19.1286325  83.4007835
 113.8800907  18.1849074  83.4398842 114.6005344  19.5151210  83.3901024
 114.7018814  29.9144483  58.3013296 114.5643234  30.8615971  58.3161497
 113.8192177  29.5444417  58.2861280 107.0324326  41.7524719  49.5492792
 107.1235466  41.2692308  48.7280560 107.1240330  42.6714993  49.2978191
  78.3477306  14.7895348  64.8225498  79.2484093  14.9027324  64.5189142
  77.8529310  14.5778942  64.0309620 109.0606976  26.0010695  75.1051617
 109.0457439  26.6650152  75.7944965 108.4464073  25.3308940  75.4047441
 113.5488129  28.2816100  33.7016082 114.2848778  28.8795972  33.8314223
 113.6980534  27.9025626  32.8354192  46.4199769  99.1429283   9.5510456
  45.6173550  99.3477251  10.0307152  46.1232316  98.9362385   8.6647961
 102.3819750   5.5128724   4.5590279 102.7870577   6.2409121   4.0877506
 101.6570776   5.2379042   3.9976379  96.4894026 110.8350141  90.6540680
  96.5140837 111.5911521  90.0676632  97.1782702 111.0071623  91.2959862
  86.9701004  33.8534856  59.6225929  87.5127888  34.3963814  59.0507698
  86.1124325  34.2783928  59.6129608  70.2400446   5.3418761  61.3963366
  71.1866283   5.4677325  61.4624786  70.1040173   5.0097066  60.5089855
 105.9425735  32.2495651  64.7064686 105.6255436  31.7999387  65.4897690
 106.8305492  32.5266290  64.9322081  97.8376484  40.0552702  83.7599945
  98.4386063  39.3467808  83.9904881  97.7154160  40.5406141  84.5759201
  77.2579050  37.2907114  86.6758156  77.1264172  37.9288793  87.3770142
  76.4790487  36.7352343  86.7083549 108.6642933  44.4225359  31.5475082
 108.4074020  45.2730703  31.9036388 108.2246590  43.7847567  32.1098113
 110.0766659  41.0392237  54.1231728 109.5192623  40.5391264  54.7193527
 109.6245670  40.9970188  53.2805252  97.4646300 108.9819027  88.4158134
  98.2040995 109.5664192  88.2492256  97.0450037 109.3430793  89.1966534
 103.2035654 109.3174220  63.5989714 103.4937971 110.2289442  63.5654593
 102.2483748 109.3711815  63.6298609 110.2323055  33.9040685  83.2105064
 111.1679935  33.9964104  83.0310631 109.8176479  33.9488339  82.3489571
 113.6954403  30.1395798  21.2049937 113.3984375  29.2662048  20.9495759
 112.9286575  30.6990099  21.0812902   4.0028147   9.1725242  80.9649658
   3.0851035   8.9532191  81.1260128   4.4958739   8.5154313  81.4562511
  15.2810817  13.0396593  58.6120796  15.5940490  12.9657102  57.7105188
  14.9492697  13.9351022  58.6777401 100.8428192  51.3493204  84.2266178
 101.2198067  51.9651604  83.5982418 100.1083183  51.8238783  84.6158886
 110.6932163  45.9785795  89.7448730 110.2149963  46.3712358  90.4751873
 111.6142941  46.0512352  89.9950218 101.8585300   3.4327817  66.6739082
 101.2830830   3.8325498  67.3260498 101.2644196   2.9778257  66.0770130
  58.2704960 103.8159086   3.2368061  57.5152813 104.3740036   3.0512783
  58.9484345 104.1222765   2.6345036  90.4703140  38.3111238  64.8180676
  90.1416683  37.4362135  64.6112871  90.2373981  38.8408566  64.0555954
 111.6756630  43.6590767  57.3925972 111.5244198  44.6031046  57.4392176
 110.7986736  43.2777739  57.3509598 108.1387711  36.2713742  84.8637104
 107.8823376  35.6863356  85.5766010 109.0958023  36.2605906  84.8775196
  94.8318958  26.0510230  73.9871836  94.4515800  25.2705288  74.3901968
  95.7017517  26.1237288  74.3799877 111.1502457  56.7156839  75.9994602
 111.0835171  57.4696112  75.4134798 111.6542244  57.0372343  76.7470217
 101.4547634  17.2669971  55.9165859 100.5927944  16.8895829  56.0920811
 101.3596630  18.1937838  56.1362600  13.7408023  18.6651313  86.0312176
  13.5653453  17.9075480  85.4730797  13.8106494  19.4002700  85.4221821
 115.8396816  25.0438571  86.6592503 114.8894882  24.9286103  86.6498089
 116.1819458  24.1896200  86.9226170   8.0764537  73.8932371  71.7366314
   8.4800677  73.1841040  71.2361717   7.5554900  73.4482670  72.4050856
  16.6666465  35.7979846  68.0564690  16.9806628  35.4643750  67.2160292
  16.2748389  36.6456723  67.8463745   1.8785607  97.9351904  14.0508339
   1.6611611  97.9783251  14.9820206   2.0390736  98.8448812  13.7999699
 100.2746201  60.3409004  63.4230614 100.3259087  60.7092142  62.5410461
  99.7591114  59.5411110  63.3190346 107.3501587  22.0238256  90.1734638
 107.1382999  22.4021077  91.0268402 106.6033840  22.2501636  89.6190929
  84.3186092  25.7092929  66.5141106  84.6419239  26.4827871  66.0521603
  83.3656025  25.7748222  66.4531183  96.0132027  35.5120873  50.0126696
  95.2059364  35.0382781  50.2128363  95.9406567  35.7266617  49.0826559
   7.9387812  35.0055766  57.2643948   7.9743056  34.5889473  56.4033556
   8.1225638  34.2969728  57.8811073  36.2709557 101.1495067   1.6497395
  36.9386708 100.4655601   1.7008373  35.7794224 101.0658838   2.4668285
 107.6743317  24.7420382  71.4039040 108.3100891  24.9289632  70.7131815
 107.3859119  23.8464379  71.2279797   2.1042876  15.0971603  58.2287598
   3.0606799  15.1123452  58.2649136   1.8273215  15.5575180  59.0209675
 111.6145229  65.5601931  43.2767105 111.2345123  66.0069561  44.0331697
 111.4189243  66.1343861  42.5362587  99.7790623  24.9692535  46.4439631
  98.9538860  24.5900822  46.7465210  99.6522141  25.9145498  46.5249252
   0.0237040  44.3905401  85.7929134   0.5050425  45.1213217  85.4049683
   0.6588130  43.9638424  86.3680744  18.6147170  35.5850291  62.7912188
  19.2668967  36.2303114  62.5182629  17.7869849  36.0657477  62.7898693
 109.3541908  39.3011856  56.0365677 109.1567612  39.0109634  56.9270897
 109.8869801  38.5967255  55.6676579  17.2072272  63.4467316  73.0389404
  17.0222335  64.0412283  73.7659836  17.9950957  63.8055897  72.6306391
 116.2822056  28.9661694  80.7032967 115.9632683  29.6129704  80.0738907
 115.7349491  28.1953955  80.5527782 107.7507591  17.6767421  80.3584290
 107.2786808  18.5080028  80.3096485 107.8731728  17.5254631  81.2956429
 106.6193771  40.4216862  27.7761364 106.8832397  41.0822535  28.4166503
 107.2938538  39.7453022  27.8379154 111.1832619  50.7311153  58.0496073
 110.6784630  50.3045416  57.3571873 111.3488579  50.0370121  58.6875916
  14.7283606  59.8698759  65.9834957  13.9180808  60.0373077  65.5022001
  14.8393397  60.6400585  66.5409327  66.5548723  94.1215248  87.5288391
  66.3999861  93.3619125  86.9673824  66.4414519  94.8748369  86.9492722
  10.2517562  45.1306820  65.0840902   9.9603801  44.2432356  64.8748779
   9.9264388  45.6663895  64.3606091  98.2961750  64.9114847  74.3747044
  99.0709972  64.3495893  74.3869448  98.3620358  65.3923416  73.5496759
 101.2431049  46.9189024  64.2636395 101.7658138  46.8894863  65.0649786
 101.6125298  47.6465034  63.7632799  50.6629597  99.0347530   6.7437241
  50.6705700  99.4919588   7.5846359  50.8171975  99.7223045   6.0958740
 102.1380901  40.7669449  62.1489668 102.6429176  40.8327103  62.9595566
 102.6293945  40.1465464  61.6104889 112.6633739  51.1257982  36.2462211
 111.8697929  50.9480429  35.7413745 112.4692535  51.9340134  36.7209148
  20.1333575  82.5948906  58.1032991  20.1865058  83.4881496  57.7634668
  20.2840190  82.6871681  59.0440512 100.8257294  20.2349496  56.1066008
 101.1276817  21.1432552  56.1003304 100.1857185  20.1903987  55.3962326
 115.8805561  19.7536457  57.6402617 116.1322403  19.5314646  58.5366583
 116.6164970  19.4576812  57.1045160 116.6261292  24.8850012  64.3607044
 117.2415543  24.6551061  63.6645460 115.8229351  24.4158149  64.1349316
 112.6473904  13.7873018  79.3830109 112.9368019  14.5769191  79.8401499
 112.7190399  13.0920601  80.0370216  25.1741938  50.9068489  62.3732281
  25.0729422  50.2077007  61.7273426  24.5024733  50.7249022  63.0304337
  91.5597439  36.2234926  77.8299570  90.7515621  35.7313943  77.6853228
  91.7929935  36.0388970  78.7397671  68.2555580  45.6067848  47.8528070
  68.9072943  45.9918118  48.4386635  68.4027290  44.6632051  47.9178858
  45.2762639  74.7883131   9.6709988  45.6776558  74.0664841   9.1871712
  45.6205498  75.5775763   9.2529461  25.3835457  96.1319752  71.5908766
  26.1473578  95.9171743  71.0554457  24.8129338  96.6297717  71.0053539
  82.1582716 109.5171070  95.9446335  82.5953882 108.9112694  96.5430546
  82.4247950 109.2263448  95.0724792 104.4855595  62.1072245  66.8940115
 104.1441727  62.8562164  66.4054441 104.8050022  62.4821138  67.7147722
 112.6920128  50.8856010  68.3550692 111.9419956  50.2971601  68.4413862
 112.6545429  51.4375496  69.1362095  11.6949324  28.0624366  62.1980381
  11.0490947  27.5360274  61.7268419  11.1908965  28.5052395  62.8807545
  16.5625624   5.4644567  47.5302553  15.8804183   5.0430691  48.0530787
  16.0891394   6.0785103  46.9689703   0.7173018  52.2107267  16.8386948
   0.3529315  52.9116058  16.2981069   0.2245574  52.2593069  17.6578891
  12.4064498  67.3813105  84.4094181  12.2499900  66.4813232  84.1234493
  12.9266600  67.2918844  85.2079296 103.6199570  18.3644974  85.2474308
 103.6016178  18.1780875  86.1861324 102.7006435  18.4835494  85.0088787
 106.9179630  61.4316082  48.9097214 106.3701057  60.9152699  48.3185482
 106.4754581  61.3754559  49.7566414 116.4118767  39.2861629  46.9898367
 116.1878681  40.1968241  47.1815395 117.2367191  39.3389344  46.5070581
 111.1079979  65.4375648  56.7091894 111.8707848  65.7676983  57.1839571
 110.4110909  65.4105234  57.3647928  64.9292564  35.2144837  95.2339649
  64.6104527  34.7917676  94.4365215  64.1648197  35.6713271  95.5848980
 117.1856117   8.3173811  48.5840845 117.2700405   8.8522887  47.7947950
 116.2496662   8.1262368  48.6449003  88.3919334  28.3516431  66.5890694
  87.9001808  28.9704323  66.0491514  87.8808117  27.5431538  66.5526247
 109.3766689  17.8012538  60.5515242 110.1453495  18.3277023  60.3319740
 109.4870663  16.9946265  60.0481415 108.1917953  18.2897103  85.9200478
 108.0190468  19.0422785  86.4857578 108.5323811  18.6714125  85.1110077
  87.1738911  24.5564246  48.0700874  87.5638390  25.2372432  48.6184120
  86.4458847  24.9929380  47.6277208 107.4075508  31.3774490  60.6403065
 106.7145729  30.8657694  60.2229452 107.8068066  31.8698072  59.9230814
  63.9914452  65.5825742   2.2599861  64.3356072  64.7607674   1.9101116
  64.7407280  65.9905733   2.6939747  85.4951286  33.1378150  62.7162313
  84.7012138  33.3477902  63.2080126  86.1187553  33.8198161  62.9656172
  34.1216504  88.4447862   3.8550922  34.7094380  88.1618692   3.1545994
  34.3252408  87.8636243   4.5879242  16.9434695  30.9957194  77.5288582
  16.0753302  30.5934882  77.5010777  16.8006186  31.8945026  77.2321939
 104.9604607  58.8852835  44.8646259 104.7181034  59.5153427  44.1860104
 105.2560616  58.1140518  44.3808413  13.4322678  99.7061683  13.2966301
  13.9913403 100.1320221  13.9464924  13.8673054  99.8727562  12.4604294
  85.9136027 109.4511397  90.5296898  86.1811941 110.3063184  90.1931000
  85.5499285 108.9975571  89.7692680  98.2542133  21.6239691  92.5124836
  97.4034405  22.0519948  92.4164867  98.5154343  21.4068675  91.6175747
  80.1956558  50.5815411  45.1473665  79.8043728  50.6057453  44.2741299
  79.5548630  50.1151562  45.6841135  14.9981837  13.5342300  52.1446609
  15.8368735  13.1203794  52.3485518  15.1337294  14.4607365  52.3432684
   2.2549586  33.3464861  40.0276232   1.7688041  32.6845050  39.5360303
   1.9689231  34.1801524  39.6542406 102.1245480   8.6781943  74.5822763
 102.9825115   8.8488871  74.1936874 101.8961716   7.7985942  74.2816496
   3.5627990  16.2905860  69.0179634   3.2694678  15.5712628  68.4587097
   4.4271140  16.0176158  69.3256617 102.0372868  35.0997996  73.9645052
 102.4309349  35.9703565  74.0228844 102.5228882  34.5742369  74.6002769
  89.6675396  21.7535973  61.4729643  88.8348675  22.0989323  61.1510229
  89.5060062  20.8187270  61.6000700  99.8651314  28.2870841  50.4566574
 100.5550575  28.2590485  51.1195660  99.4924831  29.1652083  50.5357885
  17.9391627  49.3298340  47.6524496  17.4334483  48.5675049  47.9341078
  18.8347583  49.0037632  47.5639963   1.7880969  53.0720234  28.4551525
   1.6403441  52.3806906  29.1004848   1.4291911  53.8604498  28.8623428
  36.6664826  90.5179455   7.8595230  36.7699276  89.6017315   8.1165955
  37.5099026  90.9211160   8.0652496 111.1568928  33.5807443  70.6250477
 110.2026844  33.5817266  70.7006502 111.3504791  34.3022037  70.0265074
  40.1213490  86.2461425  13.8197205  39.3561017  86.6882827  13.4521076
  39.7572552  85.5292846  14.3391201  25.1378857  73.8788833   4.9558231
  24.9422871  73.7627567   4.0260479  24.6606289  73.1724407   5.3910324
  97.8317373   9.3323571   2.5318310  97.0695608   9.8750312   2.7338764
  97.5432699   8.4376389   2.7121040  97.5975323  94.4276142  31.0380888
  96.8521118  94.6628189  31.5905929  97.2346592  93.8226604  30.3911090
  34.0087180  39.5018744  84.9931812  33.4119181  39.2028427  85.6792164
  33.7864451  38.9657950  84.2319679 104.7413635  39.1958356  71.2684488
 105.0414181  38.2869697  71.2559605 105.3882313  39.6688414  70.7449436
  11.6289859  52.6293802  66.0914850  12.2592215  52.5328970  65.3775311
  11.6908126  51.8075037  66.5782404  15.7055335  44.4608688  90.5865192
  15.5777125  44.9247646  91.4139843  15.1999430  44.9648142  89.9488354
 104.8290157  64.7366714  59.3356800 104.4308949  64.0391541  59.8564434
 104.1542625  64.9762058  58.7004185 114.8839951  41.2646961  89.1388893
 115.5998039  41.2932062  88.5040379 115.3046799  41.0208941  89.9633980
   8.2505469  48.5965729  74.6527529   7.5071578  48.2072544  75.1132154
   8.8310866  48.9016008  75.3500080  96.2053585  60.4313517  93.9607430
  95.8338547  59.5499992  93.9986038  96.1459732  60.6768513  93.0374718
 110.3829479  85.2769852  93.6052322 110.6553555  85.9097385  94.2698002
 110.9145260  84.5007133  93.7814617 112.4785805  29.3632054  67.4862146
 112.4358273  30.2545261  67.8325510 112.4470043  29.4737220  66.5359402
  77.1088123  68.0801249  71.0708618  76.3845682  68.2426071  70.4664564
  76.8044090  67.3582888  71.6208839  73.4782427   5.2438123   1.0500977
  74.3996542   5.4506594   0.8937141  73.4727495   4.8017604   1.8990871
  97.5455856  71.5680981  53.5257196  97.5729942  70.6222486  53.6700964
  97.2438049  71.9289827  54.3593407 101.0900497  70.7598162  79.1866922
 100.7469273  70.2324152  78.4653425 101.5060806  71.5084505  78.7592745
 100.2010918  18.1690621  90.8872509 101.1468410  18.3089614  90.9342003
  99.8239803  19.0414488  91.0011101 100.6771946  62.2689819  39.5890403
  99.7339249  62.2715473  39.4264030 100.9331799  63.1893349  39.5285511
  78.0758112   2.9854400  13.4511349  77.9919070   3.5060078  14.2500088
  77.2528856   3.1294019  12.9839108  96.3896847  57.7441549  87.4391556
  96.4974117  57.6451302  86.4932060  95.4590702  57.5809669  87.5926208
 111.8432713  46.6572666  50.4616785 111.3256454  47.0509291  51.1640501
 111.2032795  46.1875582  49.9268723  41.4098488  89.4522573  11.3166401
  41.7432629  88.9607336  10.5659935  41.1984860  90.3160717  10.9625504
  14.8923068  20.7649279  76.4287901  14.2491679  20.4797840  77.0778704
  15.7361178  20.6728053  76.8711996  14.6880297  65.4573154  85.8856964
  15.5674319  65.1494646  86.1050510  14.4399409  64.9450064  85.1161385
  91.1386490  65.8564472  86.4283848  90.7329369  65.7340670  85.5701065
  92.0626640  65.6495953  86.2882137 104.1100883  44.9130249  85.3160381
 104.1814804  45.7988214  84.9603748 104.8436642  44.8402357  85.9266090
 108.1205559  55.6705046  60.5326414 107.4743748  55.1152515  60.9689569
 108.7746620  55.0579071  60.1963377 105.4685211  54.0233326  62.9727602
 105.4898930  54.4463158  63.8311672 106.2817669  53.5200214  62.9334402
 107.6088810  69.3683004  24.0766096 108.1655025  69.4899082  23.3074450
 106.8398952  69.9115467  23.9040637  98.3426571  42.4199057  56.5058279
  97.7535915  41.6736794  56.6170502  99.1022682  42.2083855  57.0484972
  19.6467547   5.8603746  53.2751083  19.7758250   5.2899730  52.5173378
  20.0585036   6.6875470  53.0251455  39.4195019 105.6260730  14.9274609
  38.4881054 105.4637291  15.0770256  39.4849717 106.5764333  14.8338482
 107.3914909  57.5329351  90.4133224 108.0183887  56.9692802  90.8666801
 106.5456581  57.1044683  90.5445194  28.7545161  64.3009090  65.1274109
  28.7943415  64.9066639  64.3873358  29.3600135  63.5972977  64.8938656
  11.9606070  57.0005941  75.1045752  12.5953727  57.6961565  74.9328375
  11.1099486  57.4054670  74.9351931  96.8147659  35.0624704  70.5470514
  96.5250111  35.1477265  69.6387577  96.0155201  34.8667836  71.0360670
  27.3043399  62.6306868  59.2357349  26.6263823  62.3253584  58.6329269
  27.1317725  62.1576023  60.0497627  69.1915053  22.6789004   1.1497280
  68.3745497  22.9056508   0.7054398  69.5676916  23.5215337   1.4040730
  94.4377899  41.8673897  50.5245495  94.1812134  41.2288046  49.8592615
  95.2810860  41.5505171  50.8480787   8.2039313  38.4573531  55.2073622
   8.0109362  38.0586910  56.0559225   7.7707152  37.8882003  54.5712614
   2.4521403  32.5183511  58.4523678   3.3373408  32.8569531  58.3182478
   2.0009284  32.6937699  57.6266098  95.1970005  70.9816408  69.2937469
  94.6036053  71.4962149  68.7466431  94.7028351  70.1891184  69.5033693
 108.2925224  54.1394281  94.0176296 107.8265381  54.8394394  94.4748783
 107.6577759  53.8023472  93.3854103  93.2799911  23.7785316  66.3685656
  92.6137543  24.2975354  65.9180164  92.7826500  23.2016754  66.9483280
   1.8453746  68.6392641  66.3132954   1.2711577  67.8980827  66.5060472
   1.9652514  68.6088753  65.3641176 108.0727291  48.5496044  80.6472683
 108.2105350  49.3341446  80.1164722 108.4414482  48.7711477  81.5023708
   8.7805228  30.2429891  33.1954026   8.8325457  29.8917890  34.0843272
   9.5249514  29.8508620  32.7390099   4.9390082  63.0426931  60.9006548
   4.4325118  62.9459906  61.7070913   5.2596144  63.9442492  60.9258366
 110.1026058  35.0004983  49.4082832 110.9592724  34.9313378  48.9868975
 109.8697281  34.0981889  49.6269941  88.0428505  73.0219603  87.4987411
  88.1101513  73.7276888  86.8555927  87.7663994  72.2597790  86.9899273
  15.8490138  30.3104520  44.7515392  15.2997451  30.8456492  45.3243399
  16.6681819  30.2049947  45.2353430  16.3624530  79.3102169  83.4114170
  15.9535270  79.7120094  84.1779518  16.4206462  78.3803177  83.6308002
  27.5682120  55.5775738  59.0088511  27.8450255  55.2122974  58.1685066
  28.3767848  55.8974981  59.4089603   3.8169627  61.7975998  63.2110453
   3.8450007  62.2350836  64.0619564   4.3554072  61.0146570  63.3264112
  88.0337620  59.7974682  52.1322012  87.3723316  59.1794109  52.4432325
  88.5892105  59.9578905  52.8950739   2.3774676  65.6141758  51.2625647
   1.6554503  65.6637049  50.6361008   2.4179702  64.6900749  51.5087891
   9.5354323  78.3396673  67.3729277   9.5926432  78.2409954  66.4225483
   9.9942260  77.5751495  67.7211523 103.6103535  91.9793892  66.6145945
 103.2632160  92.7992344  66.2630367 103.1478024  91.8595600  67.4440050
 100.2426243  35.8939910  72.0431709  99.8014545  36.6749835  72.3773146
 100.8197403  35.6212616  72.7564621  70.0249290  96.2766838  90.6167889
  69.8752308  96.0620499  91.5375233  69.3745804  96.9506454  90.4191685
  98.2616329  61.7248201  78.0365229  99.0405941  61.3345385  77.6401186
  97.8143692  62.1579838  77.3095036   5.5075602  21.6847181  85.0207996
   6.2397723  21.0885191  85.1777840   4.7283988  21.1360741  85.1109409
  91.4648724  17.9518247  89.0429401  91.5133572  17.1213126  89.5163727
  90.7665157  18.4373784  89.4820023 116.6605186  23.5527658  41.5071917
 117.3551750  23.3402324  40.8838844 116.0160923  22.8539181  41.3951111
   7.2471003  61.9507599  40.1313829   7.8478102  62.5709200  39.7181177
   7.7758746  61.5137672  40.7989693 117.6346493  51.8491697  38.7622118
 117.5373554  51.7091560  37.8203201 117.7427292  50.9700584  39.1251326
  99.1747665  52.2028875  68.7002516 100.0071430  52.5438738  68.3729696
  98.5165024  52.8058720  68.3548164  82.0592785  87.6937294  81.4117432
  82.0110989  86.8254662  81.8117809  81.1640930  87.8757095  81.1258030
 107.6714993  38.9924097  79.7711229 107.2924519  38.7501717  80.6160355
 108.5811710  39.2131114  79.9711609   5.8156066  55.6019592  62.3301125
   5.8603339  54.9925280  63.0668783   6.3051562  56.3700008  62.6245213
   7.2546057  29.6286559  77.7914572   6.9853072  30.5103207  77.5338173
   6.4334826  29.1690874  77.9669142  19.9086146  54.8202705  84.1141987
  20.3986125  54.0273619  83.8963890  19.6457724  55.1797247  83.2668877
  97.0526409  55.1232576  88.1713009  96.6662407  54.9952602  89.0376377
  96.9764519  56.0639763  88.0116749 101.9323444  68.3150005  93.2934952
 102.0953655  69.1172075  93.7896061 101.8395233  67.6352644  93.9610195
   1.2241797  29.1927743  65.3736782   0.6519942  28.5895205  64.8994207
   1.8179946  28.6241841  65.8639002  17.5501876  24.5130157  54.8985052
  17.9609160  25.1694632  54.3358231  16.7198615  24.9094582  55.1623631
 110.5866146  49.1468430  69.0003681 109.6981812  49.4047594  68.7546015
 110.5335617  48.9701700  69.9396229 116.3218498  59.0552568  84.4629955
 115.6839561  59.1020489  83.7508678 117.0164490  59.6601629  84.2024899
 113.8807297  26.8874216  73.5096216 114.1901493  26.6492581  72.6356792
 112.9302502  26.9532776  73.4174824  22.2955470  15.1851177  80.8225250
  22.7352195  16.0155559  80.6400490  21.3753371  15.4217315  80.9385109
  11.0942893  56.6323853  33.6421490  11.4116053  56.6166115  34.5450854
  10.8437876  57.5439739  33.4921980  10.0915866  85.2777481  54.2453814
   9.9443965  85.1964951  55.1877022  10.8426337  84.7106647  54.0705109
 107.4249649  35.5883455  73.0458975 107.8418827  34.7605109  73.2848644
 107.3103142  36.0476851  73.8778210 112.7358055  79.9239349  90.3587437
 113.0466366  79.8348236  91.2596798 111.7934799  79.7650623  90.4136658
  84.9144650  71.3797092  49.9978542  85.0836754  72.2663546  50.3163767
  84.2939281  71.4979172  49.2786980 113.0003262  47.2552633  55.6482315
 113.2645702  47.5833845  54.7887278 113.8213730  47.0048475  56.0717916
 103.8387203  34.1215515  49.6886826 103.8399601  35.0434661  49.9461794
 103.0549049  34.0249920  49.1478205  97.4932766  77.4167013  70.5851364
  96.9371510  77.9778862  70.0447369  97.0405293  76.5734720  70.5996418
 116.9311142  34.9652290  68.0151892 117.0441723  34.4647193  67.2071457
 117.1449566  34.3455386  68.7126732 104.2095375  72.8443813  75.9249544
 104.1043186  73.3131552  76.7528486 104.1312027  71.9201565  76.1613941
  14.2775492  67.5600624  45.5204630  13.3301215  67.5139570  45.6489038
  14.4162516  67.2198629  44.6365738  86.5419596  20.3490693  25.2043221
  86.5069788  20.2933938  24.2493889  87.3543089  20.8211905  25.3871223
  50.4412096   3.8735444  15.3551361  50.7084864   3.9800889  14.4422028
  49.5125311   3.6464555  15.3078625  94.4842815  73.0514336  81.1289215
  93.9748478  73.1662703  81.9311142  95.3783512  73.2863760  81.3772678
 106.1776829  51.3372374  79.1274357 107.0756245  51.0099363  79.0744352
 105.8536053  51.0125637  79.9675512 102.7441883  43.6894798  68.7522745
 102.7343082  43.5908890  69.7043324 103.6470032  43.4948635  68.5006857
  39.5759063  70.3062868  71.4693260  38.8770633  70.0513363  70.8669615
  40.3827624  70.1617479  70.9750271  48.2457482  84.9945475   0.1945564
  48.1340157  85.6303336   0.9013245  48.2718026  84.1463138   0.6373379
  91.1823463  64.1389847  31.6978645  90.4485226  64.5954418  32.1094298
  91.3792706  63.4161329  32.2936296  99.2935276  38.3647227  87.1698284
  99.6848965  37.5263572  86.9244671  98.9624691  38.2240295  88.0568790
  29.8110234  91.0519721   8.2927677  30.7019269  90.7129504   8.3798573
  29.7179829  91.2440111   7.3596546 115.0528049  90.4559708  59.1552401
 115.1796436  90.3423309  58.2133102 115.0901031  91.4029789  59.2894125
  52.9489283  66.4348412  81.2200165  52.4004893  66.9974279  81.7667675
  53.7523417  66.3178062  81.7270374  45.1156651  90.8101107  11.0462734
  44.6993958  91.3406660  10.3669712  44.4848763  90.8048536  11.7662117
 104.9241543  33.3972216  89.9409008 104.7830296  34.1162324  90.5568123
 104.6125889  33.7361073  89.1016674  95.1817989  68.4274292  96.3229370
  95.9321404  69.0092421  96.2016010  95.4919720  67.7613020  96.9363689
   2.1009402  38.6267257  86.7078495   1.7475848  37.9823208  87.3211288
   2.6369719  38.1133342  86.1034203  15.0566153  74.3145752  89.9390793
  15.7598357  74.0421200  90.5285645  14.4478278  74.7962856  90.4990482
  65.2688044   3.0628640   8.8051674  66.1403959   3.1013352   9.1989586
  64.7583979   3.7119967   9.2892620  90.5650616  65.9943342  83.7317848
  90.7171249  66.2188292  82.8137875  89.6556091  66.2459707  83.8924122
   1.8824916  57.3387098  58.9068127   2.4676947  57.3482466  59.6642256
   1.2722449  56.6230202  59.0846348   6.4902358  38.9324951  96.2242699
   5.6521659  38.8048959  96.6687775   6.7972140  39.7852874  96.5320778
  17.6428752  59.0537691  54.2206573  16.8905310  59.6443939  54.2577171
  17.2664504  58.1993532  54.0096712  26.9696765  63.9866543  62.5843143
  27.8264289  64.4125509  62.6129389  26.3793616  64.6587467  62.2436380
 117.6806545  49.0722656  79.8149300 117.6240540  49.3797016  80.7196426
 117.1375084  49.6850967  79.3192911  14.3711047  45.6306076  88.2015133
  13.4427981  45.7813168  88.0233288  14.7665076  46.5015507  88.1648350
  25.9146075  41.9394493  54.7217178  25.0104861  41.8011475  54.4394684
  26.3243823  42.4055338  53.9929676 112.5454903  53.2314205  51.0502100
 113.2808685  53.3710480  51.6468239 112.7889824  52.4539232  50.5477762
 110.7135201  57.0011950  58.5317802 110.1399422  56.4243507  58.0273008
 110.7185364  57.8229284  58.0409098 102.1945953  64.5606518  57.9521751
 101.5831852  64.2567062  58.6230183 101.8055725  64.2738867  57.1259403
 116.9247055  97.5837231  73.2213879 117.8073597  97.9518509  73.1810427
 116.5577507  97.7455425  72.3522568 101.7893410 100.7707500  51.0558176
 102.0920277 101.3394833  50.3478956 102.5926685 100.4577255  51.4716578
  82.6535034   6.4183784  69.9998999  82.6519203   6.1513436  69.0807056
  83.5608578   6.6676950  70.1753330  13.5329884 108.5624642  93.7898445
  13.8898724 108.4164796  94.6659470  13.7196511 107.7514238  93.3169746
  73.4606695  45.8081436  44.7749186  73.6269474  46.6711187  45.1542091
  73.9662361  45.2054071  45.3202105  37.4427485  37.2109342  52.8730726
  38.0304575  36.7249966  53.4515953  36.7249727  37.4908805  53.4411049
   1.0887198  38.7151718  50.2972269   1.2958483  37.8573990  50.6681061
   1.7284541  38.8333344  49.5950794 100.9679890  33.7374544  68.0796480
 101.0918427  32.9489994  68.6080742 100.6883907  34.4045067  68.7066269
  91.1669827  19.7409499  48.9776087  91.4276505  19.4809330  49.8611689
  90.2940845  19.3646765  48.8649225  36.4545207  20.9226441  31.9267130
  36.6095309  21.1008549  30.9991097  36.6511493  21.7501974  32.3657131
   1.3339476  30.4744506  38.6422253   0.5187945  30.5494452  39.1383481
   1.5839820  29.5546627  38.7299824  87.5168610  17.0757651  73.1881523
  87.1570301  17.9543471  73.0662823  87.1212769  16.5557754  72.4886131
  13.7772231  28.3920169  30.4713106  13.6039214  27.4602032  30.3374267
  13.9747767  28.4671783  31.4048815  16.3172583  40.7983446  52.6574039
  15.8423762  41.4381695  52.1269894  17.1114020  40.6137180  52.1559143
  92.2416401  12.6462722  52.6692152  91.7712307  11.9726205  52.1781588
  92.8652000  13.0095565  52.0403814 106.3526249   3.7650529  44.2881060
 107.2690678   3.7762877  44.0119982 105.9673786   3.0308068  43.8098764
  55.5381697 100.3418763   7.8838485  55.0865286 100.9086914   8.5091269
  56.4673155 100.4598899   8.0813378  74.4508648   9.4969893  48.0687332
  74.6109819   9.6236414  47.1335554  75.0243521   8.7708175  48.3137274
  61.9575596  24.1654921  18.1140864  62.3364496  24.9658847  18.4774697
  62.6830721  23.5412240  18.1017327 103.3766842   8.2342654  36.7753220
 103.4948349   9.1407686  36.4915514 102.4427700   8.0644852  36.6520333
 117.8675270  55.5473614  62.2345304 118.4022331  55.4503345  61.4465523
 118.0216980  54.7425175  62.7291965  95.7688141  55.2315044  90.6557083
  94.9939060  54.6731758  90.7190609  95.5382729  56.0181665  91.1499214
  72.6398563  24.0823770  29.9978590  71.7164516  23.9166451  29.8078656
  72.8135681  23.5830474  30.7958102  95.9592056  41.8094826  54.3526554
  96.2433815  41.9009781  53.4432030  96.2804222  42.6009130  54.7847319
  29.7519034  84.8760552  71.8030548  30.3572434  85.1283283  71.1058044
  30.3075999  84.4663949  72.4660873  52.1515101  94.3896396  54.3854189
  52.1000403  94.3129284  55.3381491  51.5076655  95.0625045  54.1641760
   4.0017466  47.9945326  54.0943241   4.2023234  48.3353043  53.2226133
   4.7188239  48.3086538  54.6451139  57.2771376 105.4148812   9.8931319
  56.4324015 105.0990851   9.5723075  57.0540827 106.0123004  10.6069732
 101.7684174  28.1842613  52.3994398 102.5425243  28.5971904  52.7821636
 101.1644363  28.0798864  53.1346560   0.6714968  30.5686927  92.1388912
   0.0353484  31.2817097  92.0827293   1.4659934  30.9246659  91.7410278
 102.5907707   1.8085688  87.7977371 102.5090885   1.6475773  86.8577099
 102.8784657   0.9706354  88.1601334  42.8239762  58.3415423   0.8388874
  42.8337800  57.4500114   1.1871788  43.6814820  58.4471549   0.4268524
  55.8039570  43.1055927  48.6263990  55.8759832  44.0066481  48.3115292
  56.6879463  42.7494001  48.5374022  74.6178532  39.4976521  51.2193298
  73.7753534  39.0840840  51.0312223  75.2449846  39.0223122  50.6743670
  12.6479010   4.1667652  63.7945747  13.5024314   3.7804517  63.6028004
  12.6697879   5.0218850  63.3650160 108.8306713  13.6823845  73.4848976
 108.4029293  14.4762743  73.1639576 109.7082424  13.9687800  73.7380648
 118.2507801  29.9759483  42.4129915 117.3436546  29.7094369  42.5623989
 118.6429977  29.9905992  43.2860184 103.3478260  65.0324154  45.8664370
 102.8448582  65.4136753  46.5860844 103.4419918  64.1095924  46.1025715
  94.2544270  35.6115365  68.5764503  94.2510033  35.7704735  69.5203590
  93.7383938  34.8129272  68.4661674  28.9323001  25.1062965  18.3781826
  29.6191554  25.6207705  17.9541862  28.6515574  24.4831777  17.7080059
  60.6899470 100.3362007  78.7634850  61.6135710 100.4615290  78.5456848
  60.2435225 100.3255386  77.9168320  72.4932783  94.9035211  89.2891979
  73.0014246  95.4290016  88.6712170  71.9853514  95.5440349  89.7871780
  97.2062111  15.8398724  52.6898575  96.3952160  15.9275007  52.1890211
  97.8471756  15.5218339  52.0540571 105.5884552  29.0107298  57.2185326
 105.3937149  28.0899096  57.3928881 104.8909760  29.2953968  56.6280079
  66.5744417 101.3311858  87.1728802  66.7016714 101.6169716  86.2682438
  67.4301928 100.9963579  87.4408817  82.4467564  24.5162582  76.0715103
  82.3977757  23.5774350  75.8913946  83.2372093  24.8065400  75.6163740
  73.5877245 110.5918543  58.6998510  73.6050432 109.6537534  58.8893223
  73.2358187 110.6503467  57.8116083   1.5370040  44.0805769  41.1610317
   0.8912520  44.7763395  41.2840748   1.0179095  43.3099699  40.9309530
  91.7288780  35.7321048  80.5363941  90.9466457  35.2168322  80.3393173
  91.6875648  35.8783102  81.4814568  88.1925583  29.5017171  58.7119436
  88.9391613  29.2662764  58.1611490  87.6441288  30.0497031  58.1505442
 109.1840458  24.1720653  49.2637634 110.1132393  24.2573738  49.0503263
 109.0531731  23.2326603  49.3926764  12.9842334   1.6860335  45.3911924
  12.3708110   2.3328723  45.7398367  13.7330680   1.7209296  45.9863901
  76.3533211   4.6220595  27.4123693  75.9211636   3.8353103  27.7447796
  76.5207243   4.4315359  26.4893794  13.6590915  34.7755384  66.6854620
  13.1664328  35.3407884  66.0904646  14.5768885  34.9698138  66.4954042
  96.7360497   7.7450657  55.9848499  97.6140594   7.5305003  56.2999535
  96.4692307   8.4974205  56.5130568 106.8816566   8.8483000  70.1480341
 107.4966908   9.3382901  69.6022654 106.0301781   8.9874154  69.7334576
  98.6007404  17.4502110  54.2611647  98.4469032  18.3884048  54.3723345
  97.9257011  17.1683097  53.6438417  62.7485770 106.4196147  54.4416666
  62.2426813 105.7928116  53.9245367  63.0838888 107.0448570  53.7991142
  84.5216560  18.4710777  91.0573673  85.0390625  19.2467403  90.8408642
  83.8743782  18.7837040  91.6894531  23.2354312  34.7531438  55.4509497
  23.7642436  34.9358392  56.2276173  23.2032351  35.5867505  54.9815989
  39.3690556 109.6175621  47.4778843  39.3809908 109.0691217  48.2622957
  39.5949143 109.0204356  46.7646790 113.0725098  11.0312617  85.5641365
 113.7869453  11.0592151  86.2005615 113.1206608  10.1521814  85.1884651
  95.2454567  37.4006367  81.1998558  94.6907902  37.8905988  80.5927944
  94.6532822  36.7700124  81.6095924  13.5259871  20.3415895  64.5283365
  12.7096324  20.6615901  64.1444063  14.2139869  20.7485318  64.0017557
  13.3005481  38.0583644  45.7286835  12.7457099  37.9889774  44.9517822
  12.8354506  37.5597596  46.4004755  71.0637491 101.4180608  43.4808207
  71.5765398 101.5704675  42.6870680  70.3158682 100.8980842  43.1866550
  76.7909145  21.6748142  82.7105999  76.0939550  21.8335295  83.3472157
  77.1730423  22.5382638  82.5535488  34.0385949  79.9835374   8.6297199
  34.7415005  80.0854494   9.2714092  33.4624611  80.7320644   8.7846634
  89.6115797 106.3348360  21.4307904  89.7137850 105.8445103  20.6150889
  89.2787188 107.1893499  21.1564898  88.2697392  45.1177645  87.6929951
  88.1605148  44.7536802  88.5714817  87.9561996  46.0191536  87.7666187
 109.4982719  59.9882030  72.9551554 110.0878239  60.4908085  72.3929787
 108.6472034  60.0443840  72.5206804  84.6931171  27.3389840  55.9060717
  84.9856949  28.0586600  56.4652681  85.4512119  26.7575049  55.8477974
  88.0470562   7.7611184  20.5285311  87.8425503   7.9130083  19.6058524
  88.9813805   7.9557407  20.6019521  73.1535578  44.1762781  38.2193995
  73.8254833  44.8558140  38.1648397  73.0621910  43.8571596  37.3215985
  50.1850432  94.7228546  73.5783148  49.4401377  94.7298999  72.9772377
  50.8507365  94.2023713  73.1286573 108.9314938  12.7159011  77.9786396
 108.0943775  12.9226339  78.3942366 108.6920261  12.3416996  77.1307850
 104.9322605  28.2027483  66.0619164 105.4561710  27.9025006  66.8046141
 104.7016335  29.1055727  66.2808943 111.7570782   8.3402193  73.8226557
 111.7110443   8.8440609  73.0100965 112.6486206   8.4807706  74.1414452
   2.2724204  14.1455245  76.3055706   1.8602996  13.7177205  77.0561552
   2.8598742  13.4817183  75.9443426 104.3043900  30.7866383  62.6546335
 104.5398426  30.1501513  63.3296680 105.1378822  31.1782193  62.3935032
 108.6082935  29.7036719  62.2236824 107.8804779  29.4672465  62.7986813
 108.2039356  30.2168918  61.5241623 107.4713802  82.0474815  51.7925787
 107.6723671  82.9398537  51.5105915 108.2245255  81.7887783  52.3236895
 106.2472343  20.0358558  81.0445404 105.9814930  20.3396416  81.9124889
 105.4724789  19.5931375  80.6981468  99.5603943  16.9843817  68.6706924
  99.0681458  17.5001037  68.0319786  99.1834354  17.2273409  69.5163298
  58.8806963  22.0085359  74.7414780  59.7942114  22.1056271  75.0103474
  58.4904480  22.8672099  74.9046326  85.9196472  30.3120995  54.1777515
  86.0317230  30.3754044  55.1262569  86.4271545  31.0440850  53.8272285
   1.3956027   3.6576405  56.8939829   0.6740050   3.2084426  56.4538193
   2.0025973   3.8835555  56.1891747 103.1634331  29.9134684  96.1955070
 102.5257015  29.3328357  95.7803059 103.9945412  29.4433546  96.1285400
  81.7627829 107.8694744   1.2670583  81.3690871 107.7715312   2.1340291
  81.2531489 107.2856547   0.7052302 117.5392914  11.1946738  69.2699146
 118.1719303  11.7614889  69.7111940 117.2135448  10.6166422  69.9598408
  99.0802860  45.9376955  62.5467443  99.7862530  46.4743519  62.1863937
  98.5974026  46.5316248  63.1214571 100.4561728  92.3083098  66.5163040
 100.9630984  93.0507119  66.1875105 101.1065977  91.6226728  66.6682339
  75.8097744  59.1529512  38.4909487  76.1772490  59.9249935  38.0606651
  76.5631723  58.7228537  38.8954759  83.1619453  35.4227448  39.8037243
  83.9565849  35.9461308  39.9078751  82.6188946  35.6596065  40.5555344
  36.3072651 110.5642529  77.2598934  36.4209336 110.3310202  76.3385296
  37.0098656 110.0984323  77.7133179  19.5370726  16.8548298  39.1956329
  19.6552996  17.7942359  39.3362355  19.1600661  16.5355241  40.0154781
  97.8547972  73.5568709  40.2135086  97.8992003  72.6147194  40.3766346
  98.6076754  73.9168687  40.6823397   1.8505339  53.9589882  50.3014278
   2.0544104  54.8930788  50.3476906   1.3751559  53.8581514  49.4767570
  94.2620659  22.5417662  46.6743040  93.7213326  23.3247137  46.5702295
  93.8099575  22.0254016  47.3415375  24.3267398  25.1397777  26.8589759
  24.4214396  25.2523088  25.9131408  23.7564711  24.3768334  26.9534969
   8.1490569   5.6204426  52.1272182   7.3853926   5.7060796  51.5565109
   8.7474017   6.3064480  51.8312216  14.9213462  44.6887398  25.9144974
  15.6192927  44.7711229  26.5643597  14.4664340  45.5304337  25.9435773
 112.3663521   9.8768091  12.6758838 112.2525406   8.9350486  12.5479555
 113.2112312   9.9580353  13.1183898  30.9908156  39.0939713  52.6419687
  30.4907756  39.8658442  52.9073143  31.6214137  39.4252682  52.0025873
 109.6999073  31.3103819  41.7235184 108.8031578  31.6154456  41.8614006
 109.6166992  30.6035972  41.0833883  38.6281256  32.1714401  48.3224630
  39.3255191  31.6673231  47.9032516  38.5606150  32.9691577  47.7977514
  88.5084152   4.7737616  47.4827528  88.9212799   5.4933047  47.0052195
  88.2065773   5.1706028  48.2998466  58.0138891 109.1394250  59.8157883
  58.4212130 109.7591276  60.4210091  58.6995714 108.9418779  59.1777849
 111.2760943 107.9205186  49.5402718 111.5449160 107.7451737  48.6384821
 111.1339205 107.0537291  49.9206591   0.6734710  38.7410593  73.7198353
   0.3212695  38.1533289  73.0514336   0.9641032  38.1587362  74.4217348
 103.6861229  30.1279616  44.3322659 103.3659840  29.4133234  44.8827553
 103.9823532  29.6980596  43.5299826 100.1665115  19.8661494  67.1502352
  99.7869587  19.7133243  68.0155802 100.7755184  19.1385603  67.0239162
  68.1358450  97.5444407  68.8162565  68.2440012  98.4008963  69.2297983
  67.1880549  97.4188585  68.7698317  71.5229893  24.2584467  37.8344798
  71.6465473  23.3360291  37.6106167  71.7688036  24.7326851  37.0401835
  81.1280537  28.2386160  39.1972637  81.0690403  28.1019783  40.1428223
  81.4547062  27.4065399  38.8549495  91.8266010  24.0385461  21.5884519
  91.6182899  24.6736264  22.2736597  92.1407604  24.5699072  20.8568835
 102.4599266  24.3175960  81.8081760 101.5721416  23.9962983  81.6506004
 102.3417091  25.0798464  82.3749447  57.4574900   4.6358797  66.5254116
  56.7390776   4.9467328  65.9745169  58.1423712   4.3836465  65.9061003
 111.4133644  31.9950533  55.5816174 111.3421631  31.9143081  56.5327454
 110.6249237  31.5689754  55.2453852  93.9158440  53.0208731  27.0745349
  93.7230873  52.6396942  27.9311419  94.8496342  52.8561115  26.9437027
   9.3873076  26.8046546  60.7078838   8.9505820  26.0929370  60.2399492
   8.9071040  26.8792486  61.5325451  42.5046687  42.6708508  63.4106731
  42.0523219  42.8269815  62.5816727  42.9299693  41.8211460  63.2951212
 114.1088581  12.5398219  27.5093389 114.5044994  11.6754198  27.6211691
 114.5625877  13.0947912  28.1436586  80.8205986  10.6829441  77.0811892
  80.0713730  10.9685707  76.5584087  80.5741119   9.8140752  77.3982763
  76.2447089 110.9757882  70.8903742  75.4200381 111.4578444  70.8289528
  76.3432616 110.7877120  71.8237257 110.6995201  16.7243373  69.9695301
 109.9035549  16.6545117  69.4424629 110.3873348  16.9479823  70.8463192
  16.8312316  23.8946986  51.8815756  16.9727473  23.8460469  50.9361458
  15.9137110  24.1514611  51.9735146   7.9292922  60.6822920  62.3892212
   7.7771239  60.3877020  61.4912796   8.8612609  60.5232382  62.5387907
  43.4099328  82.7873041  10.5146954  43.4486329  82.6670791  11.4635250
  43.1122338  83.6897184  10.3995583 113.3381367  72.0818138  80.5958843
 113.2141781  72.9819059  80.2947330 113.6587620  71.6133881  79.8251677
   3.3129172  48.4128761  37.3838639   3.8411193  49.1395426  37.7143073
   2.4545817  48.5371017  37.7889037   2.8952460  12.5376880  47.1775723
   1.9381289  12.5260556  47.1719217   3.1430583  12.2895014  46.2869406
  81.7416000  25.5544829  65.7300568  80.8428860  25.7505441  65.9948397
  81.6753387  25.3372288  64.8001957   6.5570025   9.5415062  69.7693491
   6.0257678   9.9722147  70.4390621   7.4254279   9.4655687  70.1647043
 110.8119678  52.9633617  18.8003409 110.3159714  52.9217768  17.9827332
 111.1417484  52.0735884  18.9259422  10.0017504  14.3030417  59.8578691
   9.7991805  14.7253680  60.6926394   9.4596152  14.7646391  59.2181444
  28.9113288  37.9856086  82.2965431  28.6239962  37.2858763  81.7099857
  29.7761111  37.7062225  82.5970840   4.5978980  26.0071230  82.4290180
   4.6542887  25.5141187  81.6104889   4.0380339  26.7548919  82.2201538
 111.8237209  12.6882935  45.9379435 111.2549400  12.4761689  45.1978636
 112.0389462  13.6131370  45.8172274 112.1135235   4.1500491   2.2751483
 112.0106983   4.2434213   1.3280790 112.7951813   3.4859389   2.3777366
  94.7275543  36.5202236  63.5755634  94.2020035  36.6622376  62.7882481
  94.4331169  35.6732607  63.9105225  14.9989848  63.6406994  79.2786026
  15.1547293  62.9563236  79.9294519  15.2590232  64.4512224  79.7163963
  23.3122210  20.1774549  70.1034975  24.0364699  20.6688285  69.7158909
  23.7074427  19.3538702  70.3893948 117.7153492  50.3193521  52.3731470
 118.4500122  49.8482656  52.7663183 117.9544544  51.2430191  52.4499655
   4.7923617  33.1065869  57.5042725   4.5741610  33.1175160  56.5723372
   5.6088691  33.6024261  57.5649261  20.0787883  51.1115170  81.2609005
  20.1358847  51.7271519  80.5301666  19.1412310  51.0374546  81.4389896
   9.8178916   3.7205306  88.7855911   8.8632159   3.7078995  88.7173176
  10.1226954   3.3801395  87.9444885  83.9417267  13.9810503  55.8009195
  84.6424103  14.4053912  55.3057384  83.8345909  13.1275988  55.3809500
   5.6736617  14.1173780  71.0768461   6.1966281  13.8097203  71.8171692
   6.2348227  14.7552121  70.6358242 105.7682037  22.5183725  62.2666121
 105.4566383  23.0403733  63.0059862 106.6062737  22.9153705  62.0294142
 114.3016243  36.9387865  44.2503357 115.1781654  36.6333294  44.4840193
 113.7391090  36.6124988  44.9527216  17.4540000   2.0622030  62.6380110
  17.8231005   1.7744142  63.4729767  16.5101294   1.9383048  62.7379799
   9.8881583  12.9534233  17.8599477  10.6023173  13.5906410  17.8473306
   9.1481643  13.4151793  17.4657083  23.7942557   5.3714240  53.9430857
  23.1755786   5.8874077  53.4261322  24.3510394   4.9432039  53.2928181
  93.4207916  15.6305039  82.4909306  94.2158985  15.0975513  82.4880219
  93.6980724  16.4762616  82.1387291  98.8657570  32.9294491  64.9026871
  99.7372532  33.3182144  64.9775028  98.9749050  32.2160864  64.2738533
 112.2962189  59.4338179   7.9424876 113.1107044  59.2840767   7.4624634
 111.7013359  58.7557554   7.6222265 115.6338024  34.9154449  64.7396326
 116.3562679  35.2319717  65.2819395 116.0472488  34.6607423  63.9147568
  94.0898436  42.3179776   0.9704277  94.6319502  41.6377122   1.3699314
  93.4942263  42.5902898   1.6685078  96.9291019  72.5475788  76.5697193
  97.5436878  73.2137299  76.8775511  96.1531353  72.6661968  77.1174812
  37.0471148  50.1724720  25.8556890  36.4461760  50.5737495  25.2279305
  36.9038825  49.2312765  25.7563710 105.6879520  11.5779924  74.5224047
 104.8200989  11.6603076  74.9177361 105.5896473  11.9551647  73.6481571
  14.8295932  32.4160457  47.3487282  14.9785666  33.3352685  47.1272087
  14.2392211  32.4437642  48.1016731 111.8538761   1.9175570  51.5332794
 111.8917847   2.0843440  52.4750710 112.7330875   1.6131957  51.3083601
  98.6133957  28.7056470  65.0318146  99.5309734  28.5505128  65.2558994
  98.6462021  29.3276834  64.3050241 111.4611053  35.6063843  68.8125706
 112.3803902  35.8727860  68.8260841 111.3621521  35.1290464  67.9888058
  24.2559390  37.3435497  26.6647053  24.7844748  36.5582466  26.8067431
  23.3557944  37.0213103  26.6185403  22.4557071  61.9988060  45.2807665
  22.3013453  62.6665878  45.9489536  23.2241874  61.5209532  45.5927467
  85.2692127  21.6305828  38.1871462  85.9583950  21.0873342  37.8048730
  84.6221638  21.0038972  38.5109138   4.9454074   4.6395946  45.5368662
   4.6581321   4.3271089  46.3948011   5.5517058   3.9665830  45.2275276
 101.0339928  57.8582668  65.6781101 101.8719292  57.5349855  65.3470659
 101.2206364  58.7497425  65.9724951  26.5935664  29.2043567  90.5278873
  25.7915072  28.7292838  90.3105450  27.2016578  28.9829707  89.8225880
 112.6315212   4.1834280  33.6225605 111.7002487   3.9622301  33.6161804
 112.7493382   4.7459158  32.8570819 104.3897343  22.4567270  56.9274473
 103.6024380  22.7648973  56.4786530 105.0190639  22.2964692  56.2242413
  94.6313763  12.1413410  32.1352577  93.9057446  11.6241693  31.7856383
  94.2794800  13.0284417  32.2091126  17.3068957  17.3876894  91.2232494
  17.6702456  16.5067434  91.1330032  17.8486876  17.8026342  91.8944550
   8.0183368  18.9051235  62.8126955   8.0296950  17.9493594  62.8638697
   8.5107188  19.1920233  63.5817766   6.7489390  43.0122280  20.3948498
   7.2988944  43.2543564  19.6497643   6.9291358  43.6829758  21.0535288
   4.7372870  30.9464598  79.1967154   5.0143771  30.0377822  79.3140030
   3.9942889  30.8945870  78.5954666  95.7769203  13.3227146  74.1823101
  95.8662033  12.4441910  73.8129091  94.8502254  13.5357380  74.0723467
 114.8226929  10.2314568  57.2676468 115.6634426   9.8182851  57.0710182
 114.8870564  11.1030781  56.8773031   4.1057448  18.0415666  24.1472340
   4.1373210  18.5510802  23.3375239   4.5589785  18.5862255  24.7907805
   2.1892981  37.9811001  43.5149717   1.9156890  37.7800941  42.6200056
   1.9757228  38.9072442  43.6284304  91.0136986  21.8566537  63.7371492
  91.5403175  22.6524711  63.6624479  90.5794907  21.7761827  62.8879070
 111.5490532  21.9862700  38.1571507 110.9826469  22.7195835  37.9170012
 111.8836784  21.6586971  37.3223138  11.5409045  34.0212727  59.3603325
  11.1116366  33.5103536  60.0465775  12.1808009  34.5589685  59.8268509
  86.7979717  15.0199711  56.3602495  86.5951347  15.3906691  55.5013752
  86.9781208  15.7804835  56.9128799  80.1998997   3.8325512  45.8509064
  80.5599880   2.9457146  45.8603144  80.8270454   4.3510532  46.3549757
  80.7519627   7.6965010  37.3110628  81.3174248   7.4613923  36.5753984
  80.0334930   8.1882513  36.9132972 105.9957981  28.3693862  87.3548031
 106.4210510  28.7417912  88.1272697 106.4514160  28.7696314  86.6142273
  10.1059966   9.5853025  43.9519548   9.7499041  10.4259384  43.6642790
  10.0639395   9.0286702  43.1743765   5.7434802  50.1158857  22.9377365
   5.8630805  49.1735458  23.0557442   4.8862414  50.2985477  23.3224678
  18.1068377  34.7460318  49.3572664  19.0383582  34.6882987  49.5697880
  17.6640658  34.3658161  50.1159668  98.0003834   6.5166223  91.3203526
  97.3847008   5.7977670  91.1774731  98.8588905   6.1378187  91.1313820
 103.3738613  26.8212152  64.2813826 103.7993145  27.4304581  64.8847437
 102.6651955  26.4322019  64.7939205  15.1073127  48.0740070  73.2681561
  15.0937896  48.4076118  74.1652346  14.9298625  48.8415670  72.7244759
 100.5748940   9.4635004  61.8911171 100.7645035  10.4006732  61.8465662
 101.3945484   9.0408432  61.6346788 115.0070000  34.0182853  56.3175488
 114.2486191  33.7508202  56.8367338 114.8503304  34.9423528  56.1231661
  89.6007269 104.1882951  54.3836594  89.3691653 104.8500020  53.7319279
  90.2604788 104.6128268  54.9320507  97.8034514 106.7304669  58.9907932
  97.2890490 107.5375397  58.9746666  98.2745283 106.7632852  59.8234034
  14.1548781  39.2913342  63.0178452  13.4071021  39.0083170  62.4915695
  14.8535113  39.4402766  62.3806953 105.4346657  51.1652470  57.2666168
 105.3807354  50.5885029  58.0286455 104.6225834  51.0039949  56.7862415
  24.5779471  14.3719757  67.7364206  23.7871318  14.9112463  67.7307129
  25.0035815  14.5798171  68.5682058  18.4110217  36.0614014  41.9420528
  17.5773387  36.3554907  42.3090935  18.1764560  35.6628704  41.1039686
  62.4851244 105.3865470  37.5797629  62.5387591 106.1437298  38.1628823
  61.8587607 104.8007382  38.0048895  36.0873751  25.1266456  44.1444492
  36.1278109  24.2120600  44.4239569  36.8729453  25.2491570  43.6114359
   2.1402411  13.7078297  66.8767691   2.3636679  13.7086904  65.9460115
   1.7390685  12.8516603  67.0259953 114.4139957  32.7299666  43.0052328
 113.8920784  33.0108857  42.2536230 115.2284718  33.2272410  42.9305458
  16.6918998  39.8808312  61.7112303  16.4614062  39.9491525  60.7847118
  17.3222117  40.5869293  61.8539381  88.1491011  96.9715459  54.3402004
  88.0553740  97.1855719  53.4119511  88.4541052  97.7841647  54.7437525
  98.5099220  45.3546953  34.8791862  98.8096046  46.1561489  35.3082442
  99.1668797  45.1843500  34.2041874 112.2187233  49.7500134  80.4750538
 111.6505623  49.0023804  80.2894115 112.9376221  49.6658754  79.8486805
  24.4541043 100.5282111  50.9019899  23.5120648 100.6879468  50.8447123
  24.7533053 100.5314655  49.9927616  89.6617222  19.7780871  78.5851145
  88.7650681  19.4975805  78.7683344  89.7541809  19.6808076  77.6373720
  89.4564152  29.3126798  77.7174473  90.1126957  28.7851810  77.2621775
  88.6176395  28.9545226  77.4268913   0.5184607  36.1370468  53.6368799
   1.1200576  36.4277244  54.3223095   0.6806903  35.1969409  53.5586882
  13.9705424  28.0050230  64.8127604  14.5320372  28.0237246  65.5877495
  13.8987593  27.0765543  64.5913506  97.9392624  51.2513304  23.1157613
  97.9062080  50.3460407  23.4249330  98.0371475  51.7730331  23.9123011
   1.8840747  90.6181049  62.0340967   2.1330504  91.0858917  61.2369680
   1.6894679  89.7285938  61.7389202  13.6741881  40.2672768  40.9885216
  14.4861750  40.5751991  41.3911343  13.3341174  41.0303688  40.5213308
  72.5732422  22.9786396  94.2199516  72.1982574  23.6626911  93.6652470
  71.8190002  22.4664092  94.5114517   9.2582183  53.5228968  50.3961945
   8.9449267  52.7601719  49.9100542   9.3279605  54.2143583  49.7379780
   8.6772113  31.9565892  42.9799366   8.5432105  31.5908122  43.8542843
   9.3864398  32.5897002  43.0912781   8.6768393  50.8650446  20.0344300
   9.5704036  51.0484457  19.7443688   8.6331801  49.9102688  20.0866365
   4.6032290  62.0715618  43.7453651   4.8255400  62.3633862  42.8612566
   5.2325587  61.3751793  43.9330626  12.3687588  95.4388859  13.7322495
  12.0498215  95.9550573  12.9919312  11.6070591  95.3444030  14.3041966
 118.3903885  11.9281805  47.0290995 118.0755520  12.5240278  46.3493347
 118.1929874  12.3769832  47.8511906 113.0908966  36.0474300  48.9447975
 113.8024998  36.6825199  48.8640165 113.2662487  35.4027772  48.2593012
  90.5333900  24.5714164  63.2540607  90.6706810  24.8660803  62.3537540
  90.6406498  25.3615141  63.7836599 104.2283440  21.2879086  47.9263735
 103.9151764  21.6548848  47.0996380 105.1535702  21.0993195  47.7694893
   2.9158644  32.3819304  90.4630089   3.5513453  32.9312611  90.9219646
   2.3700385  33.0010343  89.9782372  13.0858092   5.0355279  60.4790783
  12.8776984   5.5565089  61.2546444  14.0418296   4.9886850  60.4714680
  11.6958003  35.6482911  33.3192015  11.9592719  34.7327614  33.4120393
  12.3593669  36.0314989  32.7455640 106.0541469  64.6010132  12.2046444
 106.0996372  63.6496259  12.1096489 106.9577247  64.8963739  12.0926640
   5.1831488  62.7249432  56.5232992   5.6730799  63.5052681  56.7827177
   4.4610553  63.0610132  55.9923840  15.0303416  58.7634850  86.7535973
  15.8440451  58.7583065  87.2576618  14.5719962  59.5510149  87.0467663
  49.5174330 109.0995703  62.1229172  48.7394255 109.6474796  62.2265148
  49.4681662 108.7816481  61.2213993  66.0908049 108.4872694  39.9510860
  65.1904410 108.3926571  40.2619457  66.0692328 109.2597283  39.3862176
  31.6178071  93.7992256  94.5111316  30.7778870  93.4421080  94.2226392
  31.3896405  94.6089404  94.9677852  30.0766121 100.9224559   1.9997856
  30.8176457 100.6052353   1.4835712  29.7604023 100.1483823   2.4656746
  14.8405604  13.3640170  48.4801245  14.3887667  14.2037356  48.3965397
  14.3772559  12.9119134  49.1852379 110.5458927  36.5325999  62.0420980
 110.2287483  35.6910777  61.7142439 109.7575760  37.0687389  62.1278000
 114.2898464  52.9069185  57.0163393 114.3119335  53.8030624  56.6806650
 113.4211445  52.5832224  56.7779779 103.0165195  14.4992435  62.8335619
 103.2844734  14.9881268  62.0554686 103.6781311  13.8136089  62.9252577
 116.3979435  42.9631138  37.9846883 115.9559250  42.8088140  38.8195777
 115.9965420  42.3372221  37.3818922   4.6459155   1.1837600  92.4860287
   4.0905337   1.2147639  93.2650185   4.9772315   0.2860060  92.4636555
 109.3696117  46.0082388  13.1092596 108.9619446  46.6377068  13.7040710
 109.9081802  46.5435266  12.5264657 115.8013153  45.0447989  81.3661671
 116.5594292  45.5533934  81.6539478 115.0879765  45.3359461  81.9341660
   1.5351252  38.2741499  62.0144033   1.9331507  37.6537728  61.4037180
   0.9484153  38.8012099  61.4719963  55.5400294 103.2546086  45.4360247
  56.1011141 102.5780995  45.8151674  55.8276385 103.3217544  44.5255280
 106.3674068  15.6665099  46.3669538 105.4426956  15.9125626  46.3422489
 106.8353081  16.4993250  46.4279318   2.4482112  11.4264333  13.5453629
   2.5831370  11.3624501  14.4908428   3.0181269  10.7519579  13.1759036
 108.1636429  33.2968450  44.2161798 108.1193924  32.8827286  45.0780296
 108.0281544  34.2281938  44.3907261  30.7954364  33.1598115  61.0217237
  29.8543410  33.3345318  61.0162783  31.1347823  33.6977601  61.7370510
  15.9021048  40.8888435  22.4572134  16.8359904  40.6916857  22.3849535
  15.4750399  40.0322437  22.4477434   1.9728904  54.1632080  31.3002563
   1.1902003  53.7422132  30.9447384   2.4804454  53.4450197  31.6781664
  56.7791956 108.8613338  13.5977614  57.2854059 108.3299718  14.2122900
  57.4074190 109.1050137  12.9179144   0.7471328  27.3144412   8.0369961
   0.5512862  28.1645012   8.4310466   0.4720835  27.4043298   7.1245813
 103.4399223   6.8444330  33.8140559 103.7540054   7.5581771  33.2589412
 103.4563446   7.2053826  34.7004390 105.9146040 111.0049571  39.1538048
 106.8247526 110.7085560  39.1567898 105.4322451 110.3016614  39.5884752
  97.9365540  40.9231424  28.4376740  97.8853703  41.0962677  29.3776941
  97.0239353  40.8712578  28.1536460  63.1170470 108.2092573  44.2647526
  62.9987342 108.6830761  45.0879929  62.8116638 108.8179208  43.5920689
 109.4582356   9.5190722  21.5719482 110.2701534   9.2934949  21.1179230
 109.3877281   8.8709647  22.2728226 107.7835191   1.9808156  16.2430737
 108.0752052   2.8243310  15.8971951 108.5353030   1.6508395  16.7351887
  47.7687073  39.3707657  83.4614468  48.4123659  39.8441339  83.9885712
  47.2592783  38.8698077  84.0984440  97.6494724  97.1027424  11.1206696
  97.6031906  97.2249986  10.1724407  98.4722645  96.6344501  11.2619087
  58.5724038  78.1545140   3.5908005  58.4738249  78.7013103   2.8113529
  59.5014149  78.2185055   3.8123295 111.1790169  16.1249310   5.7705757
 111.6421092  15.6355244   5.0906822 110.7811082  15.4510934   6.3217995
  98.2086927 109.2874242   3.5114643  97.4575741 108.7283518   3.7102005
  98.1102497 109.4998361   2.5833389  51.5661449  84.7152306  12.6534054
  51.8688125  84.7137739  11.7453167  50.9880156  85.4758693  12.7119515
   4.2904919  16.1414296  31.8121025   3.7815827  15.7730395  31.0899231
   3.6526316  16.2680013  32.5144836  27.5570416  67.9340935  82.3881149
  26.6228890  68.1425571  82.3765373  27.7166319  67.5028324  81.5486050
 110.1006688   3.5317523  33.9920780 109.2250026   3.6231667  33.6164639
 109.9517382   3.1479794  34.8562405  27.0685023  34.8362405  66.0057995
  27.0860832  35.6342561  66.5340969  26.3490122  34.3221814  66.3722965
  11.1229485  28.7262494  45.7326481  12.0717877  28.6151082  45.7925579
  10.8602541  28.1565816  45.0096676 117.7787269  13.5581595  62.5043938
 117.1146310  13.1677014  63.0725071 118.2956732  14.1142232  63.0873081
 106.0721959   6.3682610  28.8993332 106.8390907   6.2535102  29.4605228
 105.4042638   5.8034903  29.2880890  72.2005088 101.3096525  12.5305054
  72.6402885 102.1532203  12.4245617  72.8034741 100.7903387  13.0624554
   5.7271987  49.6972179  71.8318605   5.0200284  49.3315935  72.3633289
   5.8611065  49.0537453  71.1359835  17.3100537  16.9984633  43.9922592
  16.5736216  17.5594765  43.7490055  17.6961153  17.4276454  44.7557900
  35.7388609  23.2222611  28.6993668  35.1430052  22.9329163  29.3903610
  35.3093165  22.9570395  27.8861210  94.9675215   6.5904242  68.7315914
  94.2193891   7.1215922  68.4588406  95.7060982   6.9448478  68.2364819
   4.9958342   9.9312646  25.3284809   5.3303402   9.8004634  26.2157318
   4.0570753   9.7578484  25.3984425   9.5560997  43.4675748  12.3667595
  10.1023930  44.1348225  12.7821896   9.0316647  43.1079156  13.0821964
  49.3500346 105.6953241  30.2804634  49.6858913 105.8980037  29.4073364
  50.1216096 105.7230570  30.8462688  79.9075348  97.2803213  35.3931305
  79.6229107  97.9165031  34.7370121  79.2950803  97.3952867  36.1197063
  30.8912009  21.9094474  37.2912380  30.7140845  21.8549592  38.2303307
  31.6713732  21.3699109  37.1629498  47.5567913  59.5472527  93.1319237
  46.8087959  60.1391888  93.2116222  47.1705484  58.6714458  93.1351089
 116.1837123 104.9083805  94.2781162 116.8952160 104.3599701  93.9475918
 116.4025731 105.0558472  95.1982117   9.9535816  23.0146891   8.9331314
   9.5367497  23.8649470   9.0729305   9.8653572  22.5637299   9.7728226
  62.4919373  97.9343750  33.1068775  62.7754409  98.4632208  32.3611042
  62.3203141  97.0690443  32.7354309  72.5993592 109.9111892   5.0417683
  73.2246024 110.6265880   4.9255726  71.8722183 110.3045894   5.5242035
  45.7130194  86.9892979  94.2417240  46.0472488  87.1514320  93.3595467
  46.3780737  86.4364529  94.6519661  42.9509089  73.6822201  57.1824619
  42.4678857  72.9495694  57.5647423  42.7974409  74.4104280  57.7844498
  45.5970764  60.3217554  95.7278538  46.5346766  60.3896856  95.9081936
  45.4589081  60.8818007  94.9639893  76.7551071  10.7068116  26.4325020
  77.3642389  11.2097842  26.9730637  76.9479541   9.7928292  26.6414997
  39.4696832  48.5265017  70.4180193  38.7066770  48.7803316  69.8987675
  40.2122164  48.6427498  69.8252630 106.4894284  27.0182282  16.7709896
 105.8690036  27.0982034  16.0464832 106.6431416  26.0769231  16.8518993
  67.5397641 107.0456316   2.3441097  67.6881057 107.5740434   3.1283352
  67.9649336 107.5362827   1.6407463 105.6182683  17.3281009  17.9254887
 105.3277911  18.2317025  18.0494186 105.2206624  16.8470294  18.6512348
 110.5417288  22.2785765  35.2601883 111.3174547  22.8336388  35.1802704
 110.5183018  21.7806250  34.4430420 103.2713021  30.3369004  25.8583805
 103.2303132  29.9719292  26.7423222 102.6936830  31.0996301  25.8871624
  20.2092760  65.9617097  32.3540947  19.2803591  66.1909444  32.3823139
  20.6624525  66.7673737  32.6026318  62.8625155  19.9494130  49.6675083
  62.4960447  20.4887969  50.3682205  62.1971990  19.2800719  49.5076057
 104.7674383  21.3858849   7.5363895 104.2164267  22.0314366   7.9789803
 105.2420963  20.9504515   8.2444355  60.8154232 100.5809976  14.1133186
  60.3893525 100.3556301  13.2863304  61.4524943  99.8804285  14.2532322
  98.4936143   8.1209380  40.9505913  99.0041769   7.7528674  40.2294228
  97.7533747   7.5222737  41.0499737  21.6451812  65.0707960  90.4159832
  21.8424606  66.0058594  90.3615761  21.9596243  64.7110081  89.5865822
 110.3111733  15.5522067  30.2296230 109.9139727  15.9930617  30.9806988
 111.1169089  16.0414559  30.0633213  15.7658690  16.0025842  52.7312824
  16.2943285  16.7631203  52.9732582  14.8766869  16.3463694  52.6452229
  30.3100085  43.2285404  86.2660408  29.7933769  42.6505756  86.8275356
  30.4998994  42.7014685  85.4899216  52.0037764  19.2923791  37.1821758
  52.8969782  18.9724309  37.3088715  52.1097677  20.2181918  36.9633839
   3.7423771  23.5595567  13.9636967   3.9227741  23.5549790  14.9037334
   3.9303702  24.4567353  13.6881039  29.8006922  79.5882465  16.7560932
  30.2906603  80.2984883  17.1704838  30.3849590  78.8318564  16.8084309
  71.2280947 100.9985592   1.3976643  71.0523612 100.7573702   2.3071549
  70.4688532 100.6746961   0.9129974  90.4146415  97.4373676  36.1008617
  91.2520916  97.8702022  36.2668964  89.7656948  98.0024673  36.5201065
  25.2069521  52.0175505  66.8039274  26.0997748  51.7914867  66.5431690
  25.0568938  51.5152502  67.6048088  92.8764278  91.4910533  22.9357311
  93.1000978  90.7253339  22.4066994  92.8208763  91.1559488  23.8306400
 108.9498080  44.8538167  86.3401196 108.9319695  44.7019917  87.2850201
 108.9441217  45.8067948  86.2504932  64.4192154  94.8574068  21.9681618
  64.0267998  94.1110827  22.4211952  65.3073365  94.9118187  22.3210213
  86.6087991 111.0862543  18.3674213  86.2463695 110.8657457  17.5093720
  86.4571602 110.3050853  18.8994095  15.2463454   3.7834031  31.1561749
  14.4702595   4.3053204  30.9523937  15.9650582   4.4155652  31.1631176
  71.0328275  85.7122995  39.5456574  70.7158477  86.6068365  39.4209168
  70.2376849  85.1847126  39.6207020 106.7080034  22.4485595  36.0736343
 107.2059549  23.1581456  35.6677315 107.3738659  21.8763549  36.4550087
 109.5112647   6.6221434   0.4905102 110.1102222   7.3525149   0.6455395
 109.3282307   6.2731797   1.3628361 101.1581356 105.6444551  35.2605507
 101.2872678 104.7038414  35.3822300 100.2255851 105.7348110  35.0645420
  27.3885554   3.8602502   7.5457165  26.9021910   3.4376342   8.2535812
  28.0947273   3.2473189   7.3411057 110.8135141  23.9371020  24.6444962
 111.7548288  24.0812690  24.7413227 110.4284514  24.8101479  24.7202847
 105.2818407  13.4924657  48.0719444 105.4332078  12.7143246  47.5354645
 105.9917177  14.0889985  47.8343365 103.3084191  29.6150548  14.2153236
 103.1228937  30.4321534  14.6780941 102.5561870  29.0550572  14.4071075
  95.1749040  33.7445981  20.9912846  95.6467784  32.9377324  21.1975071
  94.7463859  33.9878709  21.8119118   5.0519484   1.1981398  19.3300316
   4.9293059   0.8736092  18.4379170   5.3050678   2.1145493  19.2188522
 104.7681726  52.8068501  25.7697937 104.8242296  53.6665017  25.3525421
 104.3397678  52.2518117  25.1181576 110.4178561  49.0975816   0.7212135
 111.3439239  49.0729672   0.4803249 110.1156581  49.9556500   0.4234860
  27.6897502  54.1335487  88.8969040  28.1094050  54.4293499  88.0890560
  27.5212288  53.2024717  88.7522316  22.3127382  45.6408459  14.8222324
  22.8448742  44.9247605  14.4754097  21.5402430  45.2098424  15.1879093
 115.0009907  15.4037148  26.4593479 114.4178880  15.0325829  25.7971642
 115.3429116  16.2021119  26.0570118   8.4990710   5.3142316  34.3243286
   9.0601032   4.5935590  34.6108696   8.4933441   5.2482230  33.3694241
   7.6625651  15.9365374  42.6207420   6.7908734  15.9726579  42.2269508
   8.2634848  16.0217482  41.8805668  92.1480847  -0.0294011  26.6007015
  92.1337951   0.2346379  27.5206539  92.5382114   0.7156998  26.1436913
  81.5777666  98.7511970  45.2338383  80.6584388  99.0117075  45.2904484
  81.9225103  99.2488481  44.4924042  10.3680151  23.9116914  37.8372070
   9.5161503  23.7928111  37.4171707  10.3492659  24.8101861  38.1667397
  93.3830322   2.5601441   5.4900620  93.3330763   3.2550198   6.1464855
  92.5031913   2.5211627   5.1151154 103.9518679  19.7832162   5.6413719
 104.2133964  20.4284484   6.2982723 104.7332586  19.6598536   5.1024506
 101.0224420 105.1535179  18.9961979 101.1823208 104.2347957  19.2121288
 100.7426674 105.1392557  18.0809090  96.9938136  16.3590247  14.5455143
  96.9657517  17.1633775  14.0273830  97.7258516  15.8632476  14.1786930
  91.2609655  78.7674882  25.6138393  90.7098324  78.0206300  25.3799889
  90.6492073  79.4984533  25.7014725  43.1986237  23.7237811  90.4046154
  42.5451422  23.7337065  89.7052574  43.0839491  22.8727531  90.8275032
  11.2368667  80.3642941  88.7117195  11.3592124  80.8726788  87.9099655
  11.4792383  79.4708967  88.4681511  21.3646191  43.0732209  40.9628746
  21.8481844  43.8923222  40.8558056  21.9392603  42.5237614  41.4959023
  93.4306080  75.8672716  32.4786922  93.5939056  75.0113453  32.0825169
  93.9099056  76.4831235  31.9244072  39.0566439  90.6636478  35.3373882
  38.5499060  90.2549221  36.0390923  39.7346734  90.0217702  35.1264355
   2.3991602   4.7314746   5.5384800   2.4060028   5.3785092   6.2438366
   3.1404894   4.1578585   5.7324478  90.7095701  79.9042489  12.4375221
  91.2841446  80.4824211  12.9393265  91.2754471  79.1819574  12.1649239
  88.9046365  95.0483133   4.5728275  88.0315239  94.7936084   4.8712036
  88.8637382  94.9718930   3.6195538 115.7163156  45.9250504  45.2477524
 115.2622403  45.4630715  44.5430347 115.0573719  46.0198075  45.9355328
  51.2834353 110.8548595   6.6295788  51.1066407 111.5264465   7.2883293
  51.0872704 111.2804987   5.7949707   4.0933102   2.2207839  15.9145519
   4.0518587   1.3670356  16.3453934   5.0295370   2.4016530  15.8309052
 100.8903492  52.8367669  12.4493668 100.8432282  52.6316029  11.5156052
 101.4392460  53.6196095  12.4951908  14.7218149  19.9146945  27.0558617
  13.9119023  20.3630072  26.8123695  14.6345347  19.0399415  26.6771576
  12.8119629   5.5540854  18.3765003  12.1657484   6.0900361  18.8362762
  12.8916758   4.7639758  18.9109203  26.6030693  91.0890579  95.1619434
  25.7143378  91.0352039  94.8105335  26.5115952  90.8452892  96.0830498
  81.4844209 100.0924303  16.6108295  81.4994318 101.0278703  16.8131992
  82.3183710  99.9292900  16.1702034  72.6891214  88.8099195  25.2335140
  73.4995825  88.7265898  24.7310802  71.9990069  88.8434412  24.5710537
   4.1494959  -0.1495403  24.0731594   4.6970003   0.0078160  24.8423836
   4.6748894   0.1639993  23.3370277  22.5756335  90.3212357  90.1787472
  23.0227256  91.1671448  90.2067280  22.4330139  90.1564121  89.2466927
 114.9207939  40.8400971  35.1607582 114.0083350  40.9348256  34.8874924
 115.3578747  40.4485089  34.4045517  98.5450393   4.9824672  76.1780596
  99.2193777   4.7275977  75.5483437  98.7498552   5.8924060  76.3931847
  54.6714973  83.7118912  87.9066181  54.6879244  84.4145012  88.5564613
  54.6947050  82.9067421  88.4237480  86.4651305  37.6737649  62.4088738
  86.9879747  37.5373799  61.6187641  86.6235424  36.8924863  62.9387257
  96.8401779  22.0261533  45.4707882  96.0400558  22.3628957  45.8740780
  97.3333896  21.6463906  46.1979458   3.0650109  15.2974231  28.9180157
   3.8244932  15.3562600  28.3383915   2.3961514  14.8583705  28.3925697
  38.6269491  38.5942132  21.2818214  38.3332556  38.7023503  22.1864101
  39.5322626  38.9050538  21.2851498  35.6162852  22.9234464  20.8230946
  35.3599518  23.6633069  20.2725098  35.5436056  22.1610743  20.2488682
  51.6393852 109.7414494  81.2231922  50.8986616 110.3092003  81.0105515
  51.9881296 109.4741249  80.3728104  11.7700499  26.2813145  20.1802513
  11.9188374  25.7076699  19.4285652  10.8661621  26.1047322  20.4410908
  97.1197225  11.6341979  24.2904160  96.2946940  11.5336663  23.8156006
  97.1126486  10.9268815  24.9353096  82.1606619  90.3085782   0.7017395
  82.3444540  90.4186942  -0.2311829  82.2634536  89.3696477   0.8569023
  29.0542906  13.2270772  10.5964062  28.3231371  13.8330466  10.7165978
  28.6945933  12.5213153  10.0590488  83.0821211  99.4616033  34.5834419
  83.6722833  99.0135290  33.9774868  82.5509721  98.7612297  34.9623749
  15.8125699  79.5042086  77.0182657  15.4823732  79.2418337  76.1589909
  16.6758907  79.0951681  77.0782232  88.1516821 107.4183799  40.0256035
  88.8761265 107.9459812  40.3618309  87.9396612 107.8137924  39.1800663
  19.7650879   4.6421296   4.7443077  19.2964762   4.2027432   5.4539368
  20.6819266   4.6298034   5.0190517  50.1055002  96.3800907  81.7428493
  50.1476192  96.0813808  82.6512718  49.5271921  97.1424294  81.7679596
   1.7990273  19.2873198  18.5708973   2.4542921  19.3830544  17.8797504
   1.3001745  18.5092646  18.3218929 113.5725010  47.4058110  13.8660118
 113.1676329  48.2700593  13.7926552 113.9887656  47.4087006  14.7279522
   4.6373480   3.7245566  32.4415562   5.0509470   3.7556226  33.3042309
   5.3036326   3.3428056  31.8701050 116.5237320  64.4813020  30.8513901
 117.1242393  65.0962312  31.2726757 115.6634129  64.7056920  31.2059757
  62.7312678  23.9063985  35.2024910  62.6441687  24.8384148  35.4024765
  62.1472948  23.7657601  34.4572231   7.6563090  12.6128966  13.1743595
   8.2237881  11.9460589  13.5610458   8.1675690  13.4205968  13.2240459
 114.9866379   3.5659081  15.5549786 114.5254100   2.9003722  16.0654327
 115.4554451   4.0860421  16.2075970  21.0580843   0.8950574  30.2767345
  20.3178375   1.3768250  30.6457398  21.3350361   0.3067166  30.9791538
 101.2792386  26.3321931  24.8731491 101.8841852  26.1925275  25.6016895
 100.4396547  26.0012013  25.1921722 106.8721808  28.4412057  27.5611088
 106.1051763  28.6996991  28.0721066 107.5451363  28.2561356  28.2161781
  54.9466085  67.1711111  90.5308247  55.1714277  66.8494701  91.4038849
  53.9962482  67.2829008  90.5541325  58.9362294  70.3909244  22.0091030
  59.6960956  70.1464166  21.4808437  58.4846741  71.0538353  21.4867184
  12.1314305  28.8127286  27.5103352  11.6355007  28.3264787  28.1689999
  12.2181528  29.6926076  27.8771088  90.6869150  55.6688172  14.0569565
  91.5301312  55.6163747  14.5069191  90.7239140  56.4946324  13.5743591
 116.3774098   6.2331349   9.7183296 116.7681516   7.1027238   9.6324894
 116.5998519   5.9573132  10.6075260  89.4910575  49.5726544  20.5768559
  89.2785800  50.2750928  19.9623081  89.6915711  48.8200814  20.0203869
  14.1904515  15.7101399   7.9419014  13.3423441  15.8012206   8.3762524
  14.0161103  15.9317786   7.0271847  23.4715670  23.5758025  30.6005451
  24.3859070  23.7651879  30.8111355  23.1733530  23.0116660  31.3140270
 111.1393989  13.6705405  38.7485954 110.5080236  13.7530047  39.4632980
 110.6365908  13.2922370  38.0272743   5.9997719  24.5953614  62.2886726
   6.5517348  23.8162429  62.2213242   5.1484268  24.2619950  62.5720570
  96.1971504 105.7452347  23.9999840  95.7764703 106.4228393  23.4707329
  95.5420095 105.5146219  24.6586487  15.3760207  88.3311272  91.1817360
  15.9769857  89.0439796  91.3983440  14.5141757  88.6574650  91.4405060
 109.3169821   5.3245789  68.1088421 108.4623230   5.6147057  68.4276173
 109.4660915   4.4884927  68.5503933  32.8527325  25.3137929  36.3417599
  32.6933735  26.2281853  36.1078045  32.2977894  24.8133141  35.7436153
   3.3506125  29.0102345  40.6432697   3.0289143  28.6479241  41.4687798
   3.5017985  29.9365861  40.8310387  27.4133700  51.3205582  31.5916416
  28.3501547  51.1973149  31.7448589  26.9971913  51.0233075  32.4007484
   0.3348606  26.1093766  29.4606468   0.8736437  26.8963582  29.3794128
   0.1152843  25.8752972  28.5588524  70.7020701  20.6385476  32.9584095
  71.1075670  20.4800326  32.1059486  71.4398290  20.7726580  33.5533497
  76.9412595  93.6971666  32.4310753  77.2756082  92.8119542  32.2867081
  76.0435087  93.6710622  32.1000263 100.7068480  12.4824101  30.7719585
 101.3791836  12.3891885  31.4468739 101.0960806  12.0902116  29.9903461
 107.1926988  42.9918629  45.4200241 106.9169320  42.7673775  44.5313236
 106.5760721  43.6690385  45.6982872  38.7414950  45.3579671  19.4680664
  38.7379235  45.9153516  20.2462360  38.7318676  45.9718472  18.7337086
  28.1999415  42.5475270   2.7576611  27.9666203  43.4755475   2.7815220
  28.8998144  42.4931771   2.1069214  89.3381531  82.7771022  61.4486286
  89.1262275  82.1781446  62.1645615  89.4601757  83.6256530  61.8744251
  20.4650419  24.8066480  14.4002029  19.8044556  24.1152627  14.4432327
  21.0860174  24.5037038  13.7377426  27.0869416  23.4346682  30.3385040
  26.8172186  23.1315572  31.2054512  26.7115038  24.3120057  30.2639935
 106.8482286  81.8045737  22.4196026 106.9387705  82.5808884  22.9722092
 107.6167614  81.8255164  21.8493912  76.3285214  89.3634106  17.2545692
  76.7180020  88.6643149  17.7797291  76.2420565  88.9856769  16.3793060
  75.0761587 105.0708820  25.4454872  75.3918320 104.2376138  25.7951233
  74.1593582 104.9062111  25.2250645 102.7741660  27.8112466   0.4081127
 103.3319510  28.4303719   0.8790562 102.8441323  26.9978196   0.9077999
  48.9593046  17.3755986  27.6399967  49.7540682  17.7257687  28.0424377
  49.1618269  17.3354346  26.7053291 113.6021675  12.3781831  39.6723244
 112.8262437  12.8496224  39.3691418 113.5037626  11.4973838  39.3107388
  10.4058569  34.1148812   4.1668865  10.5794304  34.2027337   3.2296631
  10.1758402  33.1929547   4.2824814  59.4632513  91.7529418  18.3617661
  59.5149047  91.1443903  17.6247284  59.4653661  91.1911918  19.1367981
   6.0742443  31.6791493  14.0982506   6.3801020  32.5679261  13.9172623
   5.5786293  31.7577512  14.9133656 115.4731143  26.5676457  21.1603615
 115.7524289  25.8372266  20.6083748 114.6225370  26.2957627  21.5050766
 105.4867876   3.3596618   9.5178864 105.2312172   2.6236350   8.9618465
 104.8266114   3.3769233  10.2107784   7.1018284  38.8551289   9.3656513
   7.1238631  38.5181672   8.4699986   8.0101031  39.0900571   9.5555756
  33.4144133  42.8232152  23.5992500  33.8398712  42.7210099  24.4505856
  33.2457655  41.9275433  23.3067200  58.0916834  44.0208721  92.2666454
  58.2938910  43.1583166  92.6290607  57.4980450  44.4158268  92.9052734
  45.8700197  28.7554318  35.5189106  45.2953356  28.2305199  34.9617455
  45.9643667  28.2391888  36.3194248  46.8372673  78.2557060  23.9508411
  47.1637434  78.7044336  24.7307655  47.3859865  78.5837771  23.2384464
 113.0600942   4.3592030  48.9358589 112.1196640   4.2525679  48.7928364
 113.4681333   3.8426978  48.2409069 103.7573702 111.2954237  11.7140934
 104.0383894 110.4072382  11.4941093 104.5183117 111.6884233  12.1415970
 100.6633819  46.0171086  20.9558651 100.9707988  45.1252705  21.1182186
  99.9891771  46.1626012  21.6195747 114.0815533  37.2322995  34.6837589
 115.0106657  37.1688039  34.9050018 113.9896286  38.0959374  34.2813847
  56.9711399  81.0594559  80.0047970  57.0261335  80.2232552  79.5422173
  56.2973881  81.5498447  79.5338392 117.6964248  20.7671410  44.1342709
 117.4506272  19.9084670  43.7900326 116.8833054  21.1233718  44.4922707
 115.7314474 103.3331205   9.1170475 116.1084348 103.9442016   8.4840462
 115.6364567 103.8471605   9.9188969  18.2474201  17.8163058  57.8367207
  17.6570624  18.3552224  58.3632919  17.6821345  17.1449477  57.4546692
  29.3658662  91.5693855  79.9926949  29.2062593  91.7327404  80.9222507
  28.5767508  91.8880749  79.5545578  18.5453432  67.0497472   1.9858810
  19.4046658  67.4326188   2.1625301  17.9440563  67.7943951   1.9990799
  19.7743099  57.3161942   2.5954887  20.1570767  58.1419999   2.8917286
  20.5163687  56.8170316   2.2542831   2.2688740  56.4163262  22.2791264
   2.7560108  56.5275437  21.4626953   1.6539305  57.1497399  22.2929260
   0.7162874   9.7935683  23.1699917   0.2271193   9.5777375  23.9639446
   0.0486439  10.0852067  22.5491592  16.3665455  26.9434316  10.5444786
  16.6868132  27.8451211  10.5197880  16.0896652  26.7629201   9.6461556
  68.8949424 104.2722179  34.6148655  68.7638671 105.2202846  34.6297428
  68.0280596 103.9077427  34.7934696  66.2231077  20.3609425  75.2982494
  66.7360247  21.1576897  75.4336903  66.8493463  19.7305447  74.9423573
   1.1339777  23.8578612  30.6504223   0.8696955  24.7193868  30.3276798
   1.2958735  23.9912850  31.5843555  88.9561493  92.2486259  24.7946617
  89.7808201  92.6241495  24.4862244  88.2864935  92.8646614  24.4975254
  49.2465704  10.2512366  33.8039085  49.9584406  10.6249911  33.2845089
  48.7318819  11.0079676  34.0844223  48.0152941  76.5766001  79.8021364
  48.7891197  76.1039686  79.4954729  48.0714703  76.5342569  80.7567501
  51.8902415  43.9516789  28.6028549  51.8557184  43.2298905  27.9751083
  51.2650793  43.7060887  29.2848274  17.3420256  60.2635247  29.2170593
  16.9740217  59.6596295  28.5719845  18.2799595  60.0724465  29.2162582
   8.7513655  45.8285291  19.5659611   8.3473271  45.7212979  18.7048695
   9.6888560  45.7204396  19.4057819 111.1532534  28.5170037  13.1239006
 110.7050575  27.8290326  12.6319191 111.8581737  28.8055665  12.5442097
   2.6231783  17.0017249  50.5951473   2.7350395  17.9360349  50.7706139
   3.2873982  16.8006284  49.9359009 101.3538922  20.6305129  39.1339180
 101.2364949  20.6441743  40.0837872 101.8899764  19.8546464  38.9699719
  78.5420710 100.6030037  11.4578411  79.3593985 101.0978367  11.4000008
  78.7654525  99.7322847  11.1289379  82.3381216 101.1299516  46.6193745
  82.1902210 100.2251770  46.8945953  81.5983421 101.6153480  46.9845459
  38.0800247  93.0676556  96.1399841  37.3263502  93.1001091  95.5507851
  38.0004334  92.2236347  96.5844154  48.4215182  33.1901414  26.8291447
  48.1409949  32.5596291  26.1658260  48.8899630  32.6637799  27.4770042
  30.4162550  96.1210442  87.6945305  30.4499435  96.5717506  86.8507481
  31.2361598  96.3602066  88.1267166  85.4108507   0.8395438  92.6524162
  86.0357553   0.3151565  92.1516800  85.3700287   0.4114871  93.5075951
  20.0924509  49.4013459  31.7404625  20.6656426  50.0606496  32.1316216
  19.8891037  49.7462422  30.8710167  56.5454197  75.8703613  96.3190460
  57.3685932  76.3557911  96.2645245  56.7766809  75.0561237  96.7660046
  31.0705233  36.8695736  83.3318996  31.8467855  37.3114634  82.9878330
  31.4097285  36.0735202  83.7411308  16.5730923   2.1685559   4.5226357
  17.1875590   1.5778500   4.0870544  16.9463890   2.3026044   5.3937885
  80.0540334  89.5875718  11.9958469  80.5902845  88.8080837  11.8506977
  79.1766221  89.3309023  11.7121098  25.2605224  83.0763912  82.1769238
  25.1912975  83.9174557  81.7251873  25.9708023  83.2004070  82.8064823
  99.6440822  82.1058776  12.3046371  99.4429094  82.5331666  13.1372139
  98.9276726  82.3629810  11.7242214  67.4485445  26.7521191  35.7382584
  66.6585112  26.3301635  36.0759449  68.1646204  26.1873126  36.0288787
  97.9966480  92.3405720  15.9938023  98.4510786  92.3665382  16.8358490
  98.3387024  91.5582897  15.5610630  26.7565411  11.5980012  17.6763222
  26.6807144  10.7140214  18.0355808  26.1616486  12.1251399  18.2096741
 111.3213981  30.8241994   8.0180141 111.4509953  31.6665322   7.5822231
 111.2876476  30.1877457   7.3038551  69.6050483  87.9492022  12.5030872
  69.5754582  87.7096869  11.5768120  68.8113004  88.4657170  12.6423904
  73.1568438  69.5229210  10.1292774  72.9014451  68.7753381   9.5887920
  73.9343721  69.2233600  10.6003830   0.9506148   1.2025697  27.9376194
   1.8030613   0.8369166  27.7012608   0.3164476   0.5735452  27.5935337
  57.7011854  92.9797365  10.7992718  57.6161701  93.7605597  11.3463757
  57.5870508  92.2484233  11.4062187 115.0468982  10.1079804  47.3531029
 114.9211181  10.2520091  46.4151928 114.7693838   9.2030722  47.4957916
  40.3572226  18.4340024  93.0340958  41.1709070  17.9991889  93.2892132
  40.1215744  18.9661741  93.7940216   3.2656986  42.4711514  85.0014019
   4.1486216  42.2655916  84.6941185   2.7619117  41.6749573  84.8325729
  47.4410582  32.2890973  80.3726768  47.8027344  31.5464997  80.8563900
  47.7093744  33.0570745  80.8771038  33.6937571  26.5609527  89.4095135
  33.5585022  26.2000322  88.5333443  33.5865927  27.5056410  89.2985725
 103.9878542  88.5511829   1.7555019 103.2895071  89.2050482   1.7871925
 104.7633058  89.0419532   1.4833805  38.0330253  31.8993211  82.2670650
  37.9707313  32.8203511  82.5201511  38.4429955  31.4715528  83.0188370
  66.9688017  99.1276504  27.7900097  67.7394420  99.6451999  28.0234406
  66.8387300  99.2990448  26.8573067  40.0931883  55.5717182  95.4346657
  39.9824452  55.8735991  94.5330906  40.6951284  54.8305702  95.3668499
  75.8435041 103.7747099  36.4478657  75.1445657 103.1282760  36.5470764
  75.4208261 104.5212080  36.0232327 114.7524673 103.7277843  42.2083828
 114.6193344 103.8803436  41.2728378 113.8881284 103.4789707  42.5358650
 111.6078437  26.3198621  27.0339939 111.7768753  26.1853177  27.9664967
 112.4760307  26.4328725  26.6470692 102.2780258  95.1532604  25.6907436
 101.4727861  95.1098587  25.1750633 101.9827539  95.3494956  26.5798733
  34.5383024  59.0419817  80.2440357  34.2755771  58.1299305  80.3679848
  33.7625217  59.4671440  79.8784733  85.2182943 100.8811571   8.3501122
  84.5520527 100.3838493   7.8757259  84.7204477 101.4392378   8.9475414
  49.0188086 100.3615905   8.9399597  48.2725770  99.7932340   9.1306088
  48.6328376 101.2275650   8.8082859  70.8708817 105.6274606  36.5873024
  71.2757475 105.7950021  35.7362721  70.2300626 104.9373676  36.4159748
  67.6941306  90.7389619  35.8433506  68.5148269  91.2303664  35.8781406
  67.9514319  89.8630859  35.5554649  37.1619916  63.8448524  82.1857071
  36.6387010  63.1078625  81.8706703  38.0545688  63.6417770  81.9058800
  14.6818035  11.9271523   5.6877682  15.0886887  12.4836547   6.3518307
  14.1161221  12.5196463   5.1926109   2.4144556  86.3254738  85.7817650
   3.1675071  85.8528996  85.4270649   2.6564524  86.5159798  86.6880703
  18.3563709  70.0915289  96.4295864  18.4226811  71.0171032  96.6644287
  19.2500365  69.7587776  96.5124702  38.5144734  38.0293393  85.8186626
  38.8535404  37.2749877  86.3005543  39.2959332  38.4802794  85.4989624
  52.8667974  48.6480093  90.7970142  53.5552740  49.0803385  90.2917194
  52.4637318  48.0377865  90.1794338  60.9928751  23.4133482  91.5958595
  61.0918427  23.9439964  90.8053875  60.9032965  22.5167775  91.2728024
  78.9219219 107.8409769   8.6727879  79.0477092 108.2135727   9.5454762
  77.9799611 107.9089452   8.5168430  41.3586684  86.0361196  22.3787949
  42.0508558  85.6329252  21.8548271  41.5520412  86.9731642  22.3507378
  78.4207160  97.5024082  32.4126312  78.2461697  97.4294283  31.4743111
  77.9140002  98.2649519  32.6919148  12.7447867  32.1857524  89.4547749
  12.2464657  31.9942832  88.6602592  12.1874142  31.8743944  90.1679516
  80.9495163   1.8635428  86.0716152  81.3819122   2.7099508  85.9582233
  81.3781261   1.2887588  85.4374695   1.6681021   8.5112340   1.7905590
   1.6221970   7.6618916   2.2295734   1.7625826   8.2963855   0.8625767
  37.7188015  18.3046818  88.3568668  37.0574713  18.4882331  87.6896477
  37.4123955  18.7734616  89.1331387  41.7006445 109.0006115   1.1122391
  41.5015704 109.8306419   0.6790516  41.4358627 109.1357519   2.0221016
  46.7160892  89.8583603  88.0199814  46.3255739  90.6651402  88.3558941
  47.6533651  89.9585629  88.1864452  52.1038675  39.6069741  88.8945961
  52.0233583  39.1399646  88.0629444  52.1116495  40.5323315  88.6498833
  31.3084865  56.7253971  72.2213364  31.2201214  56.8814898  73.1615782
  30.4250789  56.4965248  71.9324780  45.9257091  86.1987163   7.1717617
  45.8556170  85.6813289   7.9740307  46.7819435  85.9675218   6.8117020
  47.4143267  74.3772888  88.9514160  46.8330050  73.6194420  89.0143681
  47.6346874  74.4335413  88.0216312 101.2458688  83.4120871  48.4335587
 101.3414795  84.0981533  47.7729485 101.8366701  83.6750986  49.1392586
  44.6550322  50.9984446  94.4217777  45.0893354  51.7833376  94.0877819
  44.2103243  51.2909508  95.2173328  13.2428854  16.9733006   5.2754280
  12.5624531  17.3333604   4.7065708  14.0611523  17.3180539   4.9179050
  51.5043926  40.1149702  73.9562941  51.1251402  39.3879557  73.4624815
  51.3039827  40.8906555  73.4324789  31.9561219  20.0910974  93.8302898
  31.8833375  19.1468382  93.9692497  32.8487396  20.3050399  94.1017532
 110.1815999   0.5131156   2.8672382 109.8263586  -0.3721851   2.9464981
 111.0369719   0.3919417   2.4550602   9.5327585  10.7382447   2.7974484
   9.6091383  10.8002002   3.7495873  10.0446337   9.9632174   2.5660393
  36.1871815  77.8709841  84.5744133  36.1747169  78.6374283  84.0011406
  35.3243780  77.8678465  84.9888897  35.3566098   3.5832000  85.3727150
  34.5329189   3.6546230  84.8903656  35.2332497   2.8272057  85.9467220
  46.1505461  96.6257572  92.4743080  45.9832382  96.3806534  93.3843422
  45.2801132  96.7473507  92.0951080  93.5271765   3.0515296  13.2070229
  94.1534258   3.3368403  12.5417110  93.2846082   2.1640975  12.9427216
  75.9563357  89.7227313   3.2559177  76.3038236  90.0501849   2.4263069
  76.6751487  89.8355271   3.8778660  22.1093750  33.2115889  72.9040670
  22.0649934  32.7674699  72.0572996  22.7541590  32.7107430  73.4037066
 103.4139598   4.1132457  33.0363247 103.5062183   4.1241414  32.0836422
 103.3642710   5.0368506  33.2827255  44.5618391  42.0617485  89.9723148
  45.0963020  42.8540659  90.0253105  44.1739082  42.0925665  89.0977955
  41.3765526  74.7224903  80.0645924  40.8314943  75.2757311  80.6241226
  40.9753275  73.8552999  80.1214504  69.1337592  67.0426835  24.6276638
  68.3640916  67.2935285  25.1384708  69.2725975  66.1199834  24.8411629
  85.0066454 106.4362385  21.0095665  84.0576679 106.3722374  21.1171982
  85.3211385 105.5387928  21.1187336 105.3065146   9.7523743   7.0952866
 105.1548899   9.1651780   6.3547203 104.8098434   9.3632418   7.8150913
  35.8405256  47.9453993  91.9886017  35.7941151  47.9934072  91.0337353
  36.6955018  47.5539160  92.1674633  44.7798908  98.3990003  16.3414738
  45.0906677  98.7475158  17.1770451  44.5187372  97.4996235  16.5393612
  65.6515915  82.1518923   5.2676842  66.3412911  82.6917292   5.6538460
  65.4045660  81.5441801   5.9647438   5.6233764  62.6179171  69.4550848
   5.9549743  63.4212828  69.0539885   5.0840050  62.2153568  68.7744522
  61.1230284 101.9573499  17.9528877  60.7450849 101.2459232  18.4698650
  60.4845506 102.1130802  17.2569534  87.7601368 110.9315016   4.8923657
  87.7282602 111.8857576   4.8244450  87.1085865 110.6246092   4.2618725
  84.7711117  67.1200408  13.4230969  85.5313570  67.2256662  13.9950344
  84.9872286  67.6280512  12.6411507  10.4878187  55.5263186  91.7648697
  11.0825086  56.1541224  92.1752834  10.2502632  54.9248266  92.4705696
  63.0709839  62.2895098  96.2072945  63.8653088  61.9366550  95.8063412
  63.0622673  63.2115507  95.9503937   7.3762005   2.8251702  31.0250351
   7.0247048   1.9401843  31.1224339   6.7855185   3.2504088  30.4033443
 103.3482398   5.5821711   9.7267696 103.4445132   5.1042992   8.9029953
 103.3314432   4.9005038  10.3985378  44.5667452 102.3604585   1.3983223
  44.5918751 102.3771526   2.3550388  45.4560590 102.1188213   1.1395428
  44.2065907  85.4322338  88.4877491  44.5315027  86.3050938  88.2668686
  43.2760525  85.5622292  88.6705780  61.0767037  69.1560020  27.0657417
  60.9716470  68.2329382  27.2962830  61.8649918  69.1791655  26.5232536
 107.8604252  74.1475774  40.1921055 107.1269018  73.8609709  40.7361862
 108.2207376  73.3380486  39.8300621  25.1295822   0.4288728   5.9823105
  24.4102925   0.1000029   6.5214703  25.8489912   0.5637843   6.5991470
  99.3999160  39.5659119  12.3010418  99.0322817  40.0265843  13.0552742
 100.0338472  40.1802022  11.9308826  14.6913576   8.2119918  64.9281502
  14.6295750   8.3474797  63.9826059  13.9214396   8.6552912  65.2844429
  75.1321441  93.5596110  20.1487133  74.8633749  94.2855622  19.5857021
  75.4330403  92.8839637  19.5410988  13.8163042  42.7312469  96.7974949
  14.7527623  42.8453112  96.6354275  13.3934617  43.0741501  96.0101891
  94.2714721 107.6262237  22.8847954  93.6343986 108.2650472  22.5649902
  94.8152191 108.1177761  23.5003826  42.1720331   9.3800980  18.3674404
  41.3359946   8.9219004  18.2818768  42.7925509   8.8395316  17.8785774
 106.0295564 100.4020263   2.9974720 105.4459602 100.0408031   2.3302624
 106.7304785  99.7551681   3.0782101  90.5931188  15.0309998   5.0389168
  90.1252271  14.3744237   4.5229504  91.5186645  14.8353917   4.8928520
  71.7491156 101.1701919  29.4083759  71.9653494 101.9722892  28.9328644
  72.3954612 100.5316068  29.1072628   7.2648025  74.6075153  82.2989368
   6.4545196  74.8290539  81.8400288   7.8081954  75.3912973  82.2174263
 111.4542991  96.3362552  37.0204613 112.2250301  95.7809021  36.9030449
 111.1762602  96.1726572  37.9216644  84.1557533   3.5027081   3.1031010
  84.5996005   3.4014232   2.2610924  83.3423872   3.0074508   3.0061981
 105.8184702  84.5998050  36.6241238 106.5168745  84.9068381  36.0460350
 105.4060203  85.4006650  36.9477722  41.9205093  35.1126862  94.5205402
  41.1269045  35.6241179  94.6782112  41.6096878  34.2128754  94.4207191
  11.9505525  48.5351706  94.3860340  11.9906354  47.9330873  95.1290894
  11.0189974  48.7317085  94.2870045  78.1264955  68.5696997   9.1511509
  78.1304318  68.6891259   8.2014439  79.0519983  68.5609259   9.3952820
  30.7508779  47.6558018  69.5154715  30.6805992  48.0028629  68.6261797
  29.8913693  47.2732401  69.6918964  86.0395223  91.3733675  14.9163982
  85.8444006  90.4374458  14.9634239  86.8505031  91.4742901  15.4147503
  60.5189473 102.8023817  32.5495789  59.8918444 102.0822479  32.6157639
  60.6905181 102.8851225  31.6115257  87.7813942  91.9256283  44.6584770
  87.3639232  91.8001033  45.5106422  88.5522634  91.3587381  44.6835777
  89.8240501 108.7963011  10.8896038  90.7540399 108.6628629  11.0727665
  89.6000797 109.5992519  11.3600704  19.5729947  18.6133361  93.1091404
  18.9823401  18.8290167  93.8308334  19.7363508  17.6751184  93.2055569
  31.6520721  96.2801220  28.4381268  30.8691466  95.7528879  28.5971424
  32.2989750  95.6554295  28.1102345  15.0918639  65.3915501  76.8274069
  15.0324714  64.6858120  77.4713326  14.9420476  64.9610424  75.9857178
  48.3986139  42.7515268  93.8821316  48.8786173  41.9269276  93.8055229
  47.4767065  42.4952841  93.8564968 115.3025514  94.2139126   1.5696976
 114.5073826  93.7196876   1.3705036 115.2105171  95.0264169   1.0721085
 112.3524965  50.6899697  19.5618889 113.1244577  50.1372964  19.4399998
 112.2920216  50.8113438  20.5094311  30.7418084  45.7543850  80.7341862
  29.9938202  45.3295708  80.3143311  30.7827306  45.3606653  81.6057014
  86.7086107  98.8641359   9.1707012  87.2800523  98.6137821   8.4447548
  86.2524015  99.6453621   8.8579819  51.9523478  31.7243075  94.7680664
  52.5636625  31.8072987  95.4999447  52.5048542  31.5029049  94.0184402
 103.7664253 101.9868614   3.8161823 103.6553699 101.3461591   4.5186016
 104.5015508 101.6533424   3.3017990  98.3124668  91.1068322  30.2869865
  99.0850765  91.2736632  29.7471020  97.6402885  91.6866256  29.9288723
  27.7403069  44.3097115  74.9737549  27.8160620  43.3584023  75.0479841
  26.7994928  44.4795036  75.0214195  37.5533342  75.6408119  83.7401772
  37.2429681  76.5461445  83.7568474  37.7195239  75.4276466  84.6584225
  42.9098606  51.5179682  91.1750221  42.5524235  52.0783138  91.8638515
  42.3594236  50.7350826  91.1934280  93.0396015 109.9136020   2.9849884
  93.9406807 109.9742319   3.3021805  92.9231483 110.6944706   2.4437687
  61.7206270  90.5329968  15.2859089  60.7679111  90.4481007  15.3227493
  61.8837005  91.4653541  15.4285500  60.6289690  29.4758660   0.0106213
  60.7986181  29.2078358   0.9137318  61.4630335  29.8335225  -0.2937725
  92.6465274   3.1435115   8.4877083  92.4611605   3.8243539   7.8409359
  91.8455280   2.6205260   8.5212109  86.4196426  94.6245314  35.0448105
  85.4932338  94.3845274  35.0647232  86.4254123  95.5699255  35.1945755
  95.7222080  73.0802393  95.5018330  95.3563023  72.2093773  95.3470898
  96.5206718  73.1017303  94.9743557   5.1069611  27.3894364  17.6814434
   5.5285042  28.0379826  18.2452938   5.0328940  27.8231484  16.8313572
  18.5530585   8.4551770  23.6024162  19.0516012   7.7320105  23.9828369
  19.1631621   9.1927440  23.6023113  54.5821667 103.5719967  94.2877388
  53.7041903 103.9399242  94.3878174  54.5996857 103.2342625  93.3922768
  80.5607015  91.6478302  30.4571697  79.7658140  91.1455085  30.2781174
  80.3869373  92.0813896  31.2926743 115.1472081  15.8750302  61.2189934
 116.0077942  15.7667023  60.8141682 114.6548260  15.1010091  60.9457180
 107.2733367  14.0591676   4.6374390 107.0446981  13.7862021   3.7489292
 107.6670826  13.2815463   5.0330421  79.3880111 109.9266912   3.4934971
  79.0329534 109.7994091   4.3732426  80.2073032 109.4317247   3.4919426
   3.3528072  70.2088785  95.8774853   2.4317755  70.1081276  95.6371021
   3.4936133  69.5576048  96.5646839  87.5394381   1.1455733  16.4231751
  87.4933405   0.6237466  15.6220505  87.8171671   2.0128829  16.1284325
 117.6653088   8.8041407  15.8518478 117.9396547   9.5838363  15.3690979
 117.0499791   9.1325099  16.5074226  51.1903197  94.4071628  19.7523567
  50.7335836  93.6128713  19.4753620  51.5051169  94.2073418  20.6339428
  52.8769350 102.7767467  89.9446583  52.7145100 102.6524067  89.0095711
  52.0876598 103.2102203  90.2692890  42.1906584   8.2662017  14.5016262
  41.3188666   8.5596616  14.2368481  42.5222223   8.9714438  15.0574371
 107.1268357  11.4876706  26.7261669 107.2242082  12.3639924  26.3535950
 107.3014797  11.6037185  27.6601193  77.9187376 110.6012584   6.2028095
  77.0424563 110.2433588   6.3451836  78.4691602 110.1483156   6.8416378
  39.6290034  30.7584531  34.3202850  39.6032780  30.6085164  35.2653191
  38.7402981  30.5639321  34.0226337  52.2970057  74.1896677  94.9321175
  52.0156288  74.5499897  94.0911484  53.2498407  74.1320896  94.8612595
 102.1586448 103.3870460  31.6549465 101.3446123 103.8703729  31.7962620
 102.4370271 103.6390068  30.7744572  68.7238914  70.1442947  -0.3048637
  67.9783112  70.1065804   0.2942345  69.3204099  69.4661285   0.0121376
  45.0711060  47.5365639  95.1583290  45.7035255  48.1619215  95.5121899
  44.2798090  48.0542564  95.0097656  25.2507019  74.4481945  86.7389870
  24.6177053  73.9057970  86.2685013  25.2200174  75.2941942  86.2922478
  60.4212291 101.7107918  36.0222027  59.9265701 102.1534540  35.3325626
  61.0520465 101.1654903  35.5521462  42.3825741  48.6002493  84.9429512
  42.6008081  48.7601519  84.0247726  41.6518784  49.1920614  85.1220322
   3.0360955  14.8508126   2.1119091   2.8454130  15.6015641   1.5495560
   3.3423250  15.2376324   2.9321739  60.0659418  26.6810036  90.5210400
  59.5800018  27.4328208  90.8599567  59.3891096  26.0661483  90.2380562
  94.8007709 104.7882749  13.0558178  94.3082744 104.4262220  12.3192093
  95.7018263 104.8433592  12.7375385  48.2551146  71.0879421  96.6110611
  48.0515528  70.8376026  95.7098866  48.2302332  70.2651978  97.0996380
  98.9625038  12.0606858  18.9875385  98.8878096  12.5784261  19.7891590
  99.0343107  11.1561877  19.2924187 108.8792218  34.3618542  17.6067040
 109.7672404  34.3224484  17.2515938 108.8977850  35.0991017  18.2169125
  20.6163519  21.1339957  25.0559971  21.4114159  21.4317471  24.6139023
  20.3932684  20.3117806  24.6196148  14.5132225  59.4633443  27.1588585
  14.4233244  60.1426560  26.4905140  13.9809292  59.7753865  27.8906509
 111.5438021   5.7047421  17.0308086 111.9723547   6.3514573  16.4701530
 110.6578577   6.0451371  17.1551773  70.7660151  77.8790426  78.0999470
  70.8117151  77.1346951  77.4998713  70.6223774  77.4846840  78.9602280
 108.4685195  53.4806592  22.6433727 107.6730646  53.8766438  22.2874615
 108.1791104  52.6407964  22.9999039  73.3566863  95.7493021   7.5332424
  74.1372020  95.2112557   7.4008438  73.1246788  95.6128122   8.4518215
  73.9682913 108.6777401  71.6294289  73.3832693 108.7927437  72.3782635
  73.5120916 109.1006279  70.9019184  61.2566191 101.2830974  25.5757877
  60.6086070 101.6499664  26.1772224  60.8180100 100.5288746  25.1820919
   6.4410513  30.9395558  49.1090080   6.7812556  31.5793855  48.4836266
   6.6790741  30.0905568  48.7364742   7.3129338   4.7151191  25.8059475
   7.4214476   5.2543504  26.5893337   6.4526432   4.9591405  25.4644939
  80.2185137 102.3055603  52.8306362  80.7641870 101.5206148  52.7823994
  79.9352056 102.3445465  53.7441132 114.0220863 100.4065468  20.0021240
 114.6772129 100.4901745  19.3092701 114.3239099 100.9997894  20.6900188
 118.3922447  34.2248971  38.1540749 117.8344334  34.8907048  37.7518627
 117.7811135  33.6358601  38.5965416 110.7746066   2.9357917  16.7189285
 110.6546820   3.2742888  17.6062080 111.4670409   3.4813935  16.3459847
 103.3162672  97.1881868  38.9503452 103.5170442  97.0423700  39.8748276
 102.5869543  96.5958645  38.7673256  82.8132425  22.9464108  13.6371967
  82.8993035  23.5012729  14.4124100  82.2082020  22.2543246  13.9039871
 113.1936682   7.6331860   0.1395294 112.3636020   7.4054486   0.5582783
 113.1203235   8.5697610  -0.0439861 114.9547637  12.5610215  11.5626881
 114.5558084  13.3093650  12.0065949 114.4702638  12.4839122  10.7407734
  72.9266507  86.4191271  23.2642052  72.2798187  87.1217157  23.1993172
  73.6334926  86.7922141  23.7909004 110.9296066  85.3708269  36.5061256
 111.2123186  84.5234920  36.8501160 110.0439388  85.4857184  36.8505547
  71.3503742   2.7585873  88.5039139  72.1039152   2.9985282  87.9646301
  70.8156490   2.2044872  87.9353428  10.3465670  14.6103532  10.7473919
  11.0153549  14.3572528  11.3837025  10.7221955  15.3638512  10.2920124
  -0.1621709  23.1405520  95.5908108   0.0311327  22.2056437  95.6601715
   0.4352669  23.5554695  96.2130165  91.3903648 108.9179947  14.5488712
  91.3228780 108.7951709  15.4957554  91.9348175 108.1892349  14.2510197
  74.2777139 105.4426052   1.9206497  74.4906956 106.1953117   2.4722836
  75.1165110 105.1769067   1.5437386  21.5674210  89.5273495  81.7101860
  21.2204242  90.1394653  81.0612297  21.3816214  88.6617279  81.3463211
  78.9908981  25.1898623  77.4700880  79.2211914  24.6609044  78.2338905
  78.5352802  25.9493113  77.8332424  95.7515985  83.9885809  23.4483692
  96.4222223  83.3544804  23.7021610  95.6821329  84.5774295  24.1998074
  48.3892536  61.3204861  91.2730408  48.2472897  60.8321285  92.0839596
  47.6132631  61.1365128  90.7436752  90.3942615  89.6693637  14.3638012
  91.2307817  89.9332883  13.9806339  89.9408704  89.2107870  13.6564228
  32.5603151  58.2425880  66.8683386  32.2972655  57.4957705  67.4062014
  31.7670345  58.4849358  66.3906288 108.2054723  57.0847947  13.9655659
 108.1956328  56.7598111  14.8658535 108.2369817  58.0372769  14.0550777
 106.0242427   4.7210700   2.8902695 106.5014018   5.1624638   3.5929272
 105.4354371   4.1173369   3.3430931  92.0709593 107.7364923  24.9713394
  92.1689684 108.6812259  25.0901196  92.3441154 107.5791170  24.0675423
  41.8778818  29.5278889  32.6553890  41.5761488  29.3460042  31.7653820
  41.1365813  29.9644238  33.0750820  89.6067983  91.1282541  33.4669849
  89.0942318  91.7125847  34.0256092  90.2587063  91.6980054  33.0587742
  13.4176796  58.9075333  38.1477997  13.1702584  59.6083791  37.5446198
  13.4288853  59.3254430  39.0088722 113.1024009  81.3528682  18.6498425
 112.7315218  80.5481722  19.0119812 112.7293617  81.4139392  17.7704403
 106.1372937  28.4737069  21.9212696 106.2115444  27.7987916  22.5959560
 106.7095102  29.1788537  22.2238800  25.0911062  17.7326686  15.2045414
  25.0774925  17.3745972  16.0921356  24.1680973  17.8468568  14.9781582
  83.5785071  37.8719289  27.9412529  84.0792895  37.9034001  28.7563965
  84.2213310  37.6304299  27.2744057 107.3792876  29.0432317  11.6755554
 107.5721992  29.6693093  12.3734448 108.1039370  28.4186322  11.7070744
  37.9355353  32.8175694  40.1064751  38.3555811  32.1064526  40.5903122
  37.2898644  33.1738049  40.7167599  73.9155108 100.9308626   2.0754883
  73.8191826 101.6204168   2.7323505  73.1156999 100.9849359   1.5524075
  13.1458920   1.2767369  13.3385632  12.5285547   1.8894154  13.7382576
  14.0011948   1.5456683  13.6737701  45.1459372  99.2311575  18.9353821
  44.6992094  99.8676540  19.4935391  46.0703719  99.4738771  18.9877388
   7.6206511  40.2421624  47.3754189   7.4263590  41.0088498  46.8362782
   7.3058623  40.4771668  48.2482979  94.7417236  19.0978343  16.5855667
  95.6487287  18.8310773  16.7352745  94.8069824  19.8462731  15.9924290
  56.0152912  82.6282978  67.6140404  55.7997370  82.7198410  66.6859293
  56.9719267  82.6041889  67.6364994  24.4869900  97.8722763  94.8248386
  24.1081238  98.2371330  95.6245708  24.7070050  98.6373615  94.2933559
  18.6466234   1.5072305  31.7449925  18.1832093   0.7937009  31.3064072
  18.3653134   2.2961003  31.2815449  88.2124931  97.7304508  34.0194008
  88.8468200  97.3014261  34.5936844  88.5265667  98.6317207  33.9465878
  36.6663957  37.1328115  92.6180172  36.8174100  38.0774665  92.5855541
  35.9496379  36.9835114  92.0014095  90.6920988 105.5207016  25.6071732
  91.3272173 105.0017263  26.1006519  91.2095863 106.2256242  25.2179119
 106.0910357   9.0067059  23.0776760 106.8889273   9.0425307  23.6052296
 106.1862601   9.7234399  22.4504158  17.6572197   6.0050971   8.5847733
  17.7977627   6.7492348   7.9993412  17.1712988   6.3704497   9.3241188
 114.8167075  12.1525580  36.7118618 114.0520276  11.7124707  37.0830986
 114.9898375  11.6839320  35.8953735  54.0730769  90.8523728  17.6019833
  53.6203737  90.4075863  18.3185455  54.6722264  91.4589526  18.0370876
 116.6429127  28.3879906  26.7929623 117.3189367  29.0299088  27.0101521
 116.6689695  28.3264691  25.8380959  53.7886411  73.5588648  18.5225365
  54.3268282  74.1432358  19.0564796  54.3686861  72.8282417  18.3081314
  52.3750067  88.7643719  66.9406366  51.8553019  88.1439400  66.4295530
  52.5254345  88.3204079  67.7752018  34.5866602   5.1091964  24.1190884
  34.1514891   5.7750708  24.6515057  33.8765829   4.6884353  23.6343357
 107.8211487   8.6896331  37.3695252 107.2291459   9.4410760  37.4027226
 107.3099435   7.9658133  37.7314446 111.0254032  80.4629375  63.3980248
 110.6866390  81.3386323  63.2119438 111.4156849  80.1766278  62.5722286
 104.5714081  22.1477467  22.6816246 104.8254002  23.0706269  22.6844856
 104.2571534  21.9885785  21.7915985  75.9236604  94.2344453  53.4751770
  76.8793232  94.2260243  53.4215710  75.6941134  93.3625652  53.7966702
  35.3867936  71.4919090  79.7491169  35.4718471  70.8898258  79.0098619
  35.7066417  70.9940672  80.5014992  32.1337366  44.8217154  67.1529818
  32.8810883  45.2718067  67.5468302  31.5116954  45.5209684  66.9521332
  19.9560660   5.3665168  19.5449612  20.3273934   4.7600467  20.1856968
  19.1675299   5.7076032  19.9669811 117.1609105   3.1894500  35.9115383
 116.2566985   3.3735711  35.6571075 117.2613681   3.6145741  36.7632458
 110.2107371   8.8511950  26.2417290 109.5759071   8.6024386  26.9135544
 110.5429376   9.7016055  26.5292713  35.7338405  55.8605766  78.9389181
  35.5269384  54.9264860  78.9088821  35.4598308  56.1386061  79.8128986
  65.9400225  74.6824884  94.8119640  65.1036644  74.6408367  95.2756500
  65.8025932  75.3384876  94.1285896  70.4426432  17.4589801  90.4745007
  71.2490034  17.9037392  90.2133274  70.4435158  17.5034046  91.4306641
   1.2809962  16.6221434  30.3384659   1.9108504  16.0947377  29.8471901
   0.5107778  16.6649014  29.7717545  58.9547569 109.0788080  12.2563431
  59.3949002 109.4574262  13.0173657  59.6610839 108.6916401  11.7392036
  82.5960255  47.5368214  91.2912083  82.1078300  47.8910542  92.0344543
  81.9215775  47.2141218  90.6935406  43.5987586  82.9309370  13.2501099
  42.7774272  82.9099967  13.7412426  44.1595659  82.2948147  13.6940453
 105.8144266  64.6475531   7.0738575 106.2188656  64.7375746   7.9367325
 106.4910919  64.9352218   6.4609882   9.2655771   6.9425685  21.7614147
   8.3719652   7.2628123  21.6384003   9.6610468   6.9959933  20.8913586
  78.2586861  34.3917799  86.4693928  78.4496546  35.1390243  87.0363045
  79.1137648  34.1185188  86.1371326 101.1513127  20.3683240  48.2424614
 100.6979717  20.0026280  49.0020535 102.0561899  20.4794032  48.5341618
 107.1677858 108.9657261  13.4285614 106.9076568 108.5868694  14.2682240
 108.1230718 109.0088941  13.4709427 112.0240439   0.7244832  19.1735813
 112.0504535  -0.1647275  18.8202545 111.1864842   1.0769564  18.8727638
  27.8059745  93.3694649  92.1576595  27.2079754  93.9125443  92.6711655
  28.0418563  93.9158916  91.4079857  40.0598145  61.9824076  78.7971258
  40.1023626  61.0326958  78.6854458  39.2197394  62.2314835  78.4118176
  47.6871729  88.7136985   6.8861935  47.5218440  87.8421404   6.5266296
  47.3519236  88.6708786   7.7817413 111.8442995 102.1502639  20.7765839
 112.3977977 101.4424183  20.4466984 112.4460727 102.8826334  20.9097645
  24.7426861  16.7208058  32.2880528  24.6050709  16.2450082  31.4689610
  25.6469506  16.5223843  32.5312874  61.6519791  83.9293815  30.2349350
  60.8700139  83.4366967  30.4839870  61.7054564  83.8293840  29.2844841
  60.7613522  95.7216479   7.3755619  60.8175832  95.0298621   8.0347321
  61.1773688  95.3470518   6.5991375 108.2097036 102.8908493  11.1717007
 107.2650129 102.8369524  11.3162205 108.5131056 103.5368873  11.8095181
 100.8119095  28.2359177  22.9647228 100.5992378  27.5772816  22.3035023
 101.0970748  27.7288205  23.7248394  72.4563939 104.5373871  24.9350807
  71.8317968 105.2383806  24.7487614  72.3429305 103.9176943  24.2144367
  44.2990494  26.3257813  81.5064716  44.1911793  25.4669070  81.0978985
  45.1174068  26.2560725  81.9980717  70.2349598  83.0853655   6.4691135
  69.3254692  83.1628610   6.1809227  70.6200058  83.9409591   6.2795517
  23.3848446   2.4265487  29.0705273  23.4764450   2.3558242  30.0207016
  22.9699295   1.6048438  28.8080761  55.5371046  39.7656560  94.7345448
  55.6751442  40.5092764  94.1478539  54.8154831  40.0383854  95.3012085
  31.5896201  76.1516380  95.8950138  32.5231528  76.3621283  95.9159851
  31.3517666  76.0258436  96.8136215  43.8288515   5.9693486  21.2230179
  43.4013098   5.6623179  20.4235432  44.6711176   5.5146987  21.2339661
  19.6009033   2.2729117  27.0078823  20.1789921   1.9022948  26.3410255
  18.7207049   2.1690184  26.6463730 107.1932251  73.4565152   1.3324329
 106.5963012  74.1044034   1.7068073 107.5650293  73.0067732   2.0911953
  82.8969843 102.6422741  40.5570290  81.9718439 102.8788091  40.4906914
  83.3399660 103.4644653  40.7667992  43.0386448  73.4870672  66.7486286
  43.9951563  73.4687185  66.7172956  42.8235626  74.3934155  66.9688749
  28.4209394  34.8036671  91.8473148  28.6663556  34.1693830  91.1737537
  27.4984455  34.9917269  91.6744804  47.0258188  63.9675999  68.8736677
  46.3985348  63.7570000  69.5653248  46.4849520  64.1267538  68.1001282
  56.9720936  72.4671030  77.8718662  57.1015167  71.6006231  78.2574654
  57.8014517  72.6612377  77.4351692  10.9096926   3.8075644   0.4217217
  10.7008618   3.1369693  -0.2285984  11.7203491   4.2051608   0.1039574
  70.2005196  91.5857315  69.4851542  71.0514688  91.5780830  69.0469027
  70.0470448  92.5071430  69.6941853  54.5409203  50.5846167  89.4790745
  55.2324152  51.0968590  89.0599442  53.7434053  50.8297586  89.0099239
  15.3432816   0.9260279  31.0310528  15.5075711   1.0048158  30.0913498
  15.3126782   1.8296058  31.3454315  98.4535534  98.5792734  24.9160168
  98.0061228  99.3790199  24.6395371  97.7543098  97.9313757  25.0027248
 103.3469696  26.2349820  76.9542933 102.4979229  26.2657595  77.3952055
 103.1408639  26.3636875  76.0284519  76.4551260  30.9444196  30.2544949
  75.7665364  30.6301839  30.8404419  77.2583243  30.5519540  30.5966541
  68.0726678 100.7886841  42.0739815  67.8151376 100.0128938  41.5759251
  68.0396802 101.5033914  41.4381001  12.5877684  46.2335069   5.6999180
  13.3024185  45.9622247   5.1237938  12.1290892  46.9146878   5.2081463
  65.9816415  96.4244749  10.2023098  65.4632646  96.3902952   9.3983528
  65.6649644  97.2041084  10.6585094  34.5603418 102.5708961  87.2414589
  34.7968841 103.1590843  86.5242958  35.3253484 102.5749302  87.8167629
  48.7624598  73.3604717  81.6933632  49.3445635  72.9965591  81.0263157
  47.8818464  73.1456947  81.3857555  98.3228571  75.7321634  31.4988205
  98.5354263  75.3048350  30.6691048  97.9000742  76.5523745  31.2443897
  18.8353365   7.1560962  41.0529587  18.6050671   7.3971278  40.1556751
  19.2599028   6.3022143  40.9701321  51.0294819  14.3555546  92.1625423
  50.8134127  15.1180899  91.6258049  51.7622137  13.9415550  91.7065334
  66.6237241  94.2156293  11.9912884  66.0290462  93.4951021  11.7828819
  66.2318904  94.9795963  11.5681335  67.7229482  84.7921230  37.7684948
  68.3045060  84.4781424  37.0760796  67.5668532  85.7112862  37.5516960
   4.0424984   5.7759387   0.8028576   4.8032873   5.2682311   0.5206081
   3.3547753   5.1234299   0.9351227  15.3568524  32.8766877  31.1516735
  15.1721352  32.9155022  30.2132675  15.6722515  31.9847066  31.2969944
   3.6563366  21.6006429  26.2258789   3.0363959  21.6858870  26.9501946
   3.1690233  21.1334998  25.5472538 112.8421844  26.8714577  56.5926334
 113.1694616  26.9595868  57.4878189 112.2370923  26.1307484  56.6306660
  18.4626454  13.4678752   8.8123200  19.3481081  13.1048781   8.8328049
  18.5876387  14.3922192   8.5973808  29.8529810 104.6876623  29.4768784
  29.8400987 104.0625240  30.2016327  30.2898592 105.4604484  29.8348782
  39.7447920  59.7955179  86.6760826  39.2060399  59.9546194  87.4511051
  39.4332647  60.4323816  86.0329723  84.6369344  91.4720537  33.2794926
  84.8909075  92.3426916  32.9733631  84.3988687  90.9980156  32.4827263
  38.4648943  72.8112793  89.2542076  38.8102388  72.8666019  90.1452255
  37.5141764  72.8109884  89.3654060  56.8466330  34.2231369  92.5014305
  57.2309685  33.5879302  93.1056023  56.0751820  33.7806273  92.1474838
 114.5340187  80.2580263  28.1582710 114.6740228  81.0078265  27.5799629
 113.7043220  79.8812105  27.8652737   2.2988957  15.7448489   8.2566044
   3.0121678  15.1408870   8.4632656   2.3764103  15.8935220   7.3142120
  43.7488985  80.0818443  87.9874134  43.3990574  80.8104229  87.4745560
  44.0114784  79.4333935  87.3341179  48.2819414  17.4656224  71.6844797
  48.4567642  18.1392741  72.3416424  49.1474628  17.1344185  71.4448786
  38.7366390  29.1405463  72.6765585  39.3698931  29.6809196  73.1490183
  38.0362177  29.7471237  72.4363375 106.1110288 101.8314983  19.5710537
 106.6914112 102.5208189  19.8938820 105.5105526 102.2824623  18.9775154
  96.5301925 107.0809557  19.7761795  96.5816099 107.7193739  20.4875252
  97.3919279 107.1151830  19.3608925  37.9836624   5.3475529  11.0866997
  38.2083147   4.5631368  11.5871594  37.4693125   5.8797652  11.6936752
  31.1180418  23.5869271  34.8649189  30.2285164  23.5478265  34.5135757
  31.1243313  22.9430777  35.5731842  22.2437399  13.9279324  13.0238983
  21.3657492  13.8293320  12.6556084  22.7324742  13.1794316  12.6816723
  76.1082036  97.1558382   6.9564983  76.0122115  96.2187816   6.7863724
  75.7518059  97.5788452   6.1752960  43.5781574   9.4860888  88.3541584
  42.6452446   9.6016943  88.1737709  43.7369919  10.0099540  89.1393757
  -0.0948483  21.6439444  36.0099098   0.4640573  22.4057252  36.1633369
   0.0376695  21.0907132  36.7797157   6.1718082  36.9711041  82.1839046
   6.7998660  37.0837188  82.8974152   6.6737407  37.1597528  81.3909912
  65.0334293  71.1471869  31.7475483  64.5675952  71.1006691  30.9126446
  64.7795660  71.9930865  32.1166584  50.0866413  43.4560347  82.7177334
  50.5622911  44.2618608  82.5161552  50.1001740  42.9589415  81.8998432
 112.9558838  26.5359551  14.9136326 112.5466622  27.3148877  14.5367500
 112.2407497  26.0812527  15.3586742  33.2866335  41.0516834  93.5613251
  33.7395263  40.7448053  92.7758694  32.9626870  41.9212961  93.3266640
  38.3978105  29.2433763  88.1689453  37.7781653  28.5146236  88.1344604
  38.2418227  29.7289348  87.3589230  99.1398490  15.8011872   7.0823166
  99.8088110  15.9816081   6.4218876  99.4758237  15.0447614   7.5631210
  31.9886130  16.6195018   6.2761757  31.8457430  16.9223792   7.1728870
  31.4118450  17.1671874   5.7436249   5.0739258  12.6554210  24.1817829
   4.4144219  12.8176696  23.5072681   4.8521441  11.7921788  24.5308659
  92.8375036   7.8961997  76.0739803  93.4339601   7.6546340  75.3653812
  92.2636253   8.5583739  75.6887245  77.3555047 102.9564096   6.6459724
  77.3587710 102.1635582   7.1822617  78.2787568 103.1179811   6.4517185
  94.2826820   9.5176846  24.1215107  93.4781183   9.0777165  23.8470337
  94.9609972   9.1529519  23.5531017  92.2580272  73.7384488  20.5100319
  93.0172188  73.3641543  20.0630734  92.4692756  74.6673145  20.6039211
 117.9642809  38.6685139   3.2560799 117.1583379  38.9337022   2.8129551
 117.7302254  37.8629262   3.7170288  54.9212408  47.1105242  93.0531693
  54.3571663  47.8451920  92.8116798  55.8067322  47.4737692  93.0392742
 100.4976494 105.8554317   3.5366604 100.9929163 105.2334739   3.0036423
 100.1249487 105.3242161   4.2403194  39.1647243  54.4612932  79.9993229
  40.0258541  54.2317200  79.6500635  38.5459423  53.9991379  79.4338560
  20.9551352  12.5414855   8.4834263  21.0935944  12.6565987   7.5433132
  21.8027848  12.2463090   8.8159821 114.2580093   6.4730889  17.2570107
 113.7660564   6.4685160  16.4359161 114.7723044   5.6661565  17.2325775
 117.8270227 106.7704441  19.5532486 118.1998045 106.0604145  19.0306446
 118.5622389 107.0980360  20.0713036  22.1255272  12.6623065  18.5373089
  22.8223580  12.4830682  17.9060242  21.3477009  12.2531897  18.1580517
  59.8193008  92.3533489   6.9121716  59.1467458  93.0311586   6.9790813
  59.3624622  91.5984370   6.5411732  89.3753320 105.5983068  51.9734165
  89.1594536 106.2066461  51.2666294  89.5129616 104.7593309  51.5336296
  23.6979413  21.6089058  72.9068375  24.5273399  21.2613010  73.2347107
  23.8377452  21.7144132  71.9657993  48.3879900  64.0374327  92.1312428
  48.4943390  63.1442404  91.8039417  47.6033449  64.0002489  92.6782131
   9.7819107  22.2311789  56.2259171  10.5556219  22.4841697  56.7294952
   9.4494885  21.4525658  56.6725609  83.6410618  23.5354733  81.5126801
  83.2458687  24.4067073  81.5443611  84.5398140  23.6690640  81.8137264
  33.6006087  52.1844918   4.8463985  33.3225506  51.8540913   5.7006523
  34.3002289  51.5899045   4.5757839  10.6778777  77.6438093  93.1928062
  10.6827378  76.8135118  92.7165508  11.4423668  77.5951910  93.7667561
  24.6172064  31.4953477  48.6860916  25.0347870  30.7820565  48.2033035
  25.2878016  31.7933709  49.3006775  20.8756321  29.8059995  17.2784397
  21.7080849  30.1789815  17.5685093  21.1176413  28.9861256  16.8477699
  57.8144789  71.6508961  93.0496788  58.6095667  71.1875725  93.3131123
  57.4860334  71.1554909  92.2993946   2.9277676   3.0883033  29.0477440
   2.7425640   3.9576012  29.4030735   2.0867508   2.7852589  28.7055656
  54.2041254 103.7014961  73.5916853  53.7435579 103.4052372  72.8066158
  55.0445175 104.0260506  73.2682133  34.4508665  19.7757394  22.9548523
  34.1292494  19.4459874  23.7939331  35.1811999  20.3492982  23.1869576
  19.2116087  16.2064225   8.6131165  19.2407625  16.4042003   7.6770279
  18.5742443  16.8255812   8.9689896 104.5925028 106.8106462  21.9247601
 104.3820698 106.4254667  22.7754089 104.9093134 107.6898624  22.1317360
 110.6771244  12.4622733  16.5106747 110.7192505  12.1340615  15.6124947
 111.3261403  11.9434888  16.9859383  27.7635353  49.6396500  17.9573891
  27.2112911  48.8620717  17.8758785  28.6569708  49.3101270  17.8603622
   8.3158510   5.3846509  48.0259583   8.1943148   5.8666713  47.2079632
   7.5082844   4.8813445  48.1296322 114.0974886 105.5321266  35.3087875
 113.6167270 106.3521721  35.1963875 114.4648201 105.3493740  34.4439766
  38.8889480  94.9912167  76.9818974  38.8596463  95.2762127  77.8952169
  39.3488169  95.6959629  76.5257263  93.2216102  99.0992548  53.5621235
  93.5268289  99.7922422  54.1476509  93.9755422  98.9076425  53.0043575
  30.0933099  63.6033726  82.6705074  30.6538963  63.5546303  83.4448433
  30.3201270  64.4391918  82.2628403  15.6310576  30.4640061  12.6879093
  15.3736084  31.0507447  13.3990261  16.2016028  29.8183209  13.1048176
 110.4109944   2.1737296  12.1843693 111.1725677   1.7640025  12.5946877
 109.8858679   1.4391476  11.8667767  21.5510481  22.0137317   0.0387165
  22.3268526  22.4929673  -0.2523163  21.5738838  22.0781810   0.9934685
  89.3722088 111.6180803  15.4646656  89.7831327 110.9995319  16.0686276
  88.4365970 111.4247371  15.5236218 112.3461563 102.5987484  40.2589771
 112.6806194 102.4226143  39.3795750 111.7114860 101.9001295  40.4182217
  20.6395834  19.6458918   4.1294834  20.5236166  19.3128211   5.0193378
  21.5108221  20.0423199   4.1337654  94.5171386 101.1916019  29.3876526
  95.0187284 101.0211899  28.5904095  93.8755829 101.8536331  29.1300747
  17.5453316 110.3339340  12.0751736  17.3093926 111.2041666  12.3965141
  16.7719780 109.7970058  12.2479698  98.0960048  60.5411488  11.8381664
  98.7001372  61.2630040  12.0118877  97.5997938  60.4432637  12.6508400
  96.6524250 110.6771423  16.3773319  97.1403200 111.4899732  16.2450573
  97.2296221 110.1363565  16.9164345 113.9197553  39.3003041  24.0164063
 114.7304333  39.0936238  23.5513088 113.5136760  38.4490449  24.1797993
 111.4148933  94.5868184  25.1767323 111.6350729  95.5117037  25.0656483
 110.6938678  94.4371416  24.5652172 117.6884759   7.0331246  33.6330292
 116.7692603   6.9394595  33.8830349 117.7748359   6.5086276  32.8369972
  73.1277674  28.2588631  22.1894905  72.4226206  28.7014825  21.7171738
  72.6779097  27.7058751  22.8282902  44.4764423  75.6834602  95.4160213
  45.0386095  75.4491758  96.1544704  44.1287756  76.5457106  95.6437874
  14.1526621  23.2080132   5.5990383  13.4739464  23.2881457   6.2692329
  13.8628548  22.4789864   5.0506279  25.0584381   2.4975640  15.1976177
  24.3397492   2.3245436  14.5895168  25.1600712   3.4492499  15.1837227
  20.3953552 109.5390320  93.9661503  21.3380432 109.4047260  94.0637970
  20.2209711 109.3514919  93.0438423  54.1287661  93.0235481  88.0240250
  53.9032030  93.9534283  87.9979706  54.5792723  92.9097271  88.8608742
   1.5897530  28.1141621  11.1401341   1.0711449  28.5638100  10.4729912
   1.6945666  28.7607533  11.8381092  23.0400818   0.6646258  16.9849846
  23.8314265   0.8121783  16.4670727  22.9191130  -0.2848190  16.9723103
  31.8319821  90.1272774  87.7805328  31.8147612  90.3379154  88.7141132
  32.7427983  90.2653980  87.5205994   4.1253107   7.9538972   6.1621544
   3.9810484   7.2375066   6.7803833   3.2497709   8.2984883   5.9863159
   6.8153399  29.0546567  38.4524796   7.3149317  29.8674542  38.5299847
   6.5929621  28.8232858  39.3542740  20.1512783  30.5867154  14.6771977
  20.1168459  30.3623730  15.6070969  20.2962845  31.5327794  14.6642658
 112.1072472  18.9080769  43.6886475 112.8923858  19.4534451  43.7372181
 112.1100605  18.5631759  42.7957413   1.4215790  99.5144464  11.0335800
   1.8094765  99.7142173  10.1816055   0.7867323  98.8216688  10.8511898
  27.8438497  96.2198734  78.1792974  27.7430701  95.8603287  79.0606642
  28.0524611  95.4615784  77.6336861 117.4197072  93.4253788  89.0442848
 116.8179600  94.1008282  89.3571758 118.2909912  93.7866020  89.2074108
 113.4498728  12.0823533  16.1838600 113.9631880  11.8831879  16.9668457
 113.8389266  11.5397412  15.4979679  11.6429156  53.8800866  22.7395317
  11.0561197  53.1257111  22.7925942  12.3166531  53.6158521  22.1130440
 115.9394229  35.8286816  14.0376350 116.0560645  35.0549752  14.5889923
 115.2879132  36.3561112  14.4997952  28.7311571  58.8518864  24.3712685
  28.3051031  59.3018681  25.1008102  29.2111033  58.1322533  24.7811768
  99.1652900  93.9421155  59.5569489  98.7366134  93.1163074  59.7816917
  99.9630529  93.6805011  59.0972015 112.6526100  95.7676126  19.6110317
 111.9880039  95.1508214  19.9177906 113.2666380  95.2292992  19.1116116
  14.0719813  28.2837159  25.2523300  14.3161362  27.6440007  25.9211895
  13.5225600  28.9163071  25.7151482  29.7823113  50.6416184   8.1386253
  29.6053475  50.8908612   9.0457031  30.1282852  49.7511155   8.1980583
  23.6093109  32.0811612  36.2305138  24.3570154  31.4979226  36.1001370
  23.4768408  32.4950654  35.3776619   4.7140347 107.4603607  47.4102184
   5.0340783 108.3476736  47.2474739   4.0087067 107.5732519  48.0473969
  26.0592716  39.5183522  41.7595741  26.7233818  39.0443856  42.2601101
  25.2664345  39.4533688  42.2919437  20.3682345  23.5563237  52.2703335
  20.0822323  24.4672067  52.3390266  20.1219004  23.1641108  53.1080219
  34.0516424  78.9525127  86.0716534  33.7490010  78.3311462  86.7338753
  34.4493032  79.6634722  86.5742874 107.0750696 109.9287130  10.3468582
 106.4494116 110.1757766   9.6658680 106.5341741 109.5694162  11.0501167
  88.2749653  72.0699167  90.1737499  88.9408493  72.7319527  90.3595924
  88.0540943  72.2044849  89.2521477   0.4611104  50.4987485  33.1164524
   0.9671038  50.0673920  33.8050243   1.0523718  50.5227906  32.3640797
   1.5810173  34.7266919  17.7021858   0.6724137  34.6446187  17.4124691
   1.5188759  35.0906236  18.5853264  22.1773785  31.7719609  21.3047764
  22.8432673  32.2210175  20.7840321  22.1872442  32.2247083  22.1480724
  52.4900579  48.5990858  95.1331329  51.7666245  49.1815138  95.3647614
  53.0359936  49.1183615  94.5427608  20.5534714  27.9961068  25.2427361
  21.3869351  28.4485967  25.1130268  19.8955076  28.6902291  25.2037880
   9.1255587   1.3791901  66.5412304   9.7898119   2.0211036  66.2903378
   9.5739001   0.7983500  67.1559116 113.7745465   1.9618518   7.9088852
 113.0617584   2.3515374   8.4151623 114.5533932   2.4491698   8.1774971
  22.5630379  86.6467857  65.3137732  21.8262577  87.1023178  65.7210541
  22.8049660  85.9697819  65.9457254  35.5121946  92.9368782  80.8099651
  35.3197765  93.8600540  80.9741497  36.2734008  92.9503822  80.2297783
 118.2074965  19.8939616  22.6622841 118.1807936  20.3695781  21.8320343
 118.1180109  20.5734212  23.3305332  41.0909670  31.3170773   5.0424835
  40.1839464  31.1173589   4.8108265  41.5578383  30.4910428   4.9163029
  34.8482919  91.9733143  89.8869514  35.7431626  91.9636154  89.5473289
  34.7462702  92.8453445  90.2682686   8.5523432   6.7390544  16.4207813
   9.3493193   7.2315986  16.6168949   8.2208794   6.4689452  17.2771713
   7.4679726  63.9068467  15.1647827   7.5175637  62.9778249  15.3899357
   7.4401301  63.9202840  14.2080853  54.9739122 107.3016357  89.2165756
  54.0535116 107.0390415  89.2283821  55.0589228 107.8413963  88.4306622
  76.0815365 106.6964342  61.8481514  76.4684469 107.4683668  62.2612450
  76.6470176 106.5181400  61.0967037  28.1609219  34.9564320  24.7256729
  27.5671356  34.3092210  24.3451759  28.8083380  35.1198823  24.0398476
   2.5745266   2.1646315   4.4359848   2.4071806   2.1804721   3.4936592
   2.1883124   2.9777009   4.7615311 106.6651947 101.7837383  52.3029682
 106.4630777 102.3970510  53.0095360 105.8342869 101.6666938  51.8424007
   6.2852543  39.2951829  25.6589386   5.7188242  39.1709096  24.8974011
   5.9174650  38.7175996  26.3277981  39.3694210  99.9292088  93.0586243
  39.0737438  99.0808582  92.7283192  40.0135660  99.7125053  93.7326717
  10.4486912  36.3092477  11.5177319  11.0817354  37.0169408  11.3966629
  10.9692305  35.5085713  11.4529678  50.6783247  77.4585056  70.6768179
  51.0133028  77.5426769  69.7841072  50.2229500  76.6165924  70.6833792
  49.1279602 105.6288910  95.8199501  48.8123417 104.8525810  96.2824917
  48.8927603 106.3601303  96.3910961 112.8219665  42.3175961   7.8384182
 112.6021613  43.1642491   8.2271263 113.4309209  42.5296838   7.1310112
  32.8281182  73.7009866  14.4998905  32.9647558  74.2734486  13.7450096
  33.7085026  73.4215600  14.7510502   6.2928694   9.8975570   5.8092281
   6.8646782   9.1303021   5.7851193   5.5154055   9.6020562   6.2829945
   2.2786825  35.3866822  27.6848290   2.5516384  34.5873982  28.1352303
   1.5754526  35.1039368  27.1002361  54.1008806  96.7591095  92.5099945
  54.8428822  97.3029423  92.2455978  53.4844494  96.8239689  91.7805862
  58.4351778  60.7510376  92.4046898  59.3567228  61.0021400  92.4673557
  58.4511471  59.8763990  92.0161152  88.8214475  57.8509903   5.8113930
  89.2201120  58.7207474   5.8400414  88.2343752  57.8316000   6.5671703
  18.2619303   3.8638551   7.0824024  18.0470389   4.5652682   7.6972744
  18.7016361   3.2028872   7.6172039  16.7465609  18.5730511  15.3989861
  16.3617676  18.7149102  16.2638828  17.6913994  18.5923440  15.5511066
  39.2765635   3.1597812  55.4890701  39.3655127   3.3428246  54.5537540
  40.1555365   2.9026038  55.7674477  47.4847889  79.4375420  85.8116341
  47.5254488  80.3907013  85.8896065  47.7154493  79.2617989  84.8994160
  74.4201660  72.3983765  63.6762190  74.3167400  72.1064329  62.7705145
  74.0090704  71.7094564  64.1983557  74.4017536 102.9893257  13.4104988
  74.4513613 103.1648637  14.3501637  75.3107816 102.8513242  13.1443092
  21.5934467  73.3185959  77.1427870  21.3519573  74.2443991  77.1711922
  21.7836308  73.0926371  78.0532837  34.5913005  90.7725525  73.6165857
  33.9429116  90.0733852  73.7002325  35.3748727  90.4247189  74.0423346
   6.8956154  33.2199342  31.0855648   6.4781874  32.3585755  31.0776302
   6.8180340  33.5153443  31.9927284  28.6541629  76.3925695  73.4663343
  29.4291735  75.8513308  73.6168289  28.6573601  76.5586185  72.5236559
  97.7866489 104.6203853  28.5702107  98.2623798 103.7903787  28.6018059
  98.1210834 105.1167299  29.3172237 107.3615629 104.7193577  26.2235043
 107.6688797 105.1189901  27.0371887 107.2867328 103.7872173  26.4278290
  26.0398548  52.6843697   9.4213745  26.1327809  52.2867448  10.2871010
  26.8823975  53.1095273   9.2613956  15.8809042 102.2698307  95.1144981
  15.4337752 102.9629230  95.6002331  15.2505863 102.0007133  94.4462872
 116.6164983   2.0133120  30.6538555 116.2458933   2.3832566  29.8525879
 117.5487150   2.2254140  30.6067345  76.7943055 111.4026691  47.5232575
  75.9163577 111.0286953  47.5979874  77.2844083 110.7621290  47.0077583
  44.8874283  68.0924940  72.7664948  45.0048971  68.2299089  73.7064695
  44.3015242  67.3379707  72.7061176  13.1135481  36.9190842  25.0784084
  12.3234671  36.7671830  25.5969879  13.7783974  37.1655232  25.7214233
   8.7782305  21.5561492  16.9408962   9.6570605  21.7971379  17.2338459
   8.8784903  20.6739575  16.5832493  82.5170517  75.7803392  62.7317381
  82.0385742  75.7409286  61.9036484  81.8965721  76.1685181  63.3486319
   1.8873137  36.2441689  51.0390732   1.5001744  36.0829121  51.8995068
   2.6474112  35.6633336  51.0057613  12.9834622  19.2145545   1.4064476
  13.5654324  19.9640996   1.2810394  12.9260414  18.8085658   0.5415127
  54.1079348  49.5302159  36.6250774  54.8733919  48.9739091  36.4807484
  53.6685961  49.5583302  35.7751152  42.1538180  29.0704686  37.3345253
  42.8883475  29.6648080  37.1813366  41.3821142  29.5694119  37.0666287
  25.8886116   8.0564315  20.4716656  25.0517052   7.6527840  20.2416966
  26.2728136   7.4611289  21.1152718  16.9021624  41.5136487   6.0163376
  16.3476198  42.0821530   5.4820034  17.3358601  42.1084744   6.6281578
  74.0957171 106.5224745  35.8169720  73.4982187 106.4677097  35.0711605
  73.6918194 107.1645357  36.4008019  95.9310914   4.1807229  59.0718433
  95.0239933   3.8778979  59.0305779  96.1925639   4.2793233  58.1563446
  32.1447485  33.8177640  31.2580750  31.9568699  34.6966035  31.5875694
  31.5862435  33.7269456  30.4860279 110.8226425 101.6357567  53.0130646
 110.3604109 102.4339391  52.7571842 110.8392889 101.1032345  52.2178433
 106.1967267  23.0679757  15.2053806 106.3525833  22.1238238  15.1826450
 105.3361071  23.1784589  14.8012039  63.0753946  85.5411816  84.7241974
  63.2932234  85.8020687  83.8293648  63.8813591  85.6877804  85.2193356
  18.2307308  39.0609319  29.9101994  18.9263933  39.4239766  30.4583618
  18.6204832  38.9993531  29.0381119  95.9910096  33.0716569  14.1422722
  96.6878534  33.3658654  13.5556957  96.1378981  33.5597760  14.9524567
  41.3777464  64.4873769   9.7841713  41.0936278  65.3158147   9.3979046
  40.6891840  63.8651711   9.5497200  11.4408606  27.6704556  34.2035744
  10.7223004  27.8423459  34.8121426  11.7597597  26.8018681  34.4487164
  57.1873379  79.0659332  82.8881168  57.8742361  78.6434698  82.3724365
  57.2239494  79.9862480  82.6275063  71.0517389 109.4287779  15.9143040
  71.2363822 109.3346597  14.9798080  70.9720856 108.5302116  16.2344048
  38.9761513  26.2466962  53.6289761  38.0916899  26.4279992  53.3110306
  38.8510006  25.6176526  54.3395206  37.8043812  23.6087233   1.6688416
  38.0948609  24.5166833   1.5825054  38.5798472  23.0882031   1.4592144
  49.4986773  84.6139050  76.1519051  50.1229572  84.0766716  76.6396427
  49.0174580  85.0935745  76.8261290  95.1178730  17.3522193  26.7348263
  95.9479810  16.8918044  26.6116497  95.3529502  18.1450183  27.2169468
  54.2519665  48.8412809  85.6694984  53.8349390  49.5583725  86.1470985
  53.5648918  48.1806803  85.5813885 118.4251822  41.3621766   6.3103458
 118.1437076  40.7796151   7.0157787 117.8384293  42.1158082   6.3736031
  91.2301636  74.6394730  94.7138977  92.0440769  74.7241211  94.2173100
  91.1929989  73.7143993  94.9569893  42.4265307  58.1230313  17.0770332
  42.7049654  59.0292889  17.2089264  42.8068846  57.6458604  17.8145096
 113.6285127   1.5210254  16.7358467 113.8399423   0.6007392  16.5789864
 112.9904021   1.5019805  17.4490711  87.4610550  89.6317126   7.9117081
  87.1626312  89.9580909   7.0627949  88.3791143  89.8980238   7.9614231
 105.9034265  35.8375031  17.6233933 106.7475236  35.4470403  17.8498241
 106.0535325  36.7812402  17.6787159  97.5081474 104.8756935  12.4254963
  98.0255253 104.8298265  11.6214726  98.0167944 105.4422332  13.0056164
  16.1812132  20.2736718  18.1507084  16.6221779  20.8053452  17.4880573
  16.3554257  20.7264191  18.9758751  56.3581419  76.1217785  91.5702915
  56.4969826  75.7481432  90.7000256  57.0398235  76.7882156  91.6563606
  80.8477527  96.6470625  29.3931648  79.9888069  96.4180757  29.7481510
  80.9956152  96.0100366  28.6941978  59.0655375  75.8778429  77.6025534
  59.1384554  76.2806988  76.7373228  59.2316437  74.9478388  77.4485064
   5.8059138  56.8607575  35.3156349   6.4392060  56.5587575  35.9667656
   6.2451189  57.5871617  34.8732826   3.7697476  18.6025674  21.3060162
   4.3056792  17.9516894  20.8528397   3.0248755  18.7476641  20.7226250
  55.7242411  52.2760350  10.6540558  55.6308573  51.5904767   9.9926159
  56.4221113  51.9611031  11.2285492 105.4546768 102.2689630  39.2197678
 104.5739395 102.3494436  39.5859024 105.5138618 102.9785015  38.5800144
  71.0938597  85.6207466  86.0779762  71.9735336  85.3659725  86.3563633
  70.5110979  85.0306034  86.5558338  36.6018074  26.4808041   0.1740810
  37.3453968  26.3054234   0.7507488  36.3246935  25.6162125  -0.1291111
 101.1902649  85.1680495  10.5699703 102.0118791  84.8049261  10.9006187
 101.3935405  86.0831978  10.3765366  82.4114418  35.0031948  94.5169353
  81.6307735  34.8898530  95.0591087  83.1201553  34.6212745  95.0347137
   6.9902294   4.1737229  11.2021324   7.8461283   4.5454842  10.9889099
   6.5250891   4.8826701  11.6462872  23.9219778   4.2698581  31.5250275
  24.2972201   4.3390090  30.6471607  24.4777840   4.8290498  32.0678112
  41.6662043  64.0950734  32.4758694  41.2515944  63.4337575  31.9218037
  41.6021269  63.7393338  33.3621952   7.8653115  38.4340150  20.5010387
   8.3399027  37.8144509  19.9468395   7.2384518  37.8936726  20.9819862
  73.5867364  94.4621040  28.5626385  73.6342246  94.4406034  29.5184204
  73.0798728  93.6840226  28.3304569  17.1779459  65.3753049  40.0066826
  16.7410439  65.7180077  39.2269966  18.0128687  65.0362927  39.6838638
  31.8785780  20.6155974  15.0083229  32.4529570  21.3208253  14.7100327
  31.0283535  20.8178336  14.6178791  40.0756615  48.7374837  22.7343533
  40.0918596  49.5000893  23.3126423  40.8333414  48.2175404  23.0023453
 103.6805023   0.8266074  37.1517822 102.9331387   0.6389291  36.5839264
 104.4457615   0.6926352  36.5926144  70.6940848  95.4300644  24.6303436
  70.2495009  94.6165611  24.3920395  70.6550199  95.9653951  23.8378021
  42.7928847  25.6128556  24.0044567  42.3781603  25.1317555  24.7205421
  43.4329622  24.9997193  23.6430618   4.8710078  53.2957513  16.2788746
   5.4952973  52.9547746  15.6383869   4.1832655  52.6312787  16.3202354
   8.9138096  27.0228345  36.1687824   9.3426769  26.8771512  37.0120403
   7.9801195  26.9231183  36.3545486  74.7344017  43.8620615  92.0241833
  74.2517328  43.5950613  91.2419033  75.6171560  44.0533161  91.7073154
  18.1300562   2.9667718  29.3526146  18.9476698   2.7434785  28.9077732
  17.8269261   3.7607772  28.9122746  41.6716433  55.4758167  81.4107513
  41.3045835  56.2601900  81.0030079  41.6872215  55.6772041  82.3464012
  62.3673344  92.1506119  93.5945034  63.0305481  92.8102207  93.7977028
  62.7578449  91.3234901  93.8766479  92.1990520  99.7835495  22.5772068
  92.8224451 100.4990865  22.4522469  91.5391237 100.1417591  23.1708500
  16.5871733  11.8700797  36.5127728  17.1404236  11.0891158  36.4972755
  17.0409554  12.4734313  37.1012280  72.7398903 107.7103712   9.4072792
  72.1170551 107.5832559  10.1229260  73.5025341 107.1891119   9.6580765
  48.1792068  61.0037804  95.9364700  48.8829279  60.5867577  96.4335632
  48.5948038  61.2820101  95.1203251  99.6413315  18.4718425  38.5785076
  98.9352072  18.2736499  37.9634163  99.6738614  19.4281012  38.6057636
  73.6081362  20.3544784  92.8110218  73.7621880  20.5091810  91.8790531
  72.8708887  20.9244347  93.0297661  66.7290610  19.7553403  18.7186691
  65.7823103  19.6329314  18.6485645  67.0690268  18.8834912  18.9199993
 117.1070064  18.1935889  32.5147793 117.8908099  17.7915103  32.8892395
 117.0877255  19.0744931  32.8887722  77.0315504  84.7920418  96.0898399
  76.7212439  83.9956284  96.5207291  77.3193836  84.4998264  95.2249718
 107.2845650  65.7753086  87.6671219 108.2009888  65.5048323  87.7240658
 106.8384171  65.2513885  88.3324814  94.4038183 109.6336986  15.3087780
  95.2384025 109.9356987  15.6672451  93.7899667 109.7030784  16.0399506
  31.9767475  72.1724033  96.4407063  32.3183584  72.9693222  96.0351849
  31.0501075  72.3588133  96.5917778  17.9254645  11.9647414  27.2795841
  17.2636479  11.4657075  26.8008396  17.8261488  12.8617818  26.9606945
   9.5501440  16.4525325  18.4189961   8.9831608  15.7822806  18.0375073
   8.9669817  16.9739253  18.9706299  90.5974085  99.6349527  29.7234699
  91.0311443  99.4984962  28.8811657  89.6826774  99.4037534  29.5620796
  26.5622967  16.8529708  17.9719612  26.3095539  16.9781930  18.8866589
  27.4635428  16.5332753  18.0141136  28.1715202  54.8231316  95.2500820
  27.9743576  55.7132769  94.9585342  27.5740767  54.6732140  95.9827614
  27.4441498  45.0620705   9.9361679  28.2752913  45.5125386   9.7861263
  27.1808928  44.7504384   9.0702507 117.8696884  27.2941930  68.7167522
 117.6161874  26.5234334  69.2245838 117.6731385  27.0588357  67.8099987
  65.8196956  96.1321546  17.1483299  65.4650265  95.9475614  18.0180237
  66.6783268  95.7090999  17.1450874  12.9942291   1.4196498  17.7253696
  13.9091557   1.1517913  17.8113529  12.4951761   0.6865699  18.0856106
  25.5002611  19.9891049  31.5047619  25.3851193  19.9921853  32.4550030
  24.6676224  19.6626002  31.1636612  99.9562348  22.5269610  34.8220799
 100.2601207  22.5629765  35.7290527  99.1307319  22.0443351  34.8650620
  77.5583441 101.6511585  35.7158348  77.3492510 102.5776102  35.5966732
  76.8578631 101.3177253  36.2765286  22.2975326  50.4922581  68.6673212
  22.9936171  49.8472452  68.5422182  21.7057014  50.3523779  67.9281330
  79.8094112 104.5225956   3.2544109  79.0553719 104.9644901   3.6447689
  79.4285757 103.9083864   2.6267597  97.3407555  99.9353695  83.7918091
  97.9274559 100.0105000  83.0392361  97.3903084  99.0130424  84.0429878
  35.8871198  70.8134460  82.5920200  36.2548661  71.0543489  83.4422970
  35.1106787  70.2957058  82.8048992  94.4417942  39.0474660  36.2106583
  95.2693165  38.6131245  36.0037968  94.0722812  38.5303838  36.9264290
  88.8682300   5.8214526  75.7110786  89.5983392   5.5780940  75.1419163
  88.1737024   6.0882812  75.1088619  27.3348826   8.4383208  12.8185818
  27.7736395   7.6932341  12.4080059  27.7606791   9.2064816  12.4379894
  41.6831511  39.4705254  15.8626053  42.1279448  38.6357362  15.7158730
  42.1012419  40.0756127  15.2499935  18.3544796  15.9162909   0.5764935
  18.5851448  15.1274926   0.0857517  18.4297007  16.6258675  -0.0615337
  99.9507082   9.4290692  13.0596420  99.1212285   9.2515380  13.5031292
 100.4326452   8.6038167  13.1137440  35.4783797  54.1104269  82.0851326
  35.9754348  53.4892035  82.6173496  34.5643830  53.8547754  82.2095776
  22.4063557  17.8960091   2.0073292  21.7911356  18.1765038   2.6848671
  22.4063366  16.9405181   2.0645020  57.4966812  42.1131182  89.2384624
  57.9382467  41.3864422  89.6780014  58.0481958  42.3049831  88.4800053
 107.2783245  14.5264394  21.3995239 107.4360360  14.2165620  20.5077145
 108.0565895  14.2576033  21.8876431  13.8387793  28.0650384  14.7205231
  14.4886606  28.3048684  15.3811047  12.9958647  28.2040555  15.1522610
  44.7634810  43.5250241  35.9768364  44.8328703  43.0222756  36.7884132
  45.1499861  44.3749291  36.1878082  41.8112963  25.1910645   9.6608517
  41.6454619  24.8945004   8.7659905  41.8679159  24.3848569  10.1737473
  64.1394717  97.0117189  44.0721294  64.2271072  97.3025085  44.9798653
  63.2300312  97.2057678  43.8452026  34.1340804  88.5241508  96.8438816
  33.4872222  88.5825729  96.1407471  34.9207878  88.9301777  96.4799213
 110.0067628  55.6879384  12.3693344 109.3776692  56.1012513  12.9606411
 110.8447183  55.7534272  12.8273460 112.7303017  13.2314784  23.0451271
 113.0285014  13.9041049  23.6574051 111.8476547  13.5071141  22.7977631
  78.1472445 104.8538113  60.6754208  78.5119677 104.1985226  60.0806046
  78.7808800 104.9068928  61.3909054  14.1570442  45.6557233  21.8598625
  13.6666315  45.3500993  22.6229641  14.9094456  45.0663812  21.8069336
  39.0667391 103.3935165  91.9250584  39.7203493 103.7728310  91.3375664
  39.2294574 103.8154030  92.7687263  27.3083895  40.9136445  14.0661308
  27.0676296  41.8310887  14.1948578  28.1488865  40.8213670  14.5147774
  11.2690848  51.8379456  51.2157032  11.5318983  51.5065629  50.3570149
  10.4348725  52.2796494  51.0569069  44.5584965 100.1719666  90.8636951
  44.9330568 100.3910255  91.7168903  43.6129618 100.2515030  90.9896660
  38.2704132  36.2767274   5.0452969  37.7389925  35.9031159   4.3422768
  39.1530770  35.9451348   4.8804161  88.1064415  84.5511341  85.6835556
  88.1372547  85.0636768  84.8757267  88.4825897  85.1284313  86.3479805
   9.4888466  36.1826474  25.0975964   8.6147755  36.0246426  25.4543469
   9.5531147  35.5889851  24.3494865   6.7232388   2.8594167  15.2002308
   6.5304297   2.4437386  14.3598339   7.6458805   3.1068284  15.1389858
  37.1557253  32.6455838  22.6238224  36.6454190  32.9964501  23.3536980
  36.8697327  31.7353207  22.5473282  50.1134127  23.8463218  65.5107472
  50.1406592  23.4620387  64.6344921  49.4441908  23.3415944  65.9729359
  27.0385903  14.8716647  10.7857964  26.7508095  15.0957829   9.9008152
  26.6577404  15.5520541  11.3410065 108.8959438   1.5436225  96.2242317
 109.4103033   1.8769698  95.4890156 108.1160003   1.1648707  95.8186817
  52.4543095 111.3710594  67.2323799  52.7014160 111.2236118  66.3194561
  53.2451677 111.7232704  67.6406908  45.4251402  27.6706178  37.9370567
  44.7444170  27.5754601  38.6032364  45.9887331  26.9067246  38.0596897
  44.2719460  65.5626488  85.5442333  45.0711441  65.9556246  85.8950615
  43.7265348  65.4011726  86.3140965  50.8055037  31.7192990  25.1680061
  51.6427534  31.6216428  24.7144386  50.6037348  32.6525266  25.1000759
  97.3987675  87.7569866  89.9575329  97.9037666  88.5699463  89.9747658
  97.7457523  87.2753429  89.2066288  79.9326277  67.0691967  95.5013180
  79.7658253  67.0910454  94.5590210  79.0695953  67.1809244  95.8999825
  38.9229220  34.6796376  22.5087044  39.7894924  34.4704968  22.8573486
  38.3919590  33.9086396  22.7083561  40.0199925 104.6902277  76.0747883
  39.4594418 105.4661180  76.0712406  40.9045350 105.0343610  76.1988804
 111.1371005  42.9481465  16.7598698 111.7847384  43.6479623  16.6758987
 110.3109492  43.4042985  16.9199535  72.4826574  72.3127842  77.6680326
  71.5451193  72.1733761  77.8015041  72.7947760  71.4925003  77.2859955
  98.0325032  27.5562913   8.8938305  98.2803083  26.7173917   9.2825195
  98.0006326  28.1629140   9.6335766  75.4955214  10.9838826  28.8628933
  75.8284395  10.9344203  27.9668114  75.7298868  11.8640334  29.1572353
  23.7791395  50.2019024  96.0533047  24.3079090  50.2835464  96.8470097
  24.4156218  50.0390100  95.3571796  55.5882185  47.3958356  38.3261749
  55.5983179  46.9073445  39.1492817  55.6373137  48.3140809  38.5919926
  55.8692663  44.7396714  12.3244068  55.5163687  44.9218709  13.1953308
  56.7466944  45.1220471  12.3367188 111.2754692  32.9739529  17.2601578
 112.0027054  33.2171685  17.8330490 111.1293472  32.0451791  17.4397537
  33.2322901   6.5908915  17.4340889  33.9876812   7.1269900  17.6753685
  32.4770230   7.0816333  17.7580902  28.9417458  94.0805721  86.6699696
  28.1414700  94.5345402  86.4059639  29.3851733  94.6964836  87.2532845
 116.5327102 104.7985508  21.5413162 116.9062978 105.5843260  21.1422798
 115.9795553 105.1291944  22.2490761  30.5459231  30.4403645  30.3007957
  30.6984204  30.9484727  31.0975430  29.6699303  30.6998307  30.0152466
 112.4023212  86.6704900  11.0307858 111.7258514  86.9922883  10.4349110
 112.8527225  87.4600941  11.3306305  14.6675175  10.0002200  13.2655594
  14.3306225  10.0037581  12.3696110  14.2053240   9.2788226  13.6923954
  51.9801521  77.5818110  90.6407642  52.8046131  77.9607534  90.3359604
  51.6326284  77.1194506  89.8780823  19.4288765  20.1178603  73.4127617
  19.2522084  19.1802745  73.3355236  19.9812066  20.3205161  72.6577187
  47.9250353  65.2020795  11.1006805  48.8060873  65.1100308  11.4633152
  48.0637568  65.3166730  10.1605389  62.7765101  17.0326096  39.4027779
  62.3818606  17.3450238  40.2169582  62.0312327  16.8402011  38.8337681
  32.4803417  41.6097123   4.5969364  32.6526993  40.6690366   4.6375248
  33.3025234  41.9907719   4.2886421  30.9957004  66.7200899  72.7068949
  30.6183243  66.9010973  71.8460464  31.1302567  67.5842524  73.0959320
  67.9180544  14.5361049   1.2955544  68.1619757  15.4080064   1.6062519
  68.1801241  14.5278937   0.3749630  15.5595892   0.0882108  36.9929001
  15.7248085   0.7241685  36.2968418  14.6297520  -0.1228660  36.9087097
  62.9860991  66.1920125   7.1201679  63.4957808  66.9132096   7.4893925
  62.2099226  66.1372525   7.6776382  36.2455290  48.5597951  20.7157204
  37.0305365  49.0649087  20.5039284  36.2422913  48.5117871  21.6717026
  62.1298265  93.4808064  91.1149788  62.2970772  92.7571297  90.5112076
  62.1864128  93.0850697  91.9847012  16.5826433  19.5027835  22.3987267
  16.8046730  19.7834594  23.2865116  15.7470101  19.0457589  22.4939701
  59.1369152 104.3639755  96.7930508  59.8228359 103.9249229  96.2900829
  58.3808517 104.3772793  96.2061787  32.3220127  22.4692113   2.5615284
  32.1026104  22.9445082   1.7601654  32.7912920  21.6920430   2.2581837
  84.4778091  13.1723647  70.2190781  83.9301426  12.7545409  69.5544577
  83.8575823  13.6254459  70.7902765   8.4248179  57.1226079   7.2723839
   8.9674443  57.4541909   7.9878113   7.7491158  57.7903420   7.1549580
  74.2332792  90.3431320  94.4815636  73.8482761  91.0769653  94.0024948
  74.8634577  89.9621296  93.8700485 109.2306531   5.6321246   3.2203457
 108.6305941   5.7444722   3.9576027 109.2896069   4.6841199   3.1018326
  66.4831066  87.1024895  81.8125916  66.0027409  87.5638771  81.1251259
  66.5024614  87.7178383  82.5455379   9.7470110  39.6320683   9.6028015
  10.5644196  39.6228749   9.1048119  10.0078600  39.8912103  10.4865620
  14.4557726 102.2492790  73.6817360  13.8094044 101.8614006  73.0918264
  14.5036161 101.6400814  74.4185019   7.6101559  21.2567479  19.3906281
   8.0317562  21.2340934  18.5315773   8.3042687  21.5287787  19.9909851
  30.8585906  98.7228298  77.6383734  31.4222956  99.3143749  78.1369162
  30.9092021  97.8906727  78.1086826  38.1221550  57.0145852  22.0541260
  37.9982870  57.0626408  21.1061928  37.2729986  57.2628648  22.4195263
   4.2260760   8.9677007  43.4551689   4.3999451   8.0265052  43.4674618
   4.0886467   9.1738231  42.5305817  30.5127400  48.6644894  17.5564549
  31.2745779  49.0968091  17.9423782  30.7565182  48.5208947  16.6420242
  68.8593245  95.8641052  83.5860443  68.4090090  96.4175510  82.9479694
  69.1131735  96.4645195  84.2869663  16.8859833  21.5512950  20.4338047
  17.7361887  21.3695580  20.0333664  16.7605465  20.8405549  21.0625717
  96.7994286  51.0737855   4.8449585  96.1747290  51.4381177   5.4720470
  96.2740124  50.8795983   4.0687725  28.0450505  13.9387280  26.6673634
  29.0012377  13.9604146  26.6291401  27.7955740  13.2604892  26.0396835
  13.8241785  33.7136800  33.5950729  14.2771261  33.5270840  32.7727291
  14.3082684  33.2153947  34.2535564 112.6496948  59.4048650   3.6581299
 112.2438372  58.5476739   3.5288116 113.2993639  59.4703156   2.9582188
 113.3968843  48.6545140  26.8661949 112.5554098  48.2916219  26.5896771
 113.8128842  48.9411599  26.0531685  28.9793890  29.0118176  21.9537136
  28.9469879  28.5037953  22.7643272  28.4252041  29.7730595  22.1258137
   9.9626654  15.2755362  23.1146023   9.9391764  14.5693976  22.4688122
   9.0729016  15.3084523  23.4659836  37.0969551  45.5810220   6.2269375
  37.1207541  45.8477742   5.3079674  36.1806029  45.3555447   6.3872311
  49.9221628  25.4796655   0.6029102  49.3100947  25.9109265   1.1992523
  49.9293249  24.5655782   0.8868572  26.1980122  12.1054274   6.7838547
  25.5904310  11.3659531   6.7678139  26.5477389  12.1474130   5.8938190
  31.6283911  36.7293221  30.5006859  30.9996622  37.2209317  31.0291264
  32.3382872  36.5188271  31.1072990  58.8337231  82.8632259  96.8171310
  59.0374279  83.7010098  96.4013863  59.3516636  82.2220993  96.3303947
  37.1363228  53.3090073  23.7472317  36.4841574  52.8968102  23.1806633
  36.6298836  53.6589486  24.4802353  52.3945063  36.0141808  32.4035713
  52.4876230  35.1581437  31.9855187  53.0915468  36.5456349  32.0189831
  26.3318985  63.6096532  16.6922257  26.6373699  63.9235455  15.8411190
  27.0174902  63.0100018  16.9865105  61.3139933  31.3165433  43.1223175
  60.9963244  31.9931752  43.7202141  62.2136801  31.5758473  42.9234287
  15.8318871  51.7564923  22.7660915  16.2345284  51.5862519  21.9145462
  15.0897806  51.1531789  22.8050491  40.3211373  55.0197656  58.4575626
  40.5165356  54.0842110  58.4046814  39.4345730  55.0995499  58.1056091
   5.8812159  49.4641072  14.2989418   6.2399595  49.0218503  15.0683281
   4.9341171  49.3491322  14.3764755  10.5214184  18.3200414  23.3452961
   9.8751753  17.7536065  22.9236862  10.5059021  19.1263110  22.8296158
  32.3363686  78.2233953  94.0644550  32.0422244  79.0845919  94.3611813
  31.7872739  77.6040030  94.5451641  44.6923369  57.2048432  41.4164993
  44.8744791  58.1113869  41.6639587  43.9668101  56.9429929  41.9833252
  42.5713747  72.6100594   2.0042393  42.8007048  73.5393006   1.9922516
  43.1090182  72.2396809   2.7042362 113.1903614  42.6716668   2.1465179
 114.1006697  42.3986108   2.0324585 113.2490862  43.5550649   2.5103638
  97.5580007   0.5495219  65.6457424  96.8669492   0.7487826  65.0140953
  97.9001838  -0.2996678  65.3664494  67.2489452  82.4960995  82.1776009
  67.5004005  81.8926811  82.8768063  67.3800182  83.3664894  82.5537300
  68.0930441   7.1313817   4.0451119  68.8983267   6.6716677   3.8076183
  67.5284212   7.0373732   3.2779190  52.4742031  88.1180954  89.5948315
  52.8785563  88.8629055  89.1498756  52.6810026  88.2506943  90.5199718
  31.2577646  38.6755235  16.9025681  31.8202751  38.0447060  16.4532635
  31.8302744  39.0894753  17.5484058  28.8586014  24.3007523   9.8775742
  28.9641064  25.2462918   9.7724030  28.9997547  24.1464383  10.8116505
  60.6361025   0.4534060  34.0377018  61.2134569   0.2062089  33.3153507
  60.9638422   1.3054663  34.3254540  70.7861376  77.8965998  73.6402607
  69.8709154  77.6273966  73.5620022  71.1934519  77.2099590  74.1683292
   3.1734150  65.1817185  44.5683262   2.6827496  65.8425290  44.0796444
   2.7810305  64.3491132  44.3055698  70.3880072  75.4711294  79.5907164
  70.2871132  75.5082703  78.6395741  70.8225489  74.6338224  79.7529650
   9.2970627  52.0089204   8.7068531  10.2029341  52.2191006   8.4800121
   9.0384691  52.6958234   9.3212864  32.9639405  25.4165513  20.8902428
  32.5200909  26.0200459  20.2944061  32.8865355  25.8290822  21.7505142
 106.5397824  74.9628980  48.3662865 106.7731036  75.8696038  48.5654995
 105.8835233  74.7343022  49.0245411  20.0856131  15.9408719  14.7324249
  19.6910494  15.4881865  15.4778358  19.3793934  16.0040051  14.0893814
  26.4450138  52.9059846  13.1788799  26.8002480  52.0497472  12.9403374
  27.2012871  53.3987576  13.4973976   1.7569863   3.0545001  84.8532104
   2.4948536   3.0300670  84.2439556   0.9901034   2.8795867  84.3077469
  40.2450388  44.4763429  36.1787674  40.9576720  44.5024163  35.5402443
  39.4599598  44.3162400  35.6550762  41.8404770  95.3020000  93.8190174
  42.6737213  94.9660492  93.4887600  41.8890095  95.1735497  94.7663212
  29.9308937  55.8980233  35.4684422  29.6577852  56.7214257  35.0639126
  30.3143471  56.1582524  36.3059876  47.0985716  30.2700478   5.5945751
  47.6461046  30.6865079   6.2601540  46.2503355  30.1516206   6.0220120
 115.6131447  23.7061984   9.0937397 116.3306201  23.4615571   8.5092709
 114.9015273  23.9602191   8.5061142  65.8636999  69.4586706  88.7800312
  66.2681580  70.2872372  88.5228920  64.9424410  69.5570469  88.5395336
  67.0102072  71.8200493  88.3521271  67.1057510  72.3005152  87.5297832
  67.8374767  71.3489580  88.4517860  44.1106749 108.1130981  92.5782585
  44.2560959 107.1797180  92.7328300  44.5686245 108.5490799  93.2968998
  35.3364693   4.8328357  93.2390404  35.8927380   5.4174380  92.7242279
  35.0694691   4.1514258  92.6220989  13.0546253  40.5624539  29.0094730
  13.8858288  40.1799256  29.2905495  12.4617117  39.8151833  28.9302132
 106.9415600   2.0889430  92.3828125 106.8564111   1.3635306  93.0014992
 107.7627403   1.9159370  91.9224167  62.6963472  98.1125927  90.1810360
  62.1893263  98.4641552  89.4492245  62.7662611  97.1760559  89.9959660
  13.5337818  34.0621924  86.5518093  13.8611138  34.9586129  86.6260624
  12.5811005  34.1525197  86.5734863  33.5598803   1.4546904  90.6650066
  33.2418847   2.3566081  90.7056904  32.8379941   0.9303402  91.0116577
  54.9913198  91.5911390  13.0821583  54.3419046  91.9301941  13.6982224
  54.7373182  91.9631006  12.2375557   0.7647150  97.9879160  86.9422817
   0.3041237  97.4282379  87.5674534   0.3689664  97.7782590  86.0963154
   7.5489694  23.6818504  50.0893116   7.0021015  24.3540335  49.6826935
   8.4383154  24.0316820  50.0353527  74.7131796 109.2429499  85.4324245
  74.1832922 108.6399795  84.9110126  74.0909405 109.8997572  85.7449245
  32.5959587  35.1769853  48.6031437  33.3360076  34.5831084  48.4771776
  32.5711560  35.7018256  47.8030443 105.7767237  97.9450662  62.5833130
 106.5440596  98.5036845  62.4593353 105.0329007  98.5098679  62.3736525
  40.0157976  23.4257126  92.4734783  39.0598607  23.4383321  92.4259567
  40.2089262  23.4186792  93.4109592  80.0828821  76.8337013  15.5205318
  79.3559891  76.3260557  15.8812973  80.7077581  76.1750604  15.2172920
 116.8311556  22.8931999  76.7213535 116.7623992  23.2996011  77.5852633
 116.8775125  21.9542265  76.9013786   6.6108447  29.8088264  86.3555336
   7.2296536  30.5370498  86.3007927   5.8681983  30.1619029  86.8454838
  40.7097006   5.5134058  54.9189663  41.6236973   5.7960737  54.8882198
  40.7153559   4.7463381  55.4915142  97.8784258  54.5919053   7.0828507
  98.6860782  54.1298862   6.8581936  98.1307489  55.1851539   7.7904007
  58.2082844  38.8364601  53.0776119  58.6511183  39.0266395  53.9046288
  58.2472277  39.6594095  52.5903034  94.4313879  37.6674080  85.0839138
  94.7483773  38.1407833  85.8531094  93.9344545  38.3192182  84.5895195
  85.1905853  77.9182841  40.0694534  86.0480625  78.0167963  40.4832813
  84.7939045  78.7872745  40.1305267  32.3755598  28.9009285  79.9896860
  33.3159876  28.7227249  79.9979115  32.2383022  29.4267321  79.2017031
  41.3557243  32.5087738  94.2827702  41.1226130  32.5566101  93.3556271
  40.9580564  31.6933274  94.5879650  97.3329068   2.2897536   2.9776356
  98.1959785   2.5225837   2.6353905  97.0998038   3.0171496   3.5545132
  68.8092453  99.4098760  14.7382805  69.4813616  99.4008018  14.0568039
  68.7560136 100.3261568  15.0099918  67.8015572  84.3155171   1.6321060
  68.2754451  85.0457980   1.2341663  67.6826889  84.5763685   2.5453732
  37.6421356  32.9795575  73.3771849  37.1286178  33.2254076  72.6077127
  37.6082850  32.0230722  73.3921194  91.7022020  63.8041492   0.6994221
  91.1296398  63.5404088  -0.0208881  91.6402323  64.7591742   0.7172844
  47.8721571  34.8100877  81.3922977  47.2856712  34.9961400  80.6590557
  48.4582663  35.5660200  81.4279747  46.7836571  38.6287522  85.8514595
  47.2959518  38.1317592  86.4892578  47.0957041  39.5290303  85.9428883
 116.9421802  50.5419970  87.5235176 117.4573915  50.0782442  88.1836033
 116.6808139  49.8620844  86.9025230  48.1895656  65.4889067  20.1717541
  48.8237930  65.3058244  20.8649132  47.9947967  64.6317567  19.7928211
  22.4957943  48.0744696  42.5016260  22.1484804  48.5092068  43.2804775
  22.9039073  47.2754812  42.8352308 110.7251204 104.1959001  96.1938190
 110.3275813 103.3264215  96.1468887 111.6673482 104.0279539  96.2090492
  93.3521152  16.2111384  12.4135277  92.9406501  15.7799298  13.1625244
  94.2108489  15.7948119  12.3395035  22.7663660  28.6535072  45.6246328
  23.1845045  28.9239693  46.4420938  22.7121592  27.6999068  45.6874084
  56.0116154  93.1481196   5.4805824  56.3132197  93.8333561   6.0770008
  55.1426143  92.9129650   5.8058044  86.6077776 104.5999468  85.8109379
  86.6820199 104.8798771  86.7232800  86.8871350 103.6844445  85.8178234
  32.9641819  26.6924763  26.8928504  33.7855887  26.2732840  26.6363335
  32.3943567  25.9668350  27.1477461  24.3079591  12.7658606  76.4660215
  23.5762691  12.2446895  76.7965412  23.9262486  13.6237407  76.2800932
  41.2042332   8.4945142  94.4632530  41.6550207   7.8514224  93.9160347
  40.2878380   8.2182461  94.4519806  39.5539570  34.6461630  67.8713703
  39.1671205  35.5113554  67.7370882  39.7856092  34.3482280  66.9917107
  73.0286152  78.6175873  18.3342049  73.7108952  79.2783930  18.2156345
  73.2518775  78.1883265  19.1601154  21.8569040   6.7507809  82.7606106
  21.5232992   6.9807452  81.8933964  22.7504563   7.0938045  82.7721977
  62.4603319  21.2081766  83.5517693  63.2005787  21.0147452  82.9765701
  61.7457199  20.6696987  83.2117653   0.1199106  42.7623463  83.4769058
   0.4627139  42.1232224  84.1015911  -0.1730953  43.4943581  84.0196228
   7.3659676 107.9798854  78.7196732   7.7846449 108.2495860  79.5371103
   8.0025166 108.2015700  78.0400419  30.6017947  24.1575313  52.7530575
  30.0265026  24.7744465  52.3006344  30.1110029  23.3357978  52.7633858
  27.9562402  10.8888304  93.8930607  28.4887028  11.5076613  93.3932877
  27.3794603  10.4889715  93.2421589   6.0686320 106.2512727  45.5295372
   5.4097384 106.5801237  46.1410475   6.8615740 106.1603094  46.0579300
  38.1664419  17.4061096  76.3495636  38.0680585  17.2157073  77.2824621
  38.7766910  18.1429052  76.3185501  42.5839043  29.9512649  62.6895428
  43.2161570  29.2607856  62.8888559  42.4013758  29.8466110  61.7557526
 104.2763508  98.2282574  53.1122017 104.2759288  97.3015721  53.3519602
 105.0960244  98.5681529  53.4711456  69.6289665  84.0267016  10.7718632
  69.9272401  83.3940078  10.1184341  68.6972625  84.1424085  10.5853817
 112.8134669  93.3911712  75.3257179 113.4525670  94.0716631  75.5371761
 113.1371606  92.6105649  75.7752800  73.8266945  33.8967705  81.3715172
  74.1877031  33.9052343  80.4850483  72.9461288  34.2594314  81.2749958
  95.6352831 106.1785580  73.9266872  95.0778581 105.4062004  73.8319635
  96.0608316 106.0640503  74.7764111  29.0931559  22.1085453  74.9533033
  28.7523270  22.1634054  75.8460808  29.3134308  23.0116725  74.7251034
  74.2817909  71.4122619  20.1980373  75.1432282  71.4856888  19.7872231
  73.7691886  72.1201803  19.8077557  38.9955378  38.1669378  61.4610863
  39.8779941  38.2961249  61.1135101  39.0314102  38.5291481  62.3463821
  70.9727961  58.7279444   1.4342186  70.2210290  58.3906581   0.9470722
  70.9026391  59.6792324   1.3544628  95.1915056  42.1865620  35.4165813
  95.4067976  41.6042461  36.1451313  94.4705612  41.7482032  34.9645683
  89.0964586  46.6840507   4.5252201  88.6640293  47.2739829   5.1426479
  89.8912079  47.1499671   4.2653534 102.2011358  70.2366199  17.7749035
 102.2067863  70.2252986  16.8177864 102.9910213  69.7571625  18.0247662
 107.6895584 101.1084003  88.9149952 107.1343721 101.3083358  89.6686745
 108.2271303 101.8918450  88.7989712   4.3464058  22.7115018  31.0072109
   4.6847981  21.8613202  30.7262966   3.4365195  22.7172000  30.7100460
  83.9060480  78.3828808  25.0030682  84.6230108  77.7883889  25.2239201
  84.3360073  79.2170741  24.8146793  16.1028147  21.3722420  87.3910618
  17.0376968  21.4973402  87.2280312  16.0670412  20.7262492  88.0965042
  48.5433483  40.5356646  54.3495798  49.2722082  40.3196383  53.7679195
  48.3383560  39.7123170  54.7926474 117.4126713  31.1864901  78.6124182
 118.3472438  31.3923717  78.5919523 117.1288506  31.4483690  79.4882584
  72.7137834  84.6915294  27.7256844  73.2253749  84.3550088  28.4613869
  72.8644306  85.6366660  27.7416203  27.2966599  27.8240323  61.0039949
  28.1105089  28.3268070  60.9708214  26.6418457  28.4485888  61.3160515
  95.2899296  58.6159484   1.7433426  96.1762315  58.2555317   1.7151424
  95.3948337  59.4786303   2.1446011  62.0672590 106.6724970   5.6378147
  61.1802131 106.8417932   5.3204510  62.4362714 106.0596134   5.0018665
 117.6557379  37.0352554  71.7788410 116.7838238  36.9149971  71.4026308
 118.2459764  37.0190835  71.0254574  99.7212631  69.8793067  33.8109848
 100.6757147  69.9500479  33.8267967  99.4287664  70.6815805  33.3785030
  34.8080420   9.8454434  71.3678455  34.8610401   9.4625181  70.4921770
  35.3940201   9.3075603  71.9003344  26.9857836   6.1304456  87.7361584
  26.3118219   6.1340344  88.4158611  26.9435644   7.0063233  87.3523712
  86.1742110 100.9733779  88.5502148  85.3349746 100.8485408  88.9933014
  86.8249531 100.6541378  89.1753960   3.2661939  26.9135261  78.1569672
   3.4860229  26.6758633  77.2561789   2.3910278  27.2965431  78.0968475
  81.0395432  34.8809361  92.1059704  80.7020187  34.0311432  91.8228436
  81.4148235  34.7136259  92.9704952  35.2572465  25.9581375  39.8693609
  34.7269535  25.2858329  39.4415474  36.0412240  25.4939795  40.1628971
  31.3485998  72.6264812  16.5834400  30.4301602  72.7300002  16.3344738
  31.8354112  72.7864303  15.7749435  52.9368877  40.5378866  37.6612258
  52.7635002  41.2397480  37.0338869  53.6445189  40.0305986  37.2635484
  92.8046418   0.7244450   1.2935898  92.6133395   1.6143567   1.5897247
  93.6124338   0.4886634   1.7497799  26.6360688  23.6546683  67.7332926
  26.2423968  23.6078072  66.8620539  25.9115052  23.8946223  68.3109236
  79.1949255  98.7334110   2.2389195  78.9953310  97.8021719   2.1430752
  78.7017423  99.0056516   3.0127976  54.4667673  22.1378565  84.0373039
  54.5922422  22.8400254  84.6756172  54.9095392  22.4497223  83.2480431
  75.6922657  94.5416190   6.8384811  76.3938076  94.0743639   7.2920677
  75.4230386  93.9477731   6.1377022  28.2067275  48.0129147  76.1636639
  28.5019660  48.8550329  76.5099335  28.6861491  47.3618984  76.6760683
  25.8715153  42.2648716  90.1970291  26.3961339  41.5750551  90.6034279
  26.4571261  43.0211544  90.1606464 117.1940506  12.8146464   4.7106049
 116.9777668  13.7217910   4.4948647 118.0909933  12.8546912   5.0424454
  64.2998678  87.4519135   1.0078976  64.1899068  86.6658832   0.4728291
  65.1389724  87.8171827   0.7273266 117.3413538  14.5001400  72.6818562
 117.0486305  14.0584970  71.8846798 118.1830672  14.0926719  72.8861141
  18.4571951  88.7242908  79.1823387  19.1212719  88.0363006  79.2260075
  18.5420864  89.0834017  78.2991219  26.8159389  34.0682578  72.5644207
  27.6226139  33.5530114  72.5591898  26.4836407  34.0020466  71.6691971
  47.8401423   4.9221206  72.9118156  47.5544310   4.8311847  73.8208437
  48.7832642   4.7609812  72.9399157  50.9584808  38.5628319  50.1916695
  50.0692511  38.7932682  49.9225903  51.5186834  39.1797900  49.7207403
  59.2819781  62.0696958  22.3835632  59.8269707  62.4755879  21.7094204
  59.6259386  62.4128194  23.2083008 106.4027489   0.0880534   3.0279514
 107.1882499   0.3369958   2.5408718 105.9349431   0.9117944   3.1652233
  96.8739444  71.1933305   3.1830761  97.3641426  71.4000966   3.9788029
  96.2527019  70.5171420   3.4533665  13.6410219  70.0983907  16.7609283
  12.8493578  69.7297122  16.3690445  14.3351514  69.8967303  16.1334393
  27.6160622  19.6939850  86.6316700  27.0360136  18.9595342  86.8325615
  27.9874158  19.9442542  87.4776554  95.9712631  72.7599086  55.4976723
  95.4478866  72.5889589  56.2806770  96.5414459  73.4879066  55.7449410
  28.1409049  14.5263076  93.6974239  28.3964777  14.4282293  94.6146488
  28.7112927  13.9208579  93.2238007  24.6196556  42.2715902  87.7349854
  25.2462220  42.8908157  87.3605347  24.8132682  42.2723007  88.6723995
  50.1610518  28.0529833  60.7442188  49.2431784  28.1644893  60.4966259
  50.5706263  28.8909864  60.5292034 113.5574163 111.0885676  88.9638138
 113.7589086 110.3227790  89.5015812 113.3262337 111.7702219  89.5947933
  79.8297006  64.2067947   5.0603649  80.5723602  64.2175152   4.4565651
  79.6393139  63.2776357   5.1893971  31.0618132 108.1106241  82.3484135
  31.8698805 107.7088834  82.6675701  31.1193817 108.0401016  81.3955498
  85.0054437  89.3172504   9.7025463  85.3854067  89.1558077  10.5661461
  85.6631977  89.8415305   9.2456886  94.1686851  88.2280542  15.8729622
  95.0090725  88.1659056  16.3269684  94.3930084  88.1670787  14.9444172
  54.7288656   7.7515197  62.1587515  55.6567907   7.5571108  62.2906351
  54.6804333   8.0942076  61.2663126  30.0113058  39.6616888  92.2394371
  30.6243539  39.8851490  92.9397678  29.6772647  38.7975812  92.4802017
  57.3716593  32.5563598  82.9507828  58.2715845  32.8364396  83.1179047
  56.8569899  33.3618975  83.0003738  35.8222079  40.6003666  63.7783146
  35.1691175  40.1936054  64.3477440  36.6527486  40.2085972  64.0484142
  57.7491188  13.5899603  82.8843689  57.3318243  14.4124055  82.6280880
  58.6867046  13.7568486  82.7878571  22.2201252  61.0180521  65.0551748
  21.9852996  60.4829550  65.8133078  22.7919936  61.6985893  65.4102325
   5.7125556  31.3983536  75.0249958   5.3327268  32.2165322  75.3452253
   5.5509788  31.4123559  74.0816355  39.0579200  40.5834246  83.9136410
  39.3700027  39.6810222  83.8465023  39.8028255  41.1158562  83.6345959
 118.3960659  96.6937925   6.7345879 117.6911813  96.9930984   6.1603138
 118.0539352  95.8959915   7.1379349  32.4494672  48.3893013  65.5675602
  33.0471087  48.9595366  65.0839376  31.9334102  47.9531145  64.8895788
 109.0054590  88.7342550  13.7471268 108.1160480  88.3849146  13.8031838
 109.0922720  89.0237667  12.8389046  14.0235728  10.4131085   0.8649609
  14.4467800  10.0055272   1.6206047  13.5102909  11.1307532   1.2361118
  80.9877044  81.9458558  14.2834160  80.5615741  81.3379623  14.8876640
  80.4962808  82.7617814  14.3782875  45.8339357  27.7405024  90.1261616
  46.1713934  26.8954563  89.8291016  45.8145046  27.6685691  91.0804653
  59.2760038  39.7475290  89.4635296  58.9608526  39.3782187  90.2884674
  60.1655054  39.4058681  89.3724823  71.8479211 102.3702480   8.5305378
  72.3294670 102.9665996   7.9572079  72.2187669 101.5076162   8.3446285
  64.0939504  84.4531538   4.5071861  64.5987159  83.6480643   4.6224186
  64.4374711  84.8378779   3.7008259  25.8374429  35.1841998  90.9399796
  25.4517007  34.7121382  91.6779518  25.1736689  35.8287597  90.6946659
 112.9541618  63.3972223  30.6615517 112.0971901  63.1055386  30.3505108
 113.5783035  62.9902209  30.0606987  51.2916851  35.3687215  89.1728687
  52.0537186  34.8136759  89.0071583  50.8400106  35.4132605  88.3301067
  26.2028503  14.7255588  61.9494534  25.6294441  14.8109543  61.1877823
  25.6847596  14.2318678  62.5851297  41.2462711  30.9406066  91.6119480
  42.1681690  31.1457968  91.4562798  41.2527466  30.0398827  91.9358063
  50.9636927  31.5679574  79.7941494  50.4593515  31.1991954  80.5193233
  50.3072262  31.9731617  79.2275000  12.9224408  63.5183048  87.1224689
  12.0725930  63.4959841  86.6825962  13.3520174  64.2995310  86.7740726
  23.3285213  38.6123562  42.8787947  23.2258701  38.2639217  43.7643909
  23.4777594  37.8400493  42.3333549  34.2241597  42.3593807  84.4822598
  33.3629537  42.6954174  84.2339993  34.1397715  41.4085388  84.4114399
  61.1522055  39.5094895  93.2504940  61.1674070  40.2525091  92.6472282
  60.5093765  39.7544718  93.9160728   1.8708359  70.3861965   6.8475983
   1.9476639  69.6661665   7.4735996   1.9158207  69.9636807   5.9898731
  30.1082540  18.4200740  91.6826820  29.1959119  18.2949281  91.9438457
  30.6165648  18.1123793  92.4331379  24.2508316  10.5075955  81.8028641
  23.6099505  10.1872838  82.4376106  23.7740469  11.1596704  81.2893391
  82.5100166  87.7269890  15.6031391  82.9886371  87.2735001  14.9092361
  82.4014026  87.0682813  16.2891075  55.7038355  23.0263877  70.1576042
  55.2824402  23.3120346  69.3470097  56.2190580  23.7824202  70.4390097
  32.8900313  42.1591902  81.4956665  33.1632185  42.3073673  80.5903244
  32.3295832  41.3843966  81.4529800  66.3799113   3.2938153  38.1238815
  66.8399447   2.4684531  37.9709885  65.4890555   3.0319840  38.3563492
  58.7410707  95.0028373   0.8811352  59.2219478  94.2772605   0.4829857
  57.8723342  94.6438672   1.0618851  49.2572260  27.8524184  83.8760757
  49.6703482  27.2167826  84.4604778  49.6223211  28.6959743  84.1431904
  70.3915739  24.8031139  85.1294804  69.9260998  24.5781684  84.3238926
  70.0608253  25.6704736  85.3629875  49.2534256  44.8899269  92.2771740
  49.5256376  45.5888748  92.8718090  49.0629816  44.1478682  92.8510284
  61.9237215  74.6684004  23.3444283  61.2195570  74.9365570  23.9347527
  61.8108851  73.7224616  23.2511684  84.5812988  44.8855305  88.4652805
  84.1844082  44.1827631  88.9799023  84.6141148  45.6316471  89.0639973
  30.2563810  61.8662691  92.6392269  29.6294594  61.2784100  93.0606842
  31.0868573  61.3911724  92.6679134  33.5166860  31.2072182  92.5560760
  34.1887045  31.7150187  93.0107880  33.9776993  30.8046675  91.8201065
  45.8221579  37.3703456  94.9405861  45.8792734  36.5053129  95.3464031
  44.9750519  37.3703551  94.4948864  47.5009966  69.1217136  86.4697552
  47.9516602  69.4480467  87.2486210  46.9365025  69.8456621  86.1987019
  73.1837661  98.1271793   6.1413643  72.3280150  97.8457500   5.8177635
  73.4111387  97.4813272   6.8102524  64.4865263   2.6489169   6.0203716
  64.8582531   2.7911193   6.8909046  63.6200441   3.0536372   6.0609028
  68.7315804 104.9782850  12.3572800  68.3877928 104.0992548  12.1980640
  68.2982904 105.5269720  11.7034885  37.2181416  26.8597841  90.8092976
  37.8129721  26.3880682  90.2262974  36.7484999  27.4640894  90.2344227
  54.6915979  94.2207243  25.9771130  55.3924960  94.1154052  25.3337738
  54.8344762  93.5125663  26.6050694  47.7772951  51.1816835  87.8840446
  47.6412153  52.1221924  87.7693272  47.2733068  50.9605217  88.6671829
   6.4522183  14.5017529  91.0827732   6.0575587  15.3544629  91.2654209
   6.9631922  14.3014050  91.8669891  70.5902106 110.6658603   6.6507980
  69.6815211 110.8501293   6.4129803  70.7415420 111.1862518   7.4398014
  84.3046028 105.5030634  12.9051277  83.5252506 105.3029491  12.3866722
  84.9929506 104.9589159  12.5226185  54.8240000 106.0883953  21.6880581
  54.1325623 106.3937618  22.2753403  55.4877919 106.7772533  21.7210171
  97.3684055  82.3932912   2.4076626  96.6083986  82.6855351   2.9108593
  97.7084667  83.1909992   2.0023796  20.2041698  36.7309499  90.1935959
  20.1094699  36.3858652  91.0813904  20.1998568  35.9549117  89.6332550
  48.6217493 109.9651005   9.5265457  48.6517412 109.3460132  10.2559731
  49.5362193 110.2068712   9.3798420  72.0738727  46.8940522  35.7666752
  72.4451167  46.4963026  36.5542099  72.8133637  47.3372759  35.3508160
  99.1389782 104.3999292   9.9748966  99.9140960 104.9361946  10.1417706
  98.4894068 105.0164558   9.6369907 115.3502685  93.1043865  23.6683628
 116.1305076  92.5783827  23.8438007 115.6177408  94.0023352  23.8642761
  18.9131892  34.7222972  79.3949413  19.0064418  34.1943598  80.1879215
  19.4016564  34.2403984  78.7275553  68.1186438  33.2940221  88.6109924
  67.5633764  32.8906202  89.2782116  68.1373167  32.6563358  87.8973770
  18.2847821  76.8432738  56.5588638  18.2820832  76.9072749  57.5139210
  19.1654335  76.5373828  56.3418076  72.1880323  69.9933650  18.2148525
  72.4675662  69.1338124  17.8997967  72.5619632  70.6117632  17.5871727
 113.4844987  62.2117662  90.7793427 114.4342880  62.1484756  90.8799744
 113.3266444  62.0017767  89.8588943  22.3690701  30.4797387  59.1655731
  21.7653680  31.1484241  58.8420963  22.0362854  30.2570224  60.0349903
   8.1062251  32.1393013  85.7868671   8.3081412  31.6407418  84.9950981
   8.7461054  32.8511763  85.7913494  43.2122821  64.6111740   6.2804482
  43.4658599  64.1783531   5.4652187  42.4717457  64.0980388   6.6037628
   8.0519378  17.7252495  78.2071114   7.6324099  18.3350813  77.6002073
   7.3241973  17.2678792  78.6283493  84.9144173  33.0491590  85.7828903
  84.7342491  33.0175781  86.7224503  85.3067493  33.9109969  85.6430817
   5.0614780  58.5953999  88.1588650   5.7337677  58.0790281  87.7143192
   4.6980697  59.1562223  87.4735546  78.1143123  96.1274101   2.0792267
  78.7574965  95.4224087   2.1535179  77.3936922  95.7426025   1.5803692
  50.3599167  40.6613636  61.3064432  49.8996353  40.5250788  60.4783154
  50.6794882  41.5623093  61.2574005  40.6027070  90.3329040  26.3852760
  40.2300877  89.7091414  25.7621357  41.3117128  90.7585098  25.9031937
  45.8124256  17.0399821  85.4320812  46.5472937  16.8172562  84.8605919
  46.0769463  17.8569305  85.8549881  86.1081249  75.1403345   9.5572159
  86.7148477  75.8083631   9.2380688  86.6617281  74.3806507   9.7378704
  55.1640368  33.1670189  69.6760798  55.5528498  34.0136456  69.8958111
  55.6794357  32.5308371  70.1719284  13.6208284  46.8020153  80.3383541
  12.9675519  46.2022114  79.9782228  14.3025637  46.2300348  80.6909275
  45.6562376  61.4185095  93.0930042  44.9256134  61.1950541  92.5163937
  45.7257080  62.3713207  93.0333328 102.1221525  78.3757855   4.3285439
 102.7532655  78.9176060   4.8022053 102.4060184  78.4202172   3.4154770
  34.8659754  36.2032866  94.6785355  35.4186726  36.2333155  93.8976002
  34.7860670  37.1174908  94.9507046   3.6305922 108.0311961  95.2451515
   3.8923519 108.1092490  96.1625481   2.7236622 108.3368320  95.2280140
  79.8114473  99.9847557  14.3907806  80.6200010 100.0039674  14.9027416
  80.0984461  99.7991754  13.4966824 105.5311758  99.2035391  19.8827908
 104.5814831  99.3231870  19.8840210 105.8845789 100.0927641  19.8578522
  66.1103857   8.8457829  24.5395252  66.5127302   9.4624764  23.9279434
  65.9726025   8.0517346  24.0230724  31.1806846  36.2393570  65.1707840
  30.7841206  35.6120348  65.7752991  30.5799770  36.2668991  64.4260502
  53.1080956 111.2075426  20.2413246  53.3543534 111.6286899  19.4177792
  52.1583671 111.3159944  20.2911732  44.7998095  56.3574791  75.1122904
  44.7467422  55.6194735  74.5050335  44.5922232  55.9797907  75.9669781
  47.0042133  62.1633959  74.0703535  47.5802135  62.7993965  73.6461353
  47.0302153  61.3971376  73.4972858  47.6750231  21.6043425  86.8173313
  46.8223095  22.0391989  86.8210983  48.3092785  22.3205709  86.8484497
  61.9506366  89.0195753   0.8872006  62.7146680  88.5303594   1.1924145
  62.1245629  89.1813280  -0.0400570  39.2061377  50.3203201  89.7927570
  39.8947310  50.6963444  89.2444229  39.2101598  49.3878794  89.5764828
  98.2886917 110.7264044  33.4994385  97.6770431 110.3906681  32.8441593
  98.1280023 111.6698744  33.5159084  88.9374906  94.6425654   1.6460106
  88.4388382  93.8879515   1.9592831  88.5394651  94.8593976   0.8029339
  43.1869364  53.0321646  69.4435501  42.8272343  52.1608114  69.2774296
  44.1350651  52.9153824  69.3832064  41.3991785  29.6103859  51.3036442
  42.0515680  29.7074986  50.6099653  40.8208370  28.9139104  50.9927225
 111.2895376 107.9433872   5.4923794 110.4747516 108.4401943   5.5668041
 111.6233331 107.8951694   6.3882038  79.4001109 100.6633712   0.3582069
  80.0060779 100.4061271  -0.3366688  79.4886381  99.9769546   1.0194466
  46.8023491  42.5904131  58.8236189  47.2519350  43.2119799  59.3961191
  47.4853086  42.2705030  58.2341623  56.9180441  18.3071065  96.5083027
  57.0040083  18.2588351  95.5561924  56.3150263  19.0353048  96.6577339
  34.4963145  62.6300001  71.0799932  33.8199687  62.5382566  70.4088974
  34.5496869  63.5723925  71.2389946  82.1129734  84.1923930  25.8087513
  81.9905931  84.8402526  25.1148197  81.2269766  83.8994433  26.0218784
  59.5072269  18.5173965  95.8108807  59.3511295  18.5537589  94.8671913
  58.7093592  18.8759017  96.1996174  17.0424616  36.5178943  79.3956900
  17.6057482  35.7480931  79.4753551  17.6498234  37.2571588  79.3669176
  67.8476048  20.1193905  69.5225000  68.4114552  20.8507180  69.2705774
  68.4333134  19.5082712  69.9693918  25.3333545  28.6378980  82.3816681
  26.0034037  28.0200028  82.0893097  25.8050871  29.2567158  82.9391289
  41.3256598  50.1698637  96.0840511  41.9105387  49.8606253  95.3923035
  41.0980701  49.3807936  96.5757847  13.7258387  24.3327284  66.4203835
  13.9283812  23.4141827  66.5978098  14.3425536  24.8232651  66.9637728
  38.3342695  34.8945928  94.3353844  38.2609010  35.0067449  93.3876133
  38.4628153  35.7812881  94.6722507  10.3912848   6.4052588  27.1888325
   9.5713013   6.8493993  27.4046967  10.7150048   6.8636185  26.4133713
  81.1437446 102.8453924  34.2467472  81.2428743 103.2806398  35.0934860
  80.2087099 102.9098131  34.0523407 114.1339506  44.3390179  73.7743425
 114.3915738  45.0403595  74.3726587 114.8815341  43.7412453  73.7699795
  49.7327566  49.4044733  89.8481560  49.5380211  48.6907673  90.4555511
  50.5972004  49.7170353  90.1151276  32.7589464  60.0899696  62.3508024
  32.0217371  60.6948090  62.2675991  32.3644352  59.2715120  62.6520061
  87.9912407 103.0474569  30.8734772  87.2775680 102.5050880  31.2092373
  87.6721889 103.3676340  30.0297234  11.6500199  34.5474362  68.9488029
  12.1767235  35.2905941  69.2429590  12.0882475  34.2428851  68.1541729
  15.7994688  63.7544823  83.5848618  16.0760248  63.5126448  84.4687557
  16.6143811  63.8105822  83.0858612  56.5922850   4.9716861   4.3300507
  57.4774378   4.6352393   4.1902420  56.6166514   5.8624512   3.9805100
  34.5111722 101.7915107  11.1726067  34.6817485 101.2261392  10.4192898
  34.8714671 102.6417066  10.9204456   9.0308987  78.8310029  11.5436241
   9.7363125  78.3236863  11.1420509   8.2313477  78.4851243  11.1469814
  93.8853342  49.5339508  14.0735695  93.0545503  49.5124085  14.5485088
  94.4701320  50.0409235  14.6368000  79.7614605 103.3946468   0.4163811
  79.4357759 102.4952366   0.3813240  79.4284660 103.8013174  -0.3835895
  40.9525633  71.8180418  76.0520887  41.7089272  71.2328529  76.0933685
  40.7938766  71.9386721  75.1158714  18.0427933  30.2757907  80.1426315
  17.9534245  30.4120851  79.1994095  17.7590525  31.1028624  80.5320835
  49.8632288  44.4261265  95.8298588  49.9644709  45.2124691  95.2935314
  49.4728947  43.7819529  95.2391815  34.0482259  36.3597894  91.0566998
  33.1359434  36.6229415  91.1780357  34.3088365  36.7718601  90.2329826
  82.7034075  75.6661786   6.9384453  82.6531345  75.6146373   5.9839508
  81.8348915  75.9646942   7.2082588 117.9788062  32.7463484  49.0340137
 117.0327147  32.6435542  48.9311790 118.1535670  33.6456585  48.7566471
  82.0211059 105.7991173  49.3817970  81.4129860 105.2295019  49.8529217
  81.5411503 106.6193439  49.2673466  37.2117114  53.5366774  66.3068628
  36.7364168  53.9040232  65.5616236  37.4537063  54.2973471  66.8351173
  75.3591234 104.0411283   9.8307392  75.0413305 104.3500759   8.9823315
  74.5723635 103.7426616  10.2869865  59.9428517 106.3570835  19.1509983
  59.4329769 105.5560686  19.2719814  60.6163818 106.3171198  19.8299667
  45.4640245  39.6607351  74.1025114  45.8424568  40.0602007  73.3192825
  46.1805677  39.1520047  74.4819689  62.3807484  82.7811600   0.7345173
  61.5961510  83.2755019   0.9717247  62.9662377  82.8868510   1.4843628
  39.3875670  47.4506855  86.1335945  40.1472998  47.9629087  85.8567142
  38.6428690  47.8800154  85.7124901  73.7327677  87.3082234   0.4699299
  73.9499957  87.1265675   1.3842842  74.0802747  88.1858398   0.3109905
  56.4342589  86.3110091   8.4329006  56.7259437  87.2204973   8.3697674
  56.6572983  86.0494162   9.3262455  36.3779759  34.4214272  79.7813034
  35.8307076  33.8197279  80.2859688  36.7064595  33.8933730  79.0536404
 113.1542665  74.4878306  13.5106060 113.4030420  75.0518252  14.2428944
 112.4172146  74.9397804  13.0998394 107.8803522  98.2133724  18.3248302
 107.7133304  98.3305265  17.3896191 107.0309097  98.3619358  18.7402889
  63.5196311  69.4622792   4.6348831  63.0309540  70.2851083   4.6543285
  64.3124801  69.6425964   5.1399681  44.8491764  57.3496199  64.5797110
  44.5951796  56.9727755  65.4221535  45.7383537  57.6746225  64.7210407
  72.3636837   1.2568576  10.4315826  72.0006014   0.7781226   9.6864483
  72.4476726   0.5984980  11.1213181  59.3805504  33.9127040  86.6688633
  59.7953033  33.8108325  87.5255013  60.0462294  33.6239195  86.0445976
  25.3470898  37.2720909  84.1241455  25.8622718  37.3020983  83.3179760
  25.8452487  36.6975355  84.7054863  69.5080835  66.7609669  14.3113682
  68.8456303  66.2512578  14.7778198  69.0135199  67.2554006  13.6577770
  26.0537696  46.9706964  77.5020695  26.6293526  47.2160912  76.7776966
  25.3276944  46.5072441  77.0846224  39.1544414  35.1236320  51.2249994
  38.9282274  35.9690237  50.8372211  39.0892291  35.2680016  52.1689987
  18.7454128  27.3782635  55.5787945  19.3372297  27.9466748  55.0859499
  17.8816247  27.5486088  55.2031851  76.3547077   0.9436852  15.2963993
  76.7727318   1.7766053  15.5148766  75.4325716   1.0730798  15.5181000
   4.6856868  22.3727345  48.7012577   5.3383613  22.7062058  48.0855894
   4.7673750  22.9403353  49.4676685  38.0203581   4.7513047  84.4809723
  38.7524891   4.9648002  85.0594425  37.6689625   3.9328229  84.8314571
  22.3586655  44.9383974  93.0903721  22.6566124  44.2799950  92.4627018
  23.0509138  45.5994749  93.0907822  56.1961109  67.4205519   8.8289616
  56.5494413  68.1879462   8.3789703  56.1407215  66.7487778   8.1493446
  15.0690811   5.6872279  43.2363102  15.9910267   5.4532248  43.1291172
  15.0546377   6.2582404  44.0043995  65.0739366  74.8731531  23.3399746
  64.6818048  74.0188040  23.1595490  65.4732544  74.7756674  24.2044231
  73.7483389  80.5259396   4.1091034  73.8976127  80.2178218   3.2152245
  72.9415089  81.0380508   4.0543148  92.5080044  88.0632617  10.7083580
  93.0302841  88.2204820   9.9217579  91.9001133  87.3678352  10.4571983
  53.5260820  44.1338253  82.0071983  53.0415535  44.9144506  82.2756863
  52.9623032  43.7135649  81.3577652 101.2989265  80.0807788  13.0729553
 100.7539255  80.7444979  12.6502487 101.8136150  79.7035839  12.3594734
  70.8147961  80.9341432  15.8439514  70.3086907  81.5800049  15.3510448
  71.6794450  81.3325645  15.9433243  30.1049042  62.8476667  89.9158001
  30.2380347  62.4375629  90.7703876  29.7205377  63.7009335  90.1168728
  30.8949971  53.3624840  74.3199873  30.3215337  52.7170563  73.9067173
  31.1180878  52.9769707  75.1672459  34.9808567   3.2324416  45.5344460
  34.9580973   3.0765158  44.5903084  35.1458090   4.1715962  45.6181976
  61.0031700  17.8713107  65.6915808  61.1525965  17.3670220  66.4913321
  61.8755150  18.1611669  65.4246950  51.4094877  52.2298002  91.0948944
  52.2741508  52.4314737  91.4525509  51.4001560  52.6543522  90.2370453
  36.6045475  43.8589525  87.5850773  36.2498593  44.4004393  88.2902241
  36.1993575  43.0014706  87.7146149  86.4215881  68.6308088  28.0885193
  87.1684772  69.2229356  28.1766865  86.5706856  67.9568197  28.7516472
  97.8122462  24.8863561   2.5125000  98.4070970  24.5274312   1.8540451
  97.7595795  24.2061431   3.1838867   4.5707735  40.8707380  95.3269386
   5.1574469  40.9523201  96.0788631   3.7236243  40.6398392  95.7080650
  15.9938920  45.8119106  96.4395523  16.1760318  44.8811245  96.5687561
  16.5586889  46.0675001  95.7102394 101.2190038  54.4319612  64.8065350
 101.9051391  54.9718461  64.4141361 101.3575966  53.5609031  64.4346783
  78.5154278  84.1559936  13.6836121  77.9868395  83.6432697  14.2951176
  78.7626249  83.5331203  13.0001232   6.5984379  71.6888072  29.4232819
   5.8146893  71.4760079  28.9166424   6.8272244  72.5768353  29.1488812
  83.5539705  99.9979927  19.4030735  83.5086328  99.3893863  18.6656639
  82.6397020 100.1679756  19.6299049   3.3661973 100.0018217  17.4453423
   3.8521515 100.4905464  18.1095955   3.8970124 100.0820209  16.6528580
   4.2472111  81.4922406  10.4385826   5.1061570  81.5448024  10.8577320
   4.1770207  80.5824258  10.1495430  77.1317631  82.1030952  15.5832645
  76.3339454  81.6928126  15.2495167  76.8370754  82.6316048  16.3249275
  88.7206346  92.5520231  18.7059185  88.3303482  92.0500972  17.9903957
  89.5121080  92.0653416  18.9360115  49.0046692   5.2184993  92.4647522
  48.8299465   5.7798958  93.2200909  49.4378614   4.4487250  92.8335667
   8.5992837  88.0186176  44.8577642   8.2224059  87.1722698  45.0983429
   8.0078602  88.3625698  44.1883230  73.8447863  92.4710490  17.1776650
  73.3804208  91.8210341  16.6503307  73.5043079  93.3127810  16.8746922
 112.9736055   6.4476973  55.3200600 113.6708654   6.9231088  54.8683521
 112.8088106   5.6830031  54.7684071  10.3198784  -0.0450700   1.8748638
  11.0976570   0.1498944   1.3520977  10.5604618   0.2085358   2.7659485
  62.0767403  34.9727607  79.5846558  62.3002005  35.5901289  78.8881254
  61.6002226  35.4986191  80.2270222 101.9251812   0.5533654  15.0791523
 102.1526350   0.1488597  15.9163353 102.5706161   0.2073676  14.4627640
  33.3537960  55.0882053  61.5445709  34.2945385  55.2551222  61.6026449
  33.2737255  54.1378021  61.6255379  12.1304672  14.9144561  38.1101582
  13.0061072  14.8234803  38.4859440  11.6759079  14.1115052  38.3648750
  59.3558979  34.1457891  90.3482342  60.0548458  33.7722707  90.8850765
  59.1258812  33.4477615  89.7349834  77.0582438  45.6589317  93.9882088
  77.7522135  45.8746243  93.3652115  77.0617199  44.7026062  94.0289783
  20.4186678  28.8916707  62.7918053  20.4048061  28.7156868  61.8510199
  20.4085493  28.0248880  63.1977844   9.7678869  19.1979892  39.4844791
  10.3805750  19.2245061  38.7495396   9.5510452  20.1157147  39.6487686
  97.1177084  87.8034188  13.0573628  97.4666149  88.6717297  13.2586929
  96.9687492  87.8184535  12.1119473  66.2292725  70.3482367  24.1178677
  65.9724409  69.5201565  24.5235130  66.9541485  70.6644406  24.6571323
  27.6279855  60.2094650  72.4194050  26.9644976  60.8974314  72.3672771
  27.5481057  59.8666334  73.3095264  52.8381968  12.3315465  94.7056866
  51.9980335  12.7250707  94.9412727  52.6193190  11.6811550  94.0383720
  38.7053561  31.1955404  67.1031809  39.3957710  30.8119178  67.6439142
  39.0555954  31.1684299  66.2127733 111.1470688 100.7363231  71.6603231
 111.6825927  99.9702020  71.8664885 110.2450288 100.4235549  71.7291212
  43.1743288  34.2230678  65.9532022  42.8351068  34.1557360  65.0606632
  44.0839005  34.5003080  65.8434582  22.6780367  29.3638325  81.8868542
  23.5894728  29.0808177  81.9604683  22.4572134  29.6896982  82.7593708
  77.3681385  97.1621372  16.0329124  77.2475631  98.0888941  16.2398216
  77.0030958  97.0635940  15.1535580  94.7283346 104.4554855   0.4270241
  95.5815012 104.0284778   0.3495380  94.2804510 104.2462494  -0.3926399
  37.2008562  63.8603640  69.8634338  37.1556926  62.9705954  70.2134514
  36.6622686  63.8342524  69.0725660  87.8150303 100.0031282  46.1542294
  87.6458055 100.4109384  45.3049442  86.9539005  99.9458315  46.5682480
  70.8010751  79.6947481  11.2112782  70.5335409  80.5832364  10.9762356
  70.0860626  79.1392662  10.9007523  29.9686115   5.0799043  13.8644764
  29.8495358   5.5395705  13.0333588  30.2677077   5.7566459  14.4717571
  38.1490493  51.4599419  86.7735577  37.5584149  50.9909296  86.1841393
  37.6608086  51.5330124  87.5936222  75.2745104  35.4020000  83.0707550
  75.0028944  34.7254753  82.4504566  76.2265539  35.4419327  82.9799175
  91.1546642  71.2659575   0.8558056  90.9152920  71.1872067  -0.0676277
  91.1305267  70.3681661   1.1868927  33.7682486   7.2086704  34.5933127
  33.2584524   7.2680610  35.4012823  33.7069082   6.2880421  34.3385339
  18.0812800  32.0328689  59.5628071  18.5053396  31.4715958  60.2119446
  18.5343051  31.8354940  58.7430239  42.9575157  45.7215071  58.1585264
  43.1811571  45.0785780  57.4855804  42.0176506  45.8659506  58.0488634
  85.6207830  86.8653228   2.4285767  84.7725803  86.4815761   2.2060368
  86.2453157  86.4096381   1.8641827  77.1996194   2.0200879   8.7188599
  76.6471101   1.5290648   9.3270180  76.9669939   1.6790969   7.8552315
  36.0498452  29.3774605  86.3940525  36.3772917  28.9121079  85.6243420
  35.8542681  30.2587891  86.0758686  50.1293898  36.2012100  92.5677299
  50.5090237  36.7082691  91.8500996  50.5205345  36.5742612  93.3577156
  43.0786163  78.6030270   8.9087650  43.4293572  77.7402307   9.1296646
  42.6209152  78.8854148   9.7006008  49.1523504  37.1082807  81.3532448
  49.3481350  37.8704524  80.8082676  49.2303228  37.4297166  82.2514820
   8.2000768  43.4128809  92.0988560   8.7380821  44.2023849  92.0399284
   8.4001237  43.0505896  92.9619598  51.6356230  47.5380564  85.4873562
  51.1355829  48.0986071  86.0806274  51.1652994  47.5901461  84.6553040
  18.2050722  11.4058930  15.9929726  17.5354307  10.7728679  16.2519810
  18.9993208  10.8830268  15.8833668   4.9719655  84.4688417   0.8472607
   4.8588883  85.2546956   1.3819382   4.8654496  84.7746374  -0.0535038
  57.9374170  38.5494709  91.5864372  58.0524158  39.3859124  92.0374012
  57.0000887  38.3676839  91.6542625  41.3849783  53.1524563  93.0121708
  41.8546343  53.7792349  93.5624504  40.7790661  52.7153635  93.6105537
  59.5656682  11.4501674   6.6666576  60.3523673  10.9311778   6.8339607
  58.9613009  11.2012059   7.3659393 104.9145204  91.7876937  39.8030541
 104.8117429  91.9190337  38.8604996 104.0241462  91.6428591  40.1231930
  52.1894438 100.9717752  29.0099690  51.6474230 100.5839206  29.6970055
  51.6251797 100.9819223  28.2368347  71.6595984  19.7486639  89.7500801
  72.6003027  19.7249603  89.5747471  71.2793732  20.1417828  88.9645100
 114.6111263  15.6338078   9.2797348 114.4310130  14.7903878   8.8644955
 113.9630140  15.6987101   9.9811432  32.1068018  11.8127114   3.7894699
  32.6683062  12.2135312   3.1259319  32.1811598  12.3920018   4.5478413
  11.7887991  24.2226321  13.5701916  12.6681154  24.5888287  13.6647293
  11.5119236  24.4878156  12.6931259  63.4610558  49.6273232  93.6186123
  63.1372643  48.8678217  93.1343079  62.6708651  50.1042128  93.8724136
   8.6215227   6.1948211   1.9440624   8.1882113   7.0473725   1.9844124
   8.7388819   6.0298354   1.0085175  39.7039700  40.7905245  91.2522602
  39.1285753  41.5306282  91.4456463  39.6158671  40.6589317  90.3082561
  69.9530077  37.9022312  88.0138016  70.4253578  37.0742130  88.1004143
  69.0398407  37.6448965  87.8867531  39.7503185  56.5700531  93.0695724
  40.0997019  56.8511200  92.2239017  38.9528871  56.0878325  92.8509521
  76.9894249 111.2736036   0.0600788  77.1967441 110.5578949   0.6609222
  77.7644974 111.3514520  -0.4961899 108.8464941   0.3392846  35.0530693
 109.2139066   0.1098162  34.1994926 109.5620788   0.7800967  35.5111668
  41.7239046  50.8093834  76.4615059  41.2217283  50.5507183  77.2342587
  42.6385212  50.7245398  76.7307949  89.4345886 110.8182384  12.5770447
  89.4787151 111.5709354  11.9873592  89.9473078 111.0821487  13.3410523
  53.2982988 107.7441265   1.8148777  53.1091947 108.1927444   2.6390240
  52.6433176 107.0478632   1.7654202 115.0409974   1.6766221  22.3917934
 115.9674276   1.9138295  22.4329159 114.6921528   2.1979148  21.6687557
  85.2484400  92.7792503   9.7271320  84.3421299  92.5324156   9.5429966
  85.3771002  92.5492098  10.6473228  10.8798378   8.8776500  11.0726521
  10.8048552   9.8316533  11.0506603  10.9594124   8.6650283  12.0025417
  12.4312752  29.4409329   5.5823299  13.0728977  29.5778138   4.8853275
  11.5839976  29.5750005   5.1576206  37.9013127   5.3863627  15.4120228
  37.6033324   5.9713942  14.7154686  38.8498848   5.3368241  15.2937481
  94.2074234  93.6802699  21.3135693  94.1330034  93.3106806  20.4337379
  93.4640056  93.3126046  21.7914650   5.0659882  89.2843701  28.7298748
   5.3559338  90.1812317  28.5631439   4.1346966  89.2887165  28.5087177
  93.8940031  95.7031538   9.5026085  94.0179569  96.5631153   9.9042675
  93.1458313  95.3276111   9.9667618  26.1298561  42.8112793  65.1721334
  26.0557270  43.7123585  64.8578215  26.0627985  42.2756147  64.3816900
  40.3015089  50.5012465  78.7819576  40.6970644  50.5870295  79.6493721
  39.3829322  50.7361889  78.9133072  44.7222519  86.9145393  75.4340982
  44.9951839  86.4405251  74.6485758  45.4852915  87.4404430  75.6737280
  21.1979389  70.9606600  87.6458073  21.8375826  71.0514593  86.9395161
  20.3485298  71.0020494  87.2064686  19.4761252  47.0382452  79.1762114
  19.4319928  47.2862339  78.2527494  20.4047441  47.1059656  79.3982792
 111.2487108  87.8800751  15.2969429 111.0292846  88.6545231  14.7789452
 112.1938116  87.7772237  15.1854107  38.5592103  35.9713793  82.1197128
  38.5389233  35.5283141  82.9679489  38.6515498  35.2635980  81.4819431
  47.9401779  74.4247103  85.9403706  48.8230276  74.2662430  85.6061554
  47.5376654  75.0003862  85.2901268  34.6820181  16.7983777   5.7584450
  33.7531584  16.9127518   5.9593651  34.6911400  16.2700326   4.9603245
   9.7901570  94.5340921  21.4956638  10.1933800  93.7929632  21.0436031
   8.8540303  94.3343116  21.4953396  42.3385429  62.9030132  81.7938137
  42.7383804  63.6711550  81.3859844  42.9893541  62.2092342  81.6872978
  27.9695147  20.5416352  23.2953140  27.8898543  21.4836890  23.4450695
  28.8315075  20.3156144  23.6447689  95.9609491 101.3032247  13.5517094
  96.8183977 101.7185451  13.4593746  95.6064016 101.2855818  12.6627609
  12.6178807  16.8739611  14.3388435  12.3112314  17.3732716  15.0957367
  13.4534853  17.2792870  14.1071007  35.7277632  23.7530255  81.9024277
  35.3559232  22.9210210  82.1952343  36.3275003  24.0073562  82.6037598
 114.3098194  89.2719127  25.8370945 114.3279440  90.0082590  26.4483997
 113.5261757  89.4194438  25.3075859   1.0022373  34.1913557  77.5664473
   1.9526330  34.1132903  77.4834681   0.8662854  34.5340252  78.4498072
  91.1157543  93.8364174  23.8499805  92.0663912  93.7289573  23.8811180
  90.8939487  93.7393429  22.9239056  24.2958706  27.8938252  23.9307472
  23.8910549  28.1786687  23.1114647  24.2411440  26.9385201  23.9054844
 112.7803880 101.3621093   7.3241112 112.7640421 100.7314731   8.0440208
 112.2205335 102.0793869   7.6212761   6.7717570  14.1292626   3.2325050
   6.4877384  13.2427460   3.4553406   6.3174933  14.3275744   2.4136326
 106.4616281  88.8403274   0.5725166 107.3701364  88.8357283   0.2711460
 106.1010820  89.6597983   0.2338383  42.3588228  11.4988911  76.3752651
  42.0161963  11.6717231  77.2521687  42.4474001  10.5466032  76.3361168
  79.1161019  91.4287140  17.6064465  79.1831953  90.7637097  16.9212505
  78.2864506  91.8720986  17.4294827  32.2289872  54.0735817  86.1909866
  32.7416611  54.5224380  85.5187321  32.6068473  53.1951523  86.2336540
  42.9256201  27.8510880  96.1976242  43.5484934  27.1938777  96.5079975
  42.4246550  27.4032092  95.5159473  98.2540209  84.7621133  33.4719154
  98.5800392  84.7425462  32.5721619  97.3701841  84.3991400  33.4143612
  88.0621416 106.0026361  15.1067135  88.0476505 106.9305898  14.8723671
  88.5671169 105.5869629  14.4078228   8.6347454  33.3218533  12.2637436
   9.3779438  33.6974007  11.7916748   8.3773630  34.0024716  12.8856346
  99.7135956 104.6493580  21.6838715  99.1037494 104.4504263  22.3943302
  99.6510727 105.5980732  21.5731594   8.8158482   6.1213404  10.8685848
   9.4289368   6.6793114  11.3471481   8.8187569   6.4713628   9.9776909
  98.8776952  92.5488879   0.6488392  98.4892780  92.4652149  -0.2219990
  98.4044725  91.9120886   1.1843559  94.3672067 103.7360288   3.2644341
  95.0142175 103.3325483   2.6858017  94.3627197 104.6592857   3.0118343
  21.7867392  17.0938069   5.7272217  21.2433165  17.6798016   6.2540314
  22.0561712  16.4055926   6.3354942  53.1933880  42.7150869  88.7123299
  53.4397173  43.6399126  88.7281895  52.5273228  42.6328897  89.3948460
  98.6333162  99.0211822  29.1175816  98.2626135  98.1417705  29.0437767
  99.5063001  98.8830473  29.4850800  21.5397549  79.0147591  78.5179806
  21.7723775  78.4429884  79.2495537  20.8750963  79.6032715  78.8759089
  39.1641784  85.3660011  79.0409708  39.6421242  85.9356499  78.4382296
  38.6760211  85.9677505  79.6029615  27.1326130  15.7218129  24.4559357
  27.1959847  15.8544785  25.4017803  26.4903992  15.0192267  24.3551228
  17.6345127  46.4432198  37.2010777  18.3083170  46.7498166  36.5942738
  16.9520014  47.1130521  37.1594688  41.3452578  40.3003311  78.6652088
  41.9800425  40.5491972  79.3370295  40.9569931  39.4885445  78.9915276
  46.8608665  54.1618013  81.4643478  45.9311295  54.3753910  81.5430927
  47.1930933  54.2040157  82.3610497  41.1007261  42.3577499  88.2777786
  40.5678606  42.5722075  87.5120831  41.3404131  43.2071638  88.6482906
  55.0494194  79.9087763  91.6463375  54.3525505  79.5689201  92.2076797
  55.6548309  79.1743326  91.5448475  98.8682348 107.2232486  14.9589512
  98.7727434 107.8711559  15.6570408  97.9831011 106.8850424  14.8233578
  44.0373898  28.8086081  80.2708721  44.1890192  27.9832602  80.7313538
  43.0845165  28.8940430  80.2399063 115.8739031   5.9673268  24.2105839
 116.7577876   5.8217103  24.5478890 115.9888662   6.0459048  23.2635662
  90.6558449  93.3257844  37.0488522  91.3933355  93.6723186  36.5465996
  90.2296859  94.1010048  37.4144337 100.6833870 108.3526422   4.6225616
  99.8303253 108.7508156   4.4494316 100.6296379 107.4862816   4.2191288
 109.3447054   9.3288762   5.5995438 110.2108420   9.3169171   5.1922390
 109.4383753   8.7794310   6.3777325 118.1569940 102.0830204  20.7773087
 117.7555687 102.9506351  20.8255837 117.6518852 101.6223528  20.1073238
  96.0820133  72.4250187  10.1356098  95.5346090  71.9869901  10.7873127
  95.6670744  72.2202732   9.2976734  51.3665587 100.5713846   4.5230553
  50.8972139 100.8394815   3.7330792  52.2518832 100.3710128   4.2192814
  68.7219984 105.8484270  17.8951237  68.7382132 105.6343271  16.9623253
  67.8087289 106.0727932  18.0735275 107.9551298 102.2210314   1.2992546
 108.1992227 103.1463100   1.3219139 107.9628116 101.9487573   2.2168800
  12.9035300   5.5628640  11.2038490  12.7275437   5.6806571  10.2703735
  12.2586935   4.9156339  11.4893505  96.5812141 106.5979482   3.3281014
  95.6980068 106.4545156   2.9880974  96.4489967 106.8339731   4.2462704
  88.6059744  97.1619608   7.2905132  88.2609541  97.7006485   6.5784618
  88.0649072  96.3724662   7.2773811  53.1333494  57.1813726  94.8539257
  53.7771940  57.8357458  94.5828247  53.6449575  56.3837957  94.9894524
  78.2383347  19.7854495  88.1808472  77.9493284  20.4492617  87.5547028
  78.0147028  20.1503325  89.0370464  40.8283901  75.1608181  87.1439648
  41.5144682  74.6062660  87.5154591  40.8484077  74.9706888  86.2060452
  97.2251446  97.0103265  15.9498188  96.9093496  97.9133226  15.9166405
  97.1266491  96.6890670  15.0535366 112.6301653 102.6353218  37.5322792
 112.7713472 103.5814382  37.4981854 112.9361374 102.3167516  36.6830895
  21.9549036  30.9662652  53.1373262  22.0857763  31.3267660  54.0143347
  22.4505520  31.5492821  52.5622988  49.8728991  44.9494267  89.2173195
  49.6455097  44.7397423  90.1231670  49.1335106  44.6246576  88.7034512
  55.8415985  87.8829193  88.3267117  56.5363789  87.2398853  88.4682178
  55.9938955  88.2087898  87.4396610  37.5119925  48.7521648  80.3285122
  37.1650004  47.8611088  80.2854919  38.2317400  48.6988211  80.9572792
  75.0281555 101.5610840  24.4003174  75.3909499 101.9598104  23.6093590
  74.1168482 101.3718940  24.1768047  95.6690294 104.3417217  19.8324844
  96.3729030 103.6963321  19.8977825  96.1208612 105.1795437  19.7318241
  55.5119514  66.4740992  93.0563545  54.8165751  66.0568571  93.5648727
  55.5961943  67.3479843  93.4377480  29.3809795  76.6112471  70.8374786
  29.6140432  75.9624052  70.1734638  30.1762176  77.1311331  70.9538555
  25.3656262  26.0002095  21.8950722  25.9098976  25.2205903  22.0054314
  25.9917277  26.7186601  21.8052456  48.2186556  91.8680954  90.6665993
  48.9686537  91.8937111  91.2608051  47.9823685  92.7869034  90.5393887
  99.9667198  83.7769319  17.6352474  99.2713625  83.7886574  18.2929489
 100.2872020  84.6785166  17.6094315  81.3667518  80.5146219  11.4083740
  80.7866604  79.7741558  11.5856812  82.2045500  80.2605631  11.7953941
  48.1060314  21.7065477  71.8064499  47.5977087  21.6030312  71.0020113
  48.6872005  22.4461412  71.6290331 114.4888050  99.7240640  12.2917435
 115.4271442  99.6133568  12.4450085 114.1121895  99.8145916  13.1670734
  72.3190117   6.3846707  92.5897598  73.0858183   6.3889426  92.0168495
  71.6504002   5.9146178  92.0915222  80.2021724  72.1435656   6.9768211
  79.3115789  72.0354654   6.6430637  80.0857479  72.4786653   7.8658554
  45.1063967  84.5317745  80.2207661  46.0255766  84.4415092  79.9693823
  44.6285534  84.0171528  79.5703316  96.8257553  99.0132810   0.2968666
  97.2543031  99.7587825  -0.1236179  97.5462372  98.4877493   0.6446526
  91.3542682  95.8374168  19.7548077  91.6754371  96.3824083  20.4731819
  92.0798332  95.8114101  19.1310188  34.4326282  56.5594196  81.1925411
  33.5359287  56.2248468  81.1775017  34.9136734  55.9311676  81.7311764
  59.9095089 110.1536800  14.5482227  59.4910056 110.8032753  15.1131222
  60.8457071 110.3382589  14.6237061  23.1596351  40.2576065  62.4337959
  23.4285212  39.3699789  62.1970558  23.2112622  40.7500219  61.6145945
  37.3561049  36.9840384  72.2770214  36.8581629  37.4331903  72.9600668
  37.1432018  36.0582924  72.3949194   6.8512791  12.6939351   8.0226776
   7.2160977  13.2845122   8.6817333   7.2055262  11.8340499   8.2492611
  43.7478352  32.0615435  85.1472378  43.3300829  32.6853395  85.7410336
  44.6623278  32.3418164  85.1100826  85.8952266  66.1467280   5.6311390
  86.4065868  66.7012371   5.0418541  86.3594705  66.1933567   6.4669296
  98.0950910  84.8681070   1.3643238  99.0355474  84.6912457   1.3420937
  97.9786426  85.4508092   2.1147511  73.3199526 100.6288750  92.9263878
  72.4432344 100.8665151  92.6245213  73.8266856 100.5126746  92.1226788
 102.5189239 108.0542947  19.1001102 103.2388813 107.4247886  19.0599510
 101.8980533 107.6689626  19.7183964  52.1528643  21.7167765  11.5651009
  52.7364176  21.5639979  10.8218929  52.7397173  21.9308049  12.2903702
 109.6311790 111.1326267  35.7369682 109.0998537 110.4542782  36.1538288
 109.5205194 110.9805156  34.7984287  53.5144949  53.8272667  91.7503071
  52.8101635  54.4049883  92.0442200  53.9474869  53.5479259  92.5569820
   2.2378557   3.5739333  17.3092243   2.9080027   3.5569913  16.6259644
   1.9784420   2.6584203  17.4130318  47.9482794  18.3654916  91.4515781
  48.8095474  18.6220062  91.1219501  47.3444557  18.9971972  91.0609627
  16.5941399  61.7685372  12.3365662  16.6926544  62.2377545  13.1650421
  17.4442166  61.8609769  11.9064018  63.1591129  55.5019045  93.6543655
  62.9795122  54.9764729  92.8746891  62.5118399  55.2081919  94.2954540
  96.1354667 110.1116325   6.9178364  95.3662616 110.4083111   6.4314816
  95.9406215 110.3283455   7.8295872  61.0696507  54.5694542  95.4695702
  61.1638784  53.8624525  96.1079216  60.2200603  54.9619436  95.6705284
  22.5653570   8.1020600  10.4842732  22.0127218   8.8375718  10.7485649
  21.9473904   7.4040372  10.2672169  91.0349256  87.1207430   7.7878830
  91.9167787  87.4929454   7.7823517  90.9464771  86.7272617   8.6559746
  47.3571032  26.0791356  23.2715771  47.8711813  25.5187470  23.8528797
  46.5514296  26.2537534  23.7580273 101.4313156  82.1606232   6.9179794
 100.7597524  81.8699505   6.3009331 100.9405357  82.5674798   7.6320049
  93.7878401 106.6502859   2.5358364  92.9700739 107.0897915   2.7689240
  93.6276752 106.2941362   1.6619083  67.7255821  28.8502073  79.2630959
  68.0046082  28.2830954  78.5442352  68.3851480  28.7162352  79.9437237
 112.9755009  14.2157800   4.1993019 112.1949614  13.6649663   4.2592880
 113.4574641  13.8673407   3.4492752 104.5713884  61.5656091  32.6097843
 104.6561558  60.6672450  32.2904274 104.0964157  61.4820613  33.4366104
  86.9344408 108.6364843  28.0529758  86.3195783 108.7767078  27.3329041
  87.2718746 107.7520563  27.9110024  56.0803652  52.7793360  95.7193947
  56.0019159  51.9879580  96.2521172  56.1575317  52.4569130  94.8214340
 101.1791736 107.9730083   0.4593632 100.9047014 107.7458526  -0.4290607
 100.8166773 107.2769405   1.0073731 112.4333037   5.3885180   4.9690029
 113.3667124   5.5001408   4.7886726 112.0041169   5.5742747   4.1338226
  64.3911076  79.4473076  80.3883839  63.7172318  78.7705231  80.3244591
  64.8455429  79.2560720  81.2088490  66.4402676  38.2687044  93.2772160
  65.6606817  38.5143328  92.7790737  66.5002871  38.9279628  93.9685917
 114.0787393  86.1333753   1.0731861 113.3250362  85.9219743   0.5222961
 114.3968517  85.2843000   1.3799545  67.4388933  35.9447002  85.0134945
  67.8955030  35.2347732  84.5621109  67.0732546  36.4801645  84.3093491
  30.0498700  14.0350962  75.1599884  29.2122936  14.2648196  74.7575855
  30.3953624  13.3324087  74.6094465 116.8488038  10.7442195  11.3824818
 117.6103462  11.2315423  11.0681507 116.2085713  11.4193160  11.6073677
  81.7795086  17.8964925  82.9972172  81.9948292  18.7418437  83.3912277
  82.0857525  17.2505760  83.6337948  32.6368332  21.3823223  80.6219196
  32.8500485  21.6146088  79.7181416  33.4211993  21.6126990  81.1198425
  15.5136364  19.1163308   9.0953419  15.8699721  19.4306714   8.2644150
  15.7446783  18.1877333   9.1190407  46.0363531  89.7821903  69.7096920
  45.4829311  89.2986679  69.0963745  45.7281160  89.5119572  70.5746794
  92.0760137  76.8288542  27.1846172  92.2668297  76.3451149  26.3809940
  92.1573717  77.7493765  26.9351170 110.2175463   5.6869561  20.3887913
 111.0480441   6.1624247  20.3678963 110.2350367   5.2107198  21.2189266
  62.1640062  67.2027349  90.4353333  61.7299700  67.8275347  89.8544121
  61.4493036  66.7905807  90.9206772  50.0492876   4.2452437   5.4507038
  49.6899336   3.4619767   5.8673546  50.4996603   3.9172894   4.6723530
  70.2145917  96.2907316  15.6681988  70.5015284  97.1377756  15.3269932
  69.3269140  96.1831714  15.3265926  46.3101244  44.9075174  90.9072876
  46.6205788  45.6120157  91.4760876  45.4080677  44.7531223  91.1877918
  47.9451275  41.7026138  86.3796043  47.2890520  41.8948650  87.0495605
  48.6695051  42.2965908  86.5763283  34.4547766  14.6357686  13.9235374
  33.5319679  14.5738322  13.6769077  34.9053734  14.0513760  13.3138821
  72.7617168  43.9968634  87.5823784  72.6718807  44.9480247  87.5236320
  72.8604603  43.7091017  86.6748142  19.7490727 106.5132095  16.6583797
  19.5794713 105.5746366  16.5774700  20.7019459 106.5799524  16.7202065
  74.9357891  93.3300400  89.7092056  74.0759659  93.5659885  90.0574207
  75.0466824  93.8930988  88.9431095  63.7600231 104.9320126  69.5797920
  63.5775805 104.1955376  68.9962196  64.2570066 104.5478725  70.3020620
  27.6704645  87.1382523  87.5822735  28.6113954  86.9818020  87.6622772
  27.5842524  88.0914783  87.5946236  22.5060719   7.2022158  22.9821369
  23.0985850   6.8365056  23.6389610  22.7315014   8.1318433  22.9473373
  53.3879679  26.4571912   7.5530407  52.8106707  27.0216328   8.0672142
  54.2702025  26.7673261   7.7572414  84.6813107  77.8728628  78.0593777
  85.1477814  77.5818205  78.8429165  84.6730137  78.8276815  78.1263828
  39.5910662  35.3641469  14.2448780  40.3638046  35.9281022  14.2123196
  38.9553755  35.8585221  14.7622940  32.0059037  86.8809032  79.4085789
  31.4629889  86.1886406  79.7857332  31.4664698  87.6691532  79.4710350
  38.2269304  32.4270207  19.8270199  37.9990404  32.5345856  20.7504532
  37.6817005  33.0671460  19.3696377  62.0907164  26.5549231  93.5317707
  61.3064337  26.4415622  94.0686893  62.2599888  25.6856608  93.1685066
  87.1914512  94.6997978  19.3017170  87.6282388  95.2286531  19.9693749
  87.7311069  93.9125897  19.2288372  19.2275303  11.8815142  19.0881893
  18.9667195  10.9664351  18.9840958  18.4056061  12.3496062  19.2350170
  39.0643852  12.8330333  14.9957630  39.7460335  12.6894051  14.3392822
  39.4805639  13.3874089  15.6558296  97.7208168 101.0064604   9.5326969
  97.2644836 100.7051708   8.7470696  98.6251003 101.1392643   9.2483398
  36.4586449 102.9836845  91.6074181  36.5294766 102.3029900  90.9381866
  37.3549008 103.2987690  91.7243671  62.1653748  74.2653084  83.1494999
  62.0914507  73.8676977  84.0170670  62.8641129  74.9130058  83.2416248
   6.7943686  19.7367436  31.8874714   7.5205105  20.0619132  31.3553021
   6.5270346  20.4901892  32.4138710  17.4255722  28.0571420  18.8648006
  17.9861706  28.8329655  18.8727734  18.0364817  27.3202950  18.8559315
  42.5441742  53.0338526  66.5156698  41.6998386  52.6289320  66.7140770
  43.1326628  52.7061749  67.1957684  49.3307400  69.8237181  88.5990334
  50.1648664  69.5730686  88.9960766  49.5556736  70.5328751  87.9967594
  69.7470838 108.6605646  12.6880905  69.9921591 107.8033497  12.3397324
  68.8860471 108.5215809  13.0824635  51.8836230  17.3932988  12.4828598
  51.2603873  18.0745322  12.2304031  51.5433329  16.5954358  12.0780823
  40.5919504  67.8592443  75.8864689  40.4855824  67.0876265  75.3301191
  39.8487401  68.4196806  75.6633568  75.6697559  73.8128996  70.3269196
  74.8683977  73.4535551  69.9462223  76.0070086  74.4080925  69.6574163
 111.5761126   7.0264012   2.5317165 112.2313918   6.9184024   3.2210514
 110.8862556   6.4022881   2.7571270   1.1554020   9.3290002   8.3708641
   1.2462586   8.9977605   7.4774143   1.2902182  10.2732951   8.2910893
  52.5467300  79.9112749  63.2173014  52.7574778  80.5706882  63.8783503
  53.3690310  79.4420099  63.0764341  90.6030828 110.8013012   5.5328056
  90.3564579 111.5385200   4.9743149  89.7985536 110.5745031   5.9992001
   1.0644835  24.1295392   9.1816494   1.1137837  24.6556527   9.9797794
   0.8861082  24.7638184   8.4873173  57.0865648  11.5806872  37.4022743
  57.3716753  10.6785924  37.2567818  57.3561018  12.0475823  36.6113350
  65.7590407  12.4634511  11.1323044  64.8146647  12.3154218  11.1820576
  66.1008661  12.1070248  11.9522736  63.4484976   6.8042619   5.5389759
  63.8495177   6.4583403   4.7416279  62.9634875   6.0640151   5.9037182
  26.0858029   2.4812657   9.4906494  25.1990050   2.7382953   9.7431633
  26.5091198   2.2403056  10.3146431  16.8680304  14.7268874  31.0621903
  16.8687218  13.8491113  30.6804249  17.3526114  14.6318251  31.8821785
  52.1311283  61.0637426  95.4059792  52.9456949  61.1365509  94.9085712
  51.4956713  60.7230902  94.7763824   6.4843880 100.8714105  27.2727367
   6.7618023 100.3076460  27.9948494   7.2929131 101.2800981  26.9637081
  37.1501845   7.9865891   8.5072586  36.4722508   8.4576089   8.0227253
  36.7878979   7.1098573   8.6350224  74.4491863 107.6781940  50.6002998
  74.9918222 107.2735500  51.2770844  73.5739660 107.7162170  50.9860229
  32.9812735  38.7974030   4.6918270  32.7215832  38.2037694   3.9872715
  33.5668009  38.2758767   5.2408192  71.6084480 102.2815514  91.2719440
  71.7932081 103.0642414  91.7910576  71.7259693 102.5627136  90.3645515
   0.5437201  46.7974431   9.7868130   0.3047198  46.1970860   9.0806362
  -0.2922351  47.1399171  10.1032326  16.8111151  44.2857987   7.9589531
  16.1509245  43.6622769   8.2616112  16.3656204  44.7973782   7.2836372
  10.2349728  10.3333909   5.7160351  11.1483210  10.1740557   5.9540436
   9.8178023   9.4741446   5.7784531  61.0318947 101.8308735  92.8680038
  61.9519091 102.0947552  92.8808975  61.0569429 100.8740902  92.8812790
  29.0221667  91.8279076  88.9021015  28.6385369  92.4790096  88.3146381
  29.6805048  92.3127651  89.3998337  28.9955354  70.4718208  70.7638931
  28.6308599  70.0049210  71.5157223  29.8788714  70.7167339  71.0395193
  15.3182685  33.0874419  88.3067036  14.7356558  32.6575589  88.9328003
  14.7291791  33.5405064  87.7034378  56.4482897  38.7904317   6.5515968
  56.4923495  38.9483697   5.6085465  56.6226595  37.8539903   6.6460201
  54.2262285  18.0723769   6.8592331  54.3984144  18.0341632   7.8000423
  54.3961638  17.1831710   6.5483257   3.2176911  84.3971850  38.7200043
   2.5892293  85.0333621  39.0613911   4.0139138  84.5503976  39.2287132
  58.4060019  23.1309611  30.1957199  58.5149782  22.1840483  30.2835152
  58.3503741  23.2791430  29.2516968  94.5375538  71.5035105  91.9886589
  94.2781544  71.2100077  92.8620434  93.7693214  71.3376665  91.4422703
 117.0506746 106.1214782  13.9778873 117.2464401 107.0518591  14.0887997
 116.4808161 105.9069301  14.7164413  51.6268158  68.9805365  78.6558723
  52.2878838  69.4894409  78.1865835  52.0865870  68.1878567  78.9324617
  40.1160955  63.7648630  75.3257656  40.9518957  63.9013863  75.7718945
  39.9786592  62.8181648  75.3590727 113.9989645 103.1645204  13.2426235
 113.4647590 102.6586725  12.6302692 114.5326311 103.7299825  12.6843330
   8.5437744  25.5583054   9.1013882   9.2173403  26.2144048   8.9222691
   7.7935522  26.0642869   9.4134590  59.1942805  29.8654515  44.6617195
  60.0919932  29.8774010  44.3297455  58.6936300  29.4139344  43.9822266
  75.5644232 107.7083828  17.0225784  74.8201663 107.7101947  17.6245091
  76.2767178 107.3111107  17.5236198  96.0311777 107.5708486   5.8656380
  96.1033184 108.4433128   6.2527248  95.0919277 107.3863603   5.8642265
  76.7712021  69.9842930  62.2780609  77.6874399  69.7367096  62.1538210
  76.8098783  70.8564997  62.6704788 104.1343845  23.4515769  13.2043526
 103.8023532  22.7130658  12.6938698 104.7329486  23.9038283  12.6098606
 116.1577071  27.0236832   6.3174507 116.7969883  27.3154027   5.6674931
 116.0092224  26.1010987   6.1100552  97.2637367  59.6102619  67.2369909
  96.7012501  59.0366936  66.7165565  97.7718544  60.0990772  66.5896034
 100.2754688  83.1282330  88.3815765 100.1775455  83.8895321  87.8096771
 101.2170124  82.9561329  88.3921432 113.4928144  27.2596032  18.0785534
 112.6480235  26.8124444  18.0274460 113.8541068  27.1907384  17.1948311
  25.2030104  31.2152726  45.7872936  25.3737276  30.3338200  45.4554436
  26.0721129  31.5946061  45.9176609  34.1118258   9.9014861  11.4142010
  34.7888773  10.3050000  10.8710548  34.5973557   9.3925244  12.0634052
  92.8732395  66.0121346  93.3780766  93.6431217  66.0841894  92.8138828
  92.1300602  66.1095953  92.7827358  93.5651285   7.1518188  80.4299068
  92.7983600   7.7207904  80.3623104  94.0864403   7.5352149  81.1352253
  22.7281397  45.4995114   3.1356308  22.4262446  44.8228795   3.7416622
  22.4586457  46.3229710   3.5424778  43.6775684  63.0211878  91.4015293
  43.8137341  62.1875000  90.9513474  43.6892080  63.6753607  90.7028484
  66.6741705  96.1933327  85.7775784  66.0449696  96.6646767  85.2315235
  67.2607136  95.7664585  85.1530933  84.4946701  86.0267474   7.9482147
  83.6562807  86.3710667   8.2560799  84.5590526  86.3279916   7.0419380
  28.6405342  17.5919253  41.7317650  29.1110390  16.7833430  41.5291569
  28.2407826  17.4287850  42.5860569  63.3998013 101.8004704  96.0942841
  63.3079481 100.8845043  95.8319664  64.3077993 101.8756676  96.3877392
  37.9733484  24.3997056  25.5904362  37.4653404  23.7178571  26.0300324
  37.9896324  24.1314894  24.6717236  12.9427981  77.5957870  83.2402515
  11.9984794  77.5543499  83.3911800  13.1365788  78.5318518  83.1906605
  35.7765644  38.5063893   6.5212891  36.4823168  38.8024194   7.0961926
  36.1564415  38.5318429   5.6430695 114.2836417   8.2227141   4.6969959
 114.5894373   7.5355441   4.1049454 114.9981655   8.8594205   4.7142765
   2.2183626   4.7016675  24.9606010   2.8550308   4.2866666  25.5425522
   2.7263468   5.3505523  24.4736454   0.4011720  37.6818997  18.9295075
  -0.5056984  37.4516351  18.7275192   0.6446713  38.3127744  18.2520458
  13.7828272  21.4604432  36.2654850  14.7097796  21.6116196  36.4502594
  13.7593621  21.2198359  35.3393147  46.2588787  92.4448681  80.8335781
  46.7873430  93.1885338  81.1232567  46.4526415  92.3626232  79.8998117
  47.0460528   6.7027289   6.1787960  47.5736540   5.9786612   5.8417484
  47.5916022   7.1012360   6.8568775  42.1025675  17.1042020   1.8602154
  42.5524157  17.6063783   2.5396988  42.0365446  16.2197310   2.2201893
  18.2215899  38.8315446  26.9915268  18.0653256  39.7512967  26.7773602
  18.0040425  38.3583218  26.1884281   9.1841477   4.3752105  15.1667282
  10.0465077   4.3931062  14.7516987   9.0448206   5.2729041  15.4683373
  34.0123248 100.5891323  77.0288515  34.8662186 100.4181671  77.4261761
  34.0849876 100.2340984  76.1429071  28.7392252  23.4674222   4.1802666
  28.2597035  24.0695578   4.7492287  28.0641907  22.8980643   3.8109562
  59.0027332  73.3079576  86.4162159  59.3255186  73.1540966  85.5283165
  58.1290293  72.9170513  86.4245319  79.8778868  82.3287582  82.0074081
  80.5180740  82.4280262  81.3027477  79.2327023  83.0165768  81.8434906
   5.4806011  47.0048100   8.4402916   5.8224552  46.1395413   8.2151863
   6.1876744  47.6084096   8.2123825  93.0107147  21.5224223  44.3369722
  93.0156595  20.9971671  45.1371670  92.2084982  22.0412593  44.3959904
  28.3904284  35.8034474   2.2633335  27.5395029  35.3889710   2.1205971
  28.2887095  36.2821156   3.0859921  26.3815468  32.8264481  30.9828732
  27.0158737  32.6714665  30.2829907  25.8645075  32.0217664  31.0200188
  56.5457457  56.9385297  22.5670883  56.0027140  56.6393334  21.8378136
  56.8245810  56.1337907  23.0039856 118.1286522  90.2510929  69.3220472
 117.9587445  89.7871685  68.5022020 117.3983418  90.0075245  69.8908663
  91.7712433  98.9717676  18.4928772  91.9264204  99.8865892  18.2578156
  92.5519020  98.5101034  18.1868240 114.7654611 109.6456386  10.2951119
 113.9970905 109.3504812  10.7836887 114.9434120 108.9364864   9.6773121
  19.7162949 105.2376033  29.7503159  19.9556386 105.8471348  30.4484722
  20.4764401 105.2292587  29.1686317  87.3858643  78.9076233  65.5271530
  87.1628284  79.2054462  66.4090729  88.0137539  78.1984997  65.6654596
  60.8517170  86.0467148  87.8965855  61.0107660  85.6506252  88.7533474
  61.0817289  85.3611851  87.2693825  16.1210030   9.8723800  33.4202549
  15.2003449   9.8764045  33.1583378  16.5106028  10.6012208  32.9373142
  39.0749025  73.0624151  92.0267868  40.0115156  72.9372120  91.8741035
  39.0068650  73.9473057  92.3853493  15.7907784  38.6843395  83.4005737
  15.0320172  39.2676687  83.3851528  15.4308712  37.8181314  83.2098293
  10.9173237 109.5696022   2.5216267  11.2151181 109.5309688   1.6127560
  10.6833970 110.4876758   2.6582024  78.2252407 107.3986721  83.3760929
  78.6582994 107.3320198  82.5250626  78.5321617 108.2306099  83.7365150
   2.6404034 109.7126295  10.2088139   2.3146950 110.1970007   9.4501755
   2.3060357 108.8240148  10.0872204  54.9846077  86.4501381  83.9500332
  55.7496500  86.0850048  84.3945694  54.3835449  85.7105064  83.8611889
  60.1632803   6.6193539  12.7076599  60.8665770   6.1411149  13.1468651
  59.3766611   6.4008672  13.2073757   4.6629160  36.5311009   6.3681862
   3.9747732  36.9914300   6.8485901   4.4533127  36.6816766   5.4464314
  59.9819851  96.0037804  89.7567654  60.2011919  95.8253002  90.6712818
  59.2575073  96.6277695  89.8015118  51.6547728  63.7845516  95.0016212
  52.0925808  62.9931879  95.3151512  52.2125006  64.5019770  95.3024006
  37.3136759  70.9342051  92.3211002  37.6155829  71.8254185  92.1455383
  38.0139184  70.5425835  92.8431416 108.2314760  75.1882745  13.9833996
 107.6695186  75.9150316  14.2522118 107.8770477  74.9112834  13.1384823
  52.2211123  64.1206694  90.0450420  52.2021294  63.4920931  90.7666779
  52.1720982  63.5810137  89.2559910  72.0920277  84.6262360  88.5175228
  71.1742306  84.8741150  88.6290455  72.5679636  85.1885796  89.1286564
  52.4984377  21.0531146   4.9801514  52.6684206  20.5228574   4.2015812
  52.8109186  21.9274194   4.7473690   8.0770718 105.6513073  11.6838715
   8.3609997 104.8697998  11.2096760   7.1215569 105.6293203  11.6314861
  44.6830130  77.0732737  64.3207502  44.4719601  77.8043175  64.9014950
  45.0019741  76.3865566  64.9063396  60.6339407  72.4983883  95.4432487
  60.5179358  73.4217882  95.6671047  61.1223459  72.5110149  94.6201229
  65.9736538  43.0774117  94.5717430  65.4902077  43.8057232  94.9617004
  66.8886662  43.3574820  94.5951366  27.3614948  64.0799672  19.6867630
  27.4743956  63.8707215  18.7595627  26.4212864  64.2298085  19.7857258
  23.0684965  35.7471139   6.6112492  23.7945955  35.3374821   7.0815727
  22.4057835  35.0593430   6.5478870   9.1183298  35.2232129   6.7812511
   8.7404173  34.9222619   5.9549114  10.0643509  35.1762730   6.6431400
  86.5979576  66.7210627  72.8700495  86.7393208  66.9794083  73.7808228
  85.9237289  66.0431194  72.9152775  15.3153055   3.3256728  16.8207047
  15.4824942   2.9068953  15.9763691  14.6880263   2.7474744  17.2547981
   1.2269991  41.1017186  19.5576164   1.0429257  41.3917786  20.4510471
   1.5246027  41.8914372  19.1059372  11.7794722  46.4514787   2.1610138
  12.4766129  45.8052022   2.2730324  11.9484871  46.8397481   1.3025829
  27.1433228  14.4948346  15.5808231  26.3319891  14.0452391  15.3445217
  26.9708412  14.8598630  16.4487145  69.0516186  66.6486406  93.3990288
  68.9261103  66.0156155  94.1059685  69.6089506  67.3267365  93.7808704
  53.1539458   6.5926415  35.5756256  52.3092478   6.9953162  35.3741810
  53.1597918   5.7814128  35.0675842  45.8378523  44.2582566  16.0457203
  46.2341326  43.5174424  15.5870602  46.5669077  44.8566396  16.2089798
  39.7481632  89.0277576  79.6768522  39.0698314  88.4466648  80.0209808
  40.3790665  89.1093731  80.3920650  75.0483418  80.8382130  80.0667000
  75.8403206  80.3998947  80.3779602  75.0630093  81.6932011  80.4968262
  35.8264923  74.5659781  63.0609941  36.2429690  75.3523159  63.4137678
  35.0505090  74.4403839  63.6071730  71.4015150  77.0894146  92.6358318
  72.2275877  77.3571539  92.2331524  70.7570362  77.7100658  92.2957230
 106.0288143  86.6715717  82.8413010 106.3632393  87.3160553  83.4650326
 105.0826740  86.6664696  82.9863071  64.0733290  78.4711075  86.1968803
  65.0019836  78.5289478  85.9721756  63.8638496  79.3266249  86.5716362
  30.6206482  25.2784592  24.7202274  30.9195393  24.4430310  25.0793335
  29.6776169  25.2859456  24.8841450  74.8190260  88.8045025  85.9395218
  74.7966623  88.6586094  84.9937725  75.7502699  88.8769150  86.1487484
  36.1312931  42.2018201   1.0928890  36.8557232  42.3675210   1.6961929
  36.1218088  42.9646355   0.5147526  50.3228873  43.3982236  18.6120007
  50.7335776  42.5422150  18.7337086  49.3831175  43.2167012  18.6228535
  44.3122387  74.0988874  92.9150009  44.5965910  74.5206022  93.7258911
  44.7592163  73.2524586  92.9157257  57.2011948 102.6993465  89.6780205
  56.9509459 102.1885586  88.9081478  58.1234026 102.4847317  89.8184299
  29.1286391  20.9137589   2.4526283  28.3287256  21.4201791   2.5937244
  29.6852844  21.1320407   3.2001087  70.6334448  67.6339865  62.1177149
  70.0024843  67.7487612  61.4071178  70.6268454  66.6932344  62.2942638
  71.4519739  94.4598103  61.7088270  71.8261480  95.3322983  61.8312883
  70.5133438  94.5792770  61.8535233  52.7358770  77.7083111  81.1874866
  53.3794641  77.4546671  80.5259037  51.8905354  77.4884033  80.7959843
  73.5870028  91.7684937  87.3909473  73.0749846  90.9738636  87.2405243
  74.0665102  91.5946960  88.2009506  94.3234253  76.6437101  70.0784492
  93.6406231  76.7287493  70.7438707  94.2851925  75.7251120  69.8120880
  91.0435368  18.3517510  35.6437656  90.1423360  18.0455310  35.7452461
  91.5790034  17.5705821  35.7826111  32.0880717  29.5000893   9.9871037
  31.6071718  29.5373208   9.1603157  32.7606219  30.1760632   9.9036381
  18.1492918   7.0394332   4.0533516  17.8366392   6.7015464   4.8925850
  18.9141672   6.5015990   3.8485786 107.2464657  82.7476025  65.1907969
 106.3607121  82.4318504  65.0120020 107.8085613  81.9907856  65.0249481
  79.8300600  99.7415447  67.9217291  80.2419281 100.5729485  68.1570053
  79.0636873  99.6839714  68.4923315  96.9228203   1.5946918  73.9697742
  97.6324970   1.3121181  74.5466185  96.2706405   1.9725471  74.5597887
  90.2156669  97.2623111   1.2652752  89.5749647  97.4600651   0.5821774
  90.0650055  96.3406898   1.4753983  26.1621683   2.5114495  23.4623024
  25.6612509   2.6728494  22.6627609  26.9115799   1.9902236  23.1743118
  29.5537728   2.4399907  15.4067204  29.0024489   1.7440945  15.0489494
  29.2346972   3.2384497  14.9861500  31.0645788  37.5366456  20.7920429
  31.9403523  37.1574361  20.7181904  30.7514017  37.5937516  19.8893234
  44.7509050  94.6665192  83.2722378  45.0628948  94.1379642  82.5377274
  43.8063431  94.5129585  83.2936573   6.8789356  24.0646321   3.8828060
   7.6429384  24.2744500   4.4199345   7.2237271  23.5119397   3.1814549
  37.4825686  22.4357707   4.2569134  38.1082266  22.9471356   3.7437985
  36.6359108  22.8457457   4.0799305  11.4763468  67.0834500  10.8570644
  11.7880362  66.2266881  10.5654308  11.2901514  66.9662053  11.7886326
  49.7834891  19.3154103  32.7592060  50.6170767  19.7016341  33.0279038
  49.8436278  19.2553288  31.8057797  76.0714579  92.9188156  75.1261187
  76.6152382  93.7048340  75.0740480  76.6978168  92.1985531  75.1976490
  81.6273689  94.7400951  84.0165043  82.3294735  95.2575874  83.6221790
  81.8030834  93.8428211  83.7332249  25.3983563  28.8794762   8.1791851
  25.6958121  28.5576493   7.3281929  24.5585840  29.3006379   7.9957840
  71.0095709  44.5077664  35.3183720  71.2442511  45.3336484  34.8952076
  71.8041151  43.9767129  35.2643368  52.2588938   3.2061536  31.5654823
  52.8830927   2.9775483  30.8767578  51.4388483   3.3714921  31.1002514
  30.4596966   7.2467238  15.4010555  30.0316494   8.0470330  15.0969002
  30.7915896   7.4684150  16.2710640   8.2300316   0.9642844  95.1914692
   8.3509003   1.2582069  96.0943699   8.4810578   0.0406795  95.2046108
  51.8080443  14.6315820   5.2725479  52.0666712  14.7660167   4.3608067
  52.4514693  14.0111358   5.6150314  47.9419630  18.4453494   3.1474754
  48.6965960  18.5498339   2.5679657  47.3853129  17.8060061   2.7029488
  14.0574234  13.3328015  22.7978584  13.3156412  12.7512605  22.6311276
  14.1122597  13.8814217  22.0154068  74.4330597  79.7164011  94.1336918
  74.9326086  80.3447437  93.6122799  74.9493361  78.9111757  94.0976524
  34.4896460  89.7106552  84.8798084  34.6884608  90.2022362  85.6767178
  33.8838720  90.2726078  84.3966103  21.6827250  52.9223537  84.9328041
  22.5368547  52.7061129  84.5587254  21.8549228  53.6679363  85.5078602
  68.5921860  92.2653484  66.3393021  67.7739239  91.8002129  66.1651707
  69.2210960  91.8803501  65.7289934  42.7886027  20.5953414  34.1898033
  42.9943770  21.3250596  33.6055061  41.8466395  20.4620845  34.0840122
  58.2986212  96.1430836  69.3509388  58.2716465  96.6240501  68.5237932
  58.9848137  95.4877758  69.2246819  73.0645132  76.0812616  89.3680668
  72.7386189  76.8198347  89.8823929  73.0924129  76.4091110  88.4691906
  61.9724321  87.8495026  55.8050394  61.0666561  87.6760769  55.5486727
  61.9796801  88.7755203  56.0472727   1.2261061  73.0978441  69.8603725
   0.4820876  72.8607416  69.3067932   1.1743407  74.0506458  69.9359989
   9.4534319  20.5515820   7.8436253   9.9463146  20.0758368   8.5121796
   9.5940512  21.4747388   8.0539677 104.1851902  85.0303650  90.3167725
 104.5030212  85.0102043  89.4141102 104.9609375  85.2337456  90.8393478
  76.6770029  86.9243050  56.5142059  77.1166277  86.1243725  56.2259817
  76.3588715  86.7192841  57.3934031 104.7542078  83.5956551   5.0057385
 105.1875192  84.4243981   4.8016426 104.3207628  83.3447506   4.1900131
 102.4284267  86.2214565  96.0573006 103.1524658  85.5975246  96.0052490
 102.3112774  86.5279770  95.1581001  44.2352247 110.7216740  54.7352266
  43.5748100 111.4103889  54.6593428  44.4108629 110.4576969  53.8320637
  75.0243330  80.1633930  91.1172295  75.8546591  79.6881723  91.0862064
  75.2617931  81.0726070  90.9351158   2.8148955  20.6236083  16.1044380
   3.5292214  20.8958823  15.5283901   2.1776884  21.3357217  16.0488579
  77.0632696  59.5990992  50.6707859  76.3301229  59.3338966  51.2261200
  77.6370716  58.8332462  50.6497383  86.5628147  80.3945827  80.6092548
  87.0922947  81.1578369  80.3783417  85.9350681  80.3124809  79.8913240
  76.6612530 108.2541847  91.9575882  75.9991693 107.8378201  92.5094223
  76.1872911 108.9451408  91.4948177  96.6412163  89.9348259  94.7635174
  95.7262135  89.7040462  94.9239445  97.0605946  89.8614216  95.6208229
  82.0287037  79.2858219  79.3196487  82.7467251  79.0407372  78.7360287
  81.2728691  78.8028955  78.9853907 104.9449348  74.8627996  74.2842245
 104.7608757  74.0640450  74.7785282 105.4276657  74.5621157  73.5142899
  58.4454203 105.5065918  59.5667124  58.1995583 105.3625774  58.6529064
  58.6885881 104.6386814  59.8889494   7.7955454  16.3105256   5.2330849
   7.6121395  15.6164557   4.5999500   7.8871983  17.1013743   4.7016785
  31.4987707  83.6203384  78.2502127  31.4069581  82.8363228  78.7916231
  32.4360466  83.8139629  78.2660961  66.7060757  79.0727425  64.3773985
  67.1335649  78.2276011  64.2387390  65.8323908  78.8494158  64.6983957
   6.8077408   3.0328231  69.7901487   7.0773350   3.8016086  69.2876291
   7.2146832   2.2950225  69.3359613  86.8796825  79.0084600  86.8799019
  86.0109329  78.9669323  87.2796345  87.4528503  78.5662079  87.5061035
  72.9307270  87.7144718  78.3335972  72.8518629  88.0550480  77.4425173
  72.3818016  86.9303322  78.3397627  71.3942671  68.3987427  94.3568325
  71.7848253  69.2095804  94.6827698  71.8676281  68.2140779  93.5456276
  70.1350325  22.3970944  42.2474644  69.8831003  21.7263848  41.6127083
  70.3850287  23.1508118  41.7130158  71.8794060  96.6877556  80.7222557
  71.6225767  97.3429680  81.3710785  71.6108131  95.8528614  81.1057186
 110.3011829 105.3941871  12.9502079 110.4501230 104.5724251  13.4179184
 110.9939939 105.9763338  13.2622215  23.2400435  43.1313092  14.0164921
  23.0699747  42.7357537  13.1615994  24.0102070  42.6680238  14.3458054
  47.7150583 102.5529671  66.2844038  48.3044100 103.2352161  65.9627914
  46.8494034 102.9614162  66.2773943  71.3644218  82.7840328  66.3912344
  70.8515596  82.0049000  66.6060877  72.1109009  82.4497890  65.8939648
  30.8887165  26.0956437  -0.1131084  31.6362017  26.4331014   0.3804752
  30.1683920  26.6851098   0.1102612  94.3676693 111.3607408   8.7954685
  94.9483473 111.9099333   9.3221828  94.1681701 110.6134273   9.3593380
  21.3330715  14.7460849   0.7856915  21.2048166  15.3410537   1.5244743
  21.5525549  15.3197057   0.0515148  27.4765700  43.5342748  14.1582748
  26.8306416  44.2265660  14.0177700  28.2275646  43.9827210  14.5470497
  37.1596163  63.8133675  14.4469997  36.7967575  62.9967553  14.1039059
  37.0567244  64.4405515  13.7312576  29.7612398  24.6605450  15.0735828
  30.0306481  24.1518599  14.3088028  29.0953272  24.1198737  15.4983971
 109.3961239  94.1872120  65.3590870 109.8274326  95.0015926  65.1002741
 109.4466686  93.6317062  64.5812082  45.2891176  25.1216180  10.8399937
  46.0157984  25.7358510  10.7356712  45.1584452  25.0637109  11.7864582
   3.4120230  84.0502548  90.8365726   4.1611056  83.8930893  90.2617645
   3.1816916  83.1838894  91.1721325  73.9333582  78.0539989  57.4261951
  73.9268875  78.9950323  57.6012659  73.6917400  77.9804850  56.5029097
  47.0638102  36.9508797  20.8334133  47.0363348  36.7097050  21.7593262
  46.2484663  36.6040475  20.4712746  19.4944971  36.2055451  22.9163429
  19.2893856  35.6606633  23.6761162  19.1093939  35.7378823  22.1752426
  37.9748505  13.3381326   3.1248447  38.1096810  14.1798407   3.5602543
  38.5568875  12.7340419   3.5858700  12.9470019  73.3057785  59.0666914
  13.2598548  72.5520325  58.5664749  13.7006240  73.5738230  59.5924664
  50.5065649  60.1491219  30.1136181  51.3013666  59.6736962  29.8717567
  50.8241194  60.9576947  30.5156109  72.4268723 107.1206093  75.9936905
  72.0458412 106.2783337  76.2419128  71.9846630 107.3521519  75.1769447
   0.0670593  18.2080752   5.7844898   0.3889030  18.6627776   6.5628788
   0.6518000  17.4565131   5.6872150  40.6277388  43.3396394   7.4780438
  40.6518858  43.0664212   6.5609810  41.2790697  44.0385873   7.5369522
  30.2556103  42.8889138   5.5430958  30.9178990  42.2976357   5.1853535
  29.4487446  42.3739392   5.5413601  27.7850741  31.9187218  43.4812805
  28.4163063  31.2005574  43.5262177  27.8855246  32.3783929  44.3148586
  60.5444067  78.7146718   9.6969959  61.4791792  78.8012273   9.5100376
  60.3227633  77.8302533   9.4056294  13.4100979  74.0541703  32.9290840
  13.2446831  74.8806722  32.4754784  13.1348723  73.3804566  32.3073074
  19.6551674  44.1338593   6.0193703  19.7414845  44.9107606   6.5718243
  18.7969034  44.2279584   5.6061432  26.2164229  58.6033017  29.9589417
  26.0324496  58.1164891  29.1555664  25.5936163  59.3300683  29.9465439
  79.3684483 107.1299553  80.9440517  79.1365480 106.4396286  80.3228474
  80.1723099 107.5104809  80.5901527  94.1920757  84.8437309  92.7336884
  94.4443035  84.9556828  93.6502457  95.0225067  84.7568130  92.2656441
  32.2114247  13.0175835   8.6382458  32.9744595  13.5451752   8.4023354
  31.5101975  13.3454234   8.0751774  75.0740528 107.0116711  79.4487381
  74.9864197 106.6169357  80.3163433  75.5906010 107.8037739  79.5970488
  66.9627237  83.3138561  92.3784637  67.6534891  83.1186008  93.0116749
  66.7055988  84.2147541  92.5746918  43.8420313  47.5920541  50.4325935
  43.1184405  47.7501828  51.0389301  44.5326727  48.1876141  50.7233593
  15.4998892  27.1016366   3.9132664  16.0996168  27.4778516   3.2690498
  16.0331314  26.4711053   4.3973324 109.0857972  22.6803834  18.9257309
 109.7508706  22.9036433  18.2745239 109.5847524  22.4673039  19.7143147
  12.2273892   4.3561274  20.9111664  12.5989741   5.2308137  21.0255501
  11.3487023   4.5125443  20.5652306  91.1427307  95.1421452  71.9390297
  91.4967060  94.5189381  71.3045549  91.1780548  95.9869099  71.4903116
  24.8439949  14.2085463   4.9009869  25.4080981  13.4680135   4.6781990
  25.2729386  14.6189887   5.6518433  48.5805815  45.1362855  43.7439415
  48.8925188  45.2208287  42.8429577  47.6363295  45.2817685  43.6851379
  35.1452797  36.9277531  17.0668194  34.3009680  36.4963586  17.1982262
  34.9227589  37.8432996  16.8980381  66.4712286 105.1435661  90.9183788
  66.7727995 105.9188938  91.3918209  65.8310318 105.4798317  90.2912331
  87.3867416  71.7364645  96.4322948  87.1298981  72.3750687  95.7671165
  86.8074417  71.9158649  97.1728706  12.3916786  16.8691212  32.7932045
  12.4031561  15.9594781  33.0909512  13.1977671  16.9653279  32.2860500
  29.4833105  14.2764432  13.6661026  28.6357373  14.3249709  14.1082546
  29.3037098  13.7999160  12.8556129 113.4194023  41.5235667  79.8835087
 113.2594616  40.6809764  79.4584274 113.5254270  42.1407466  79.1595745
  69.7550106  90.2503300  79.1055584  70.5886412  90.4278374  78.6699152
  69.3397617  89.5792866  78.5637999  26.4209049  24.1117198   8.4022018
  25.8811014  24.4615704   9.1110298  27.2704762  24.5379216   8.5153839
  13.3444374  17.6983601  19.1873619  12.5988501  18.0809647  18.7248203
  13.3590620  16.7843682  18.9034054 104.7679615  67.2159767  78.7746191
 105.3848648  67.7844381  79.2356014 105.1152325  67.1575832  77.8845501
  65.9693861  83.6594582  87.8456688  66.5507507  83.6776447  87.0854568
  66.4284325  84.1726875  88.5105801  26.9189566   2.0260579  12.0398685
  27.6431435   1.5795047  12.4784729  26.7926949   2.8298718  12.5440189
  58.8431263  82.6636505  87.8697491  57.9456758  82.8497601  87.5937462
  59.3745995  82.8450871  87.0946121  56.8974894  12.0562703   4.6653721
  56.8953722  12.4483926   5.5385658  56.7869967  11.1187226   4.8235771
  20.2638310  45.6158788   1.1104080  20.9791964  45.2124173   1.6020367
  20.6917113  46.0286576   0.3602287 108.2584364   7.5348716  88.5641670
 108.8563472   6.9727283  88.0714893 108.7359888   7.7479892  89.3658829
  97.6704693  75.7874107  65.1900387  98.1519508  76.2386036  65.8834600
  97.8601646  76.2922430  64.3992233  31.4412420  28.5796792  28.7925503
  31.2340325  29.2750031  29.4169113  32.3971146  28.5295445  28.7984154
  66.4382744  81.3282681  68.7386942  66.8527222  82.1679878  68.9370251
  65.9343433  81.1182594  69.5249414  70.1439792  12.1166473  63.6681747
  69.6455127  12.9013400  63.8962650  70.9643680  12.2045760  64.1534185
  32.4204605   1.0911948  15.7138607  31.5242642   0.7906253  15.5631039
  32.4090927   2.0144421  15.4614422  93.0638790  76.2815666  73.7507772
  93.7566090  76.9333982  73.6436272  93.3745289  75.7159185  74.4577217
  50.8194828  76.7665863  84.7383213  50.2185488  76.4451981  84.0661430
  51.6911602  76.5863132  84.3863010  50.4741478  85.5764866  73.8034296
  50.7881069  86.4785862  73.8656092  50.2636909  85.3334427  74.7050238
  67.2237032  31.2533147  21.0113117  66.3570135  31.0517747  20.6585094
  67.0521277  31.8420750  21.7462608  81.4539051  66.8186426  83.4927177
  82.1769238  66.2536621  83.7652493  81.5747356  66.9238520  82.5490189
  71.5645552 107.7186012  93.0925274  70.7971621 107.9091644  92.5530624
  71.9946146 106.9882298  92.6477432  42.4023836  23.7858207   6.9332478
  42.2597521  22.9645306   6.4627430  42.1529406  24.4664151   6.3081047
  54.6003342  74.1638279  86.5763474  53.7719631  73.6882019  86.5146160
  55.1908684  73.6937571  85.9876823  38.7908095   5.2190739   8.3233616
  38.2315129   4.4977671   8.0350372  38.6244744   5.2901656   9.2633125
  70.8901930  85.9483814  81.5272713  70.0103474  86.3252926  81.5212154
  71.0290766  85.6498814  80.6284714  31.9728028  91.8324329  20.4503700
  32.0351445  92.5878145  19.8657867  32.6948391  91.9474460  21.0681698
  76.2166262  89.3825340  96.0494614  76.5702009  90.1927471  96.4165592
  75.4768753  89.6658516  95.5121326  25.4940735  15.6714778  95.9358501
  25.4576241  14.9093680  95.3578377  24.5975338  16.0066276  95.9471321
  90.3997993  73.5916805  89.7661591  90.8292007  73.0846357  89.0771294
  91.1076450  74.0927410  90.1712894  69.0576029  82.4126339  93.7481880
  69.8882008  82.1574402  94.1496944  68.4063005  82.2725964  94.4355202
  83.4440249  18.1625993   3.2702896  83.8238352  18.5542828   2.4838039
  84.1386526  17.6039082   3.6190102  69.0827894  87.9049397  77.4832630
  68.6190653  87.4493408  78.1858492  69.5056152  87.2067451  76.9832850
  26.7287701  26.6330010  13.5191128  26.1252611  27.2749764  13.8931248
  27.3455590  27.1547944  13.0057594  85.7862091 107.5660133  88.5574055
  85.3289986 107.2536087  87.7766323  86.6141891 107.0857239  88.5583591
  46.7873591   8.0129868  10.8198235  46.9838446   8.1405980  11.7479107
  47.0782774   8.8224751  10.3999016  32.2551745  14.2569691  12.7214787
  31.9107073  14.8354966  12.0411274  32.1481627  13.3757741  12.3633167
  28.2182980 100.3937531  85.8160400  29.0724850 100.7878017  85.6390667
  27.6866078 101.1153507  86.1519432  58.3422184 101.9821739  64.6770096
  58.2645607 102.2967148  65.5777121  57.4630594 102.0819569  64.3118286
   7.9421174  16.4019160  86.0628700   8.4634053  15.6562095  85.7655144
   7.9855000  16.3587623  87.0181179   6.9123286  13.9846427  53.1040737
   6.2978333  14.1530091  53.8184139   7.6805895  14.5134646  53.3193752
  10.5514466 109.2668535  11.0325024  10.6560551 108.7614347  10.2263710
   9.6282135 109.1623260  11.2626240  95.4058647  90.4038715  81.4892292
  94.6893120  90.6603050  82.0697689  95.0696850  89.6431541  81.0153866
  32.8479832   6.3368756  20.9195015  33.7649649   6.2713343  21.1860916
  32.8644865   6.8906171  20.1389000  80.4459953  88.2007408  65.4157448
  79.6314430  87.8755856  65.7991600  80.1848030  88.9781857  64.9222136
  83.0279541  71.2073851  90.7690239  83.0596733  70.6547022  89.9881458
  82.5546551  70.6827164  91.4147377  15.1009339  10.3953034   9.4888279
  15.5990332  10.1727111  10.2753231  15.7295769  10.3026301   8.7729713
 108.0052090  83.7318802  88.7878990 107.1357059  84.0507889  88.5460663
 108.5995197  84.1731358  88.1810093  95.3009969  99.0702821  33.4379265
  95.8186514  99.2253687  32.6478550  94.8135931  99.8836948  33.5684273
  34.9366158   5.6610781  31.9312927  34.0952080   5.3346593  31.6123745
  34.8559874   5.6396252  32.8848526  84.7238445  90.1957512  65.0905466
  84.6201420  89.6574879  65.8752489  85.6689358  90.2215576  64.9409914
  23.6505144  24.9845750  -0.1205471  23.5357922  25.5042130   0.6750938
  24.2186087  24.2615563   0.1454231  35.3876847  47.2230107  12.4014637
  36.1737221  46.6952950  12.5424835  34.8678845  46.7164380  11.7774269
  87.8276157  89.2995834  88.2213306  88.0089569  88.5881519  88.8355064
  88.2279015  90.0706959  88.6230659  20.8717983  25.3246075   2.5923321
  20.0894945  25.0780637   3.0857346  21.3444012  24.5018727   2.4658939
  58.8593578 102.6197243  79.7013521  59.5302725 101.9629574  79.5149088
  58.0344009 102.1353626  79.6686268  63.2765436  97.3601341  79.2935085
  63.1878042  98.1623363  79.8081207  62.5346661  96.8189716  79.5636702
  12.2424763  32.7787930   6.8044922  12.4823969  31.8651921   6.6495964
  11.5103882  32.7332169   7.4194691  64.9376822  81.3551044  89.4331837
  65.8460903  81.2493706  89.7157574  64.9943829  81.8842220  88.6375427
  72.9528666  78.5947418  90.6490993  73.7038994  79.1784382  90.7562351
  72.2487926  79.1646671  90.3397465  37.0315099  87.9058361  92.4404144
  37.1900964  88.8487244  92.4856949  37.8056693  87.5131130  92.8437424
  29.0197635 106.5509701  96.5373230  28.2570219 107.1234417  96.4552212
  28.6956215 105.6837463  96.2942219  43.1920671  41.0615969  84.7706604
  43.9553785  41.4153719  84.3141174  42.4825811  41.1184120  84.1306305
  79.8207378  84.5984840  59.9386215  79.6752930  83.7584400  59.5034170
  80.1197338  85.1812553  59.2406130  63.3533716 109.2228603  88.6960030
  62.5774431 109.4222927  88.1721783  63.6450005 110.0729942  89.0253544
  39.9312657  19.9579531   4.8925278  39.4494122  19.5139415   4.1947434
  39.8240011  20.8898789   4.7021458  92.3783046 100.6155063   4.0562317
  93.0637962 100.3931762   3.4262249  92.0094616 101.4360334   3.7292358
  99.9027538  80.5659962  45.2826834 100.1489735  80.5855751  46.2074661
 100.5436039  81.1318684  44.8521757  68.8101149  74.5366955  94.7254753
  68.8551474  74.8197317  93.8121796  67.8734207  74.5013332  94.9193573
  56.1341589  18.3306796  10.0186703  55.4950541  18.5920913  10.6815693
  56.3357752  19.1395432   9.5482227  56.2419271  71.7541695  85.6546211
  56.9827318  71.5580511  85.0810528  55.5210495  71.2327099  85.3015614
  25.7723253  59.8803956  10.4826996  24.8777407  59.8447377  10.8213398
  26.1696738  60.6252820  10.9338066  77.4267244  74.3499756  89.1647625
  78.2732201  73.9077711  89.2290783  77.5780296  75.2138424  89.5482635
  23.3613890   1.6603906  13.1454346  23.6140078   2.3225552  12.5020382
  23.9022988   0.9001452  12.9317162  57.8390503  62.4136591  88.9809608
  57.8189850  62.5456238  88.0331135  58.7444258  62.1665335  89.1692638
   7.9601973  12.1412761  25.7164261   8.0857247  11.5578944  24.9680016
   8.8357466  12.4777276  25.9073326  27.6415318  24.2995126   0.4774639
  27.7582234  23.8642127  -0.3670052  28.5267943  24.5488316   0.7427570
  35.4296463  16.5802771  19.1325638  35.4248017  17.1109444  19.9291775
  34.9469393  17.1039159  18.4930107  78.8045233  12.7199942  49.1452000
  78.3746737  11.8785817  48.9919350  79.5116537  12.5195224  49.7583839
  70.5188751  65.4370356  56.6689777  69.9083281  64.8860693  57.1587753
  71.2587023  65.5617380  57.2633982  70.2089405  88.3564377  47.5582409
  70.9865618  88.5336304  48.0875254  70.3723145  88.8121796  46.7325020
  27.8537148  32.8065354  28.8120529  28.1915634  33.5724408  28.3478519
  27.8475540  32.1112210  28.1542275  90.9094524  97.7392483  53.4044838
  91.6130733  98.3707333  53.5540724  91.0510254  97.0618057  54.0657377
  76.1594629  82.8289890  82.2798252  76.2987852  83.2288265  83.1382847
  76.6439152  82.0043278  82.3182297  72.3693466  97.9097939  93.1094646
  71.4211559  97.9796314  92.9986000  72.6765490  98.8162899  93.1210327
  26.1604326  31.9068295   7.7377388  26.2033528  31.6302068   6.8223927
  25.8075731  31.1472756   8.2011959  41.1149042  34.0781838  17.3944351
  40.6852072  34.8943002  17.6504395  41.5061110  33.7493569  18.2037994
  14.2869698   0.5460601  63.9727736  14.3898236   1.2260299  63.3069658
  13.3564221   0.5681949  64.1959715  90.2365780  87.4393463  71.2407160
  89.9352169  87.8483772  72.0519590  91.1460114  87.1985912  71.4173460
  81.8623638  90.3125477  76.3626575  82.7517796  90.3002262  76.7162323
  81.7871380  91.1646748  75.9331751  56.0778332  60.3382397  95.7696056
  55.9292650  61.0901928  96.3429451  56.9971132  60.4107237  95.5128765
  28.2283085  26.3000638  21.0240147  28.5973900  27.1789510  21.1109612
  28.4823054  26.0195214  20.1448032 112.3242664  76.1136484  94.7455406
 112.5333309  76.7708158  94.0817261 111.7296028  76.5616465  95.3471375
  47.9128551 102.9299259  82.9395199  48.4688950 102.5992489  83.6450005
  47.9026651 102.2249317  82.2921371  36.0562580  48.0432946  38.0788300
  36.9471997  47.7370698  37.9094669  35.7556217  47.5102383  38.8148281
  76.4516163  81.7992210  61.0234547  76.2632942  81.0132504  61.5363026
  77.2732067  81.6008759  60.5741405  72.0966166   7.7423627  28.7748501
  72.9150217   7.2574622  28.6685059  72.0655363   7.9582984  29.7068569
  61.5996569  30.2854497  13.4709236  62.2737520  30.5279404  12.8360817
  61.9916075  30.4794843  14.3223640 105.3669251  33.8219697   0.8497498
 104.8118342  33.9833314   1.6126892 106.1523736  33.4086282   1.2081501
  53.9607859  84.5662785  68.5088348  53.2292175  83.9768696  68.3254099
  54.7337151  84.0905094  68.2047510  31.7324227  48.0746037  23.8380215
  31.5445059  47.2658307  23.3617756  31.4335936  47.9017789  24.7308037
  42.3553770  37.0620400  20.3390286  41.8073576  37.6719243  19.8451206
  42.1324747  37.2276646  21.2550613  96.3792133  72.3373079  74.0093613
  96.5351391  72.2833157  74.9522305  96.9364834  73.0578756  73.7153053
  64.6419161  12.1235091  22.2257111  64.6731680  11.5926463  21.4298126
  65.5281180  12.0709235  22.5836346 103.9143181  74.0113688  94.0060520
 103.2294369  74.1549730  94.6591568 103.6630154  74.5681095  93.2690811
  20.0765770   2.5640971  18.2339451  19.3885582   2.8026444  18.8552067
  20.3075569   1.6646582  18.4660790  81.1683464  74.9061155  53.9145041
  80.5560970  75.5904293  53.6441326  81.3523960  75.0989866  54.8338270
  66.9846934  12.4428088   2.7278683  67.6399248  12.2782904   3.4059689
  67.3252123  13.1946952   2.2431538  62.7821272  81.8047673  10.8609459
  62.9694956  81.0362202  11.3998863  61.9288462  81.6198975  10.4685757
  65.0607603  41.9177396   4.8360893  64.4703596  42.6655728   4.9278805
  64.8515051  41.3545090   5.5812141  62.5538367  53.0809171  19.0850899
  63.3161085  53.2646710  18.5360786  62.1240824  53.9297444  19.1900799
  12.8862541  57.0278031   9.2701981  12.6966398  56.5516621   8.4617588
  12.1913069  56.7629201   9.8727867  92.6893044  80.0889683  84.8865700
  93.4403801  79.6145344  84.5301628  92.9559422  80.3273487  85.7744312
   2.8135174   9.7069318  47.9000065   2.6688879  10.5385930  47.4487183
   2.7207058   9.0439040  47.2158882  78.1692410  89.6764946  83.1056404
  77.7515268  90.4097366  82.6538563  77.6907921  88.9047146  82.8028774
   8.8344800  17.4040465  51.7492867   8.9093148  16.8531852  52.5285053
   9.5343815  18.0500274  51.8445158 114.1092491 104.7168922  75.0485134
 114.0233803 105.6668758  75.1284838 114.8915195 104.5914841  74.5113373
  20.2714079  36.7601735  12.6360104  20.5419701  36.7484242  11.7179272
  20.6938523  37.5380475  13.0002758  66.2775439  30.4120118   4.6702835
  66.4088076  31.0401875   3.9600727  67.1469420  30.0440175   4.8282787
  69.7313231  32.0005185   9.5056793  70.0644797  32.5684983  10.2004025
  69.0347784  32.5107819   9.0925285  78.8172167  42.6130540  10.9141418
  77.9417341  42.2729546  11.0987827  79.2669028  41.8911607  10.4749748
  41.7610949  36.7692525  23.3357117  41.8430060  37.6498277  23.7019035
  41.8643587  36.1864526  24.0879890   3.4320502  97.7262783  87.6804066
   3.5956626  98.3557892  88.3826733   2.6544432  98.0618095  87.2343349
  93.0260277  81.6248131  89.7518921  92.1350098  81.4104652  90.0282574
  93.4639740  81.9085217  90.5543518  47.1428347  74.0188456  70.1706743
  47.0982265  73.6631870  71.0582256  47.3214388  73.2588720  69.6168041
   3.3972489   5.0549083  80.8153248   3.7516724   4.2893462  80.3630829
   3.3348786   5.7266383  80.1362610  86.5022755 101.7911816  83.5307598
  86.9551945 101.7985058  84.3739986  85.6685829 102.2288609  83.7028694
   6.4782940 104.5442011  20.7923004   6.8145310 105.1037599  20.0922558
   7.2443329 104.3497755  21.3323185  62.1785372   3.3577449   1.6566917
  62.9271143   3.3664996   1.0602066  61.9381254   2.4338061   1.7257664
  53.1651324  58.7338311  29.9116394  53.1343382  58.3757073  29.0244934
  53.4255141  57.9936177  30.4598400  79.0801716 106.3030815  75.4626846
  79.0058661 105.4338551  75.0687790  79.9181843 106.2857246  75.9249210
  29.1992777  79.6145303   4.9527046  28.5818547  79.1198785   4.4138786
  28.8711088  79.5142419   5.8462879  72.6270788  49.0502793  20.2728912
  73.5800951  49.1165025  20.2127811  72.4366682  48.1364114  20.0611755
  69.6688128  76.8457603  96.3772583  69.2407942  76.7129660  97.2230625
  69.5271158  76.0249519  95.9056282  62.3755121  96.5046310  86.3603401
  62.8463459  95.7329559  86.6750908  62.0429277  96.2479877  85.5002499
  36.3812702  45.7345158  35.4973194  37.0735806  46.2991292  35.8410618
  35.6654757  46.3342149  35.2869770  63.4596842  53.8536889   7.9018852
  63.4633177  54.4302518   8.6659500  63.2830351  54.4361646   7.1631405
  51.2696856  33.1699521   5.9461758  51.0472410  34.0814359   5.7565662
  52.2228068  33.1693990   6.0344574  91.5947533  61.0675716  91.1667347
  91.1187553  61.8445873  90.8736229  91.7105198  61.1984444  92.1078491
  90.9475630  18.2681853   6.3028595  91.7108362  18.7961346   6.0685226
  90.2742213  18.5283953   5.6742546  97.4643898  92.4878693  86.8475628
  97.3829079  93.4207249  87.0460033  98.4053802  92.3463249  86.7440033
 114.9296284  94.6969223  76.3416290 115.2807617  95.5873871  76.3402271
 115.6459141  94.1564846  76.0083055  80.7446957  94.8629951  90.6676769
  80.7017040  95.4361248  89.9022293  81.6768169  94.6718311  90.7717133
 117.2007287  24.2123181  45.3104183 117.8241600  23.5791833  45.6663677
 117.0938123  24.8605305  46.0065624  34.7401064  52.7451569  20.0415585
  35.6711786  52.8380830  20.2433178  34.5979470  53.3256966  19.2939064
  38.3649939  64.0968854   1.6145870  37.7231186  64.4409711   2.2357437
  38.2117956  64.5946366   0.8114693  46.7443484  66.1594922   7.8440163
  45.8173006  66.1964185   8.0795071  46.7752093  65.5798966   7.0828602
  88.0772114 102.1426487  85.7580757  88.1342411 102.4631310  86.6582203
  88.6042690 101.3436317  85.7544613  24.4596499  37.4371678   4.7877476
  24.0530365  37.1304662   5.5981991  23.7992924  37.2780091   4.1133377
  45.9991282   1.8242175  21.7226383  45.7558649   1.9181973  22.6436302
  46.0939425   2.7229125  21.4070580  43.2916086  35.7079655  16.7621777
  44.0378016  35.1580483  17.0009586  42.5244635  35.1804406  16.9844887
 102.3907501   1.1680179  93.3708572 102.7904350   0.6976752  94.1024685
 103.1005890   1.7006068  93.0121040  21.7909210  45.9379250  22.0237038
  22.3158568  45.1599747  21.8353531  21.7117041  45.9482247  22.9775688
  88.2662010  78.3406115  75.4199171  87.4334717  77.8787613  75.5173302
  88.9315605  77.6662636  75.5569887  35.7424896  39.5608765   1.3403961
  35.4829472  39.3673474   0.4396126  35.6274145  40.5073888   1.4247105
  38.7189692  32.0236260  10.6673309  38.7015312  32.9055936  11.0389015
  38.4298676  31.4567239  11.3823673  90.9047794  77.3788261  87.0257187
  90.7197285  77.9262209  86.2626076  91.2586403  76.5685177  86.6590881
  65.7792204  62.1854932  12.5555584  66.2485903  62.6345975  13.2585785
  65.2715510  62.8751141  12.1278545  86.3996887  82.7487755  86.7078018
  86.4084244  81.8986702  86.2679386  87.0079136  83.2868767  86.2011147
  93.8726503   6.1356406  77.8641748  93.5895712   6.7145591  77.1563959
  93.7004549   6.6329341  78.6637211 116.8642330 104.2883396  83.2208824
 117.4174023 103.5428429  82.9874897 117.3992538 104.8039246  83.8243389
  44.9698973  78.8321781  85.2939510  45.7867479  78.9662790  85.7745838
  44.7185230  77.9308701  85.4956532   5.7703179  41.1375386   8.6701462
   6.1302870  40.3089291   8.9864895   6.4393204  41.7872292   8.8859436
  20.9511440  70.5374295   4.8486015  21.1976641  69.7491700   4.3647549
  20.8195561  70.2354676   5.7473347  76.5821856  22.4368817   1.2577793
  77.4368017  22.4513823   0.8268997  76.1218279  21.7022569   0.8520290
  41.9156981 102.8592587  88.4633636  41.1931133 102.3616600  88.0806255
  41.5373707 103.2723904  89.2395210  58.8412302  12.2763211  26.0275528
  58.2865065  12.1728570  25.2543709  59.0032023  13.2181556  26.0818264
  44.4928473  49.9750096   8.9083168  44.5655745  50.5714089   9.6534607
  44.8908442  49.1599709   9.2141411  51.1161154  65.4723031  31.4956829
  51.9771975  65.8816583  31.4107868  50.9940832  65.3645665  32.4389336
   1.1512314   1.2883906  87.1076488   1.1320912   1.7751842  86.2836933
   1.7028748   0.5280357  86.9238663 110.0696737   6.2565379  74.2354441
 110.4020149   7.1442561  74.1022396 110.2790577   5.7978015  73.4218407
  20.3102910  11.7581515  91.0998344  20.3160035  10.8228831  91.3034439
  19.6458088  12.1260409  91.6823769  52.9300135  19.7539050   2.8085777
  52.9851454  18.8275153   2.5740883  53.0914229  20.2188117   1.9875786
   1.8749493  43.2847173   2.7438805   1.9796293  43.6189038   3.6347172
   1.5544003  42.3902566   2.8597233  59.1145914  39.2191464   3.1982872
  58.1781595  39.4173867   3.2018539  59.5392054  40.0659329   3.3357307
  83.7699127  98.0303001  81.3458538  82.9463196  98.4021664  81.6615200
  84.4447899  98.6131668  81.6937447   1.7876374   3.4533172  70.4489088
   2.6476323   3.0388980  70.3788948   1.1658942   2.7302032  70.3666449
  75.0326967  96.8460274  92.9529095  74.1315842  97.1685600  92.9670715
  75.5165434  97.4629116  93.5020638  60.0131321 103.5918713  75.1943874
  59.9930000 104.0508175  76.0341454  60.8432627 103.8553524  74.7972822
   7.3713051 105.1345875  16.4740440   7.9819428 104.6338178  15.9331390
   7.7542626 106.0106804  16.5191338  91.3878345  81.9672298  76.2736559
  90.4964161  81.7976189  76.5783405  91.5582943  81.2751961  75.6346941
 104.5453072  96.8021965  89.5879841 104.5344830  96.0056496  90.1186752
 103.7153149  96.7838478  89.1115284  11.3709198   9.4998984  74.6685266
  11.7782914   8.8412337  74.1059971  11.5106904  10.3274779  74.2082930
  34.0439164   8.2086043  85.7315159  33.9237248   9.1129546  85.4418087
  34.0433728   8.2611899  86.6872692  35.0259608  51.4098222  14.1849300
  34.6128958  50.5604035  14.0297386  35.5379313  51.2847764  14.9839756
  80.9877014  77.6038551  92.1784592  80.9983635  76.6533995  92.2913551
  81.7993927  77.7985191  91.7099476  46.0968321  52.7572018   9.0079090
  47.0253008  52.6487881   8.8019154  45.9588640  52.2147900   9.7844288
  69.3184107  44.4151360   5.9951183  69.9304026  43.7335069   6.2727329
  68.7667006  44.5685345   6.7621395  16.6002863  15.4566628   5.2621338
  15.7316416  15.2469117   4.9190685  17.1979588  14.9115903   4.7503635
  93.3961391 107.5838089  84.6257877  93.8774395 107.1534538  83.9191246
  92.7798367 108.1631088  84.1776562  91.8461258   5.6132274  84.7794819
  92.3368055   6.1525874  85.3996086  90.9507686   5.9483867  84.8267365
  30.0755852  57.6615960   5.7834694  30.4477566  56.8645913   6.1609814
  30.4317921  58.3697278   6.3200256 111.1996347   3.2773261  83.8501644
 111.9514686   3.2594638  84.4423294 110.8903343   2.3717361  83.8283920
  36.5061223  13.8019900  87.1421528  36.8939530  14.6448093  87.3776913
  37.1247136  13.4191852  86.5200233  97.5345325  74.3791008  73.2435656
  97.6278782  75.3314304  73.2193136  97.2463989  74.1441393  72.3615217
  41.8994444  46.4962727   6.6908714  42.3054903  47.3544080   6.5685627
  41.3218039  46.3946206   5.9344074  79.8848867  77.7554178  73.5393858
  80.3393459  77.6597500  74.3763733  80.0320244  76.9229364  73.0904341
  89.5246011  58.5012598   2.1471378  89.9389917  57.8417160   1.5907929
  88.5861856  58.3838709   1.9994041  48.9031744  25.9678864  54.9121332
  47.9965353  26.2252903  55.0794077  49.2491245  25.7357168  55.7739067
  93.3272685  99.3135757  93.6175156  93.9879728  99.7215409  94.1772175
  93.8279260  98.9247770  92.9002953  40.5237770  19.4786084  88.4279728
  40.6282663  19.9744189  89.2400551  39.5999098  19.2284393  88.4172726
  27.4774408  15.5645418  87.0794392  27.7004743  15.9678936  86.2405205
  26.5519619  15.3347766  86.9962025  77.7058357  91.0648818  92.3262501
  78.0435913  91.9599421  92.2943401  77.1186178  91.0034699  91.5728378
  24.6188879  43.7585926  67.5604868  23.7538886  43.7715054  67.1508074
  25.0702524  43.0244303  67.1439362  44.2173535  29.0403368   2.8636810
  44.0573484  29.3176414   3.7657520  44.8589343  28.3341386   2.9404232
  65.6532866  48.6697234   0.5481312  65.6727392  49.0409424   1.4302036
  66.5721184  48.6365916   0.2819035  24.8596025  15.2250075  86.6407108
  24.0915203  15.3422403  86.0816574  24.6478438  14.4646955  87.1822929
 108.1596077  82.9999990  61.8227386 107.9617537  83.5185547  61.0428762
 108.3045686  83.6488433  62.5113726  50.6847906   9.7664660  49.1687441
  50.6013489  10.0734448  48.2659531  49.9502277   9.1640002  49.2857265
  76.8378288  69.4284560  12.2509834  77.4999077  69.8506524  11.7035934
  77.2675735  69.3096949  13.0979988  47.5616407  13.5546267  90.9810162
  48.3001852  13.0935597  90.5832672  46.8673420  13.5066545  90.3238392
  25.3848600   9.9196249  84.4745350  25.0343561  10.8049762  84.5721722
  24.8991179   9.5496720  83.7373638  73.9164669  41.3109864  15.3547165
  73.9397532  40.8941437  16.2160751  74.7723037  41.1179020  14.9719784
  85.1227743  58.9613699  27.5091431  85.2127392  59.4352995  26.6823837
  84.1901142  58.7536149  27.5658581  17.6793450  86.2711878  66.5118551
  17.3289459  86.4574332  67.3829269  17.9958790  85.3696341  66.5687561
 111.4919055 107.7989874  88.6435986 110.5374087 107.7508978  88.6970329
 111.6616405 108.5075627  88.0228329  89.1861744  13.8183415  57.1569014
  88.4315200  14.3125534  56.8367672  89.7475405  13.7140000  56.3886452
 117.6603240  29.2613769  95.5998802 118.2584722  29.5196891  96.3011169
 116.8918501  29.8185802  95.7231903  41.1332369  21.4668989  82.7236557
  42.0003033  21.8167520  82.9286671  40.5241966  22.1267748  83.0551243
   9.8723608  40.1602888  76.4432240   9.8454320  39.6606350  75.6272268
  10.0500119  39.5060182  77.1189451 111.2255801  93.1957908  83.4249306
 111.6790689  92.8612108  82.6512146 110.7595099  92.4370773  83.7761593
  40.3897619  16.2332213  64.6537018  40.2531910  15.6668389  65.4131699
  39.8549056  17.0066607  64.8324490 109.8247708  93.8573463  78.7229633
 110.1196016  94.6251125  79.2126989 109.9598444  94.0924353  77.8049660
  71.4823771   5.2598351  53.4196615  70.6694031   5.2500588  52.9144764
  72.1637869   5.0501114  52.7809668  45.4155445   7.7367598  84.7853470
  44.8968983   8.0590421  84.0482140  45.5836344   6.8178999  84.5763683
  69.6433926  26.7808580  64.2874670  69.9840403  27.6550722  64.4770479
  68.7507963  26.9336700  63.9773703  30.5778527  20.4247880  89.7779751
  30.5614543  19.6772933  90.3756428  30.9593725  20.0782132  88.9713955
  27.0753646  36.6440272  46.3620901  27.3682570  36.6180968  47.2730064
  26.1989880  36.2595415  46.3812494  49.5894259 110.7240714  44.2766428
  49.9302500 110.1338292  44.9487162  49.0635031 111.3604275  44.7610950
  95.6409103  49.2717077  16.3615963  96.1852056  48.7421252  16.9442722
  96.2445099  49.5826538  15.6869003  74.9638111  66.2317445   8.3014938
  74.7668964  66.7655541   9.0712330  75.9199936  66.2114240   8.2623550
  83.8942415  94.1133835   7.3066685  83.8901264  93.6167576   8.1249496
  83.4371311  93.5500004   6.6822693  44.8263771  82.9137875   6.2974426
  44.5111680  82.0103814   6.3244698  44.4801897  83.3122398   7.0959541
 104.5518435 107.3753853  78.2287693 105.1873125 107.0855237  77.5742531
 103.8439692 106.7332191  78.1761599  57.3901600  78.4105326  20.1164887
  56.9680316  78.4295632  19.2576096  57.1625072  77.5532510  20.4763195
  14.1672581 108.9044021  49.0626669  13.2542866 109.1378419  48.8946724
  14.3840521 109.3568267  49.8778677  93.3603514 101.9836111  89.5899391
  93.6919273 101.8730767  88.6988354  92.7895106 101.2278600  89.7285557
  20.2553194  78.1330652  69.1414261  21.1107224  78.5055561  68.9274883
  19.9037569  78.7129350  69.8169947  47.8005934  16.8742728  88.3479118
  47.9000521  15.9995115  87.9722309  46.9633150  16.8424070  88.8107014
  84.5184690  66.8851544  17.2822640  84.7899467  66.9682934  16.3681480
  85.3258449  66.6812815  17.7542946  31.1211890  93.5601170  80.0145721
  31.6367644  93.3021684  80.7786846  30.4866713  92.8520806  79.9036503
   1.1312836  76.4477796  75.4020071   0.9843128  75.8268852  76.1155367
   0.2926415  76.4872093  74.9422693   5.1497018   6.3645554  43.5986900
   5.9083587   6.1841410  43.0435991   5.2432883   5.7610643  44.3357611
  26.3968801  23.7336540  58.3409119  26.3900566  22.7850962  58.4690619
  26.2459087  24.0944624  59.2145538   0.7885807 108.0476416  95.4287338
   0.3024977 108.1351898  94.6087933   0.2763050 108.5462643  96.0652733
  64.3959576  62.7285965   0.7681534  65.1964933  62.2071661   0.7091114
  63.7177259  62.1700110   0.3883907  37.9935217  10.7419705  66.4544344
  38.3798671  10.4137993  65.6424809  37.7285743   9.9541360  66.9291496
  10.8859408  44.4552755  52.5023556  10.1446021  44.9743032  52.8142166
  10.7351375  43.5815096  52.8629446  40.1708239  95.5855329  81.6066074
  40.7621878  94.9503894  82.0104790  39.7786253  96.0510630  82.3453140
  70.0483233  69.1683413  31.8887207  69.8078591  68.2642986  32.0914909
  70.9261162  69.2709209  32.2564003  66.7942173  68.7863876   4.1962406
  66.9850451  68.4829630   3.3086845  66.6840941  69.7330572   4.1072342
 103.2234372 100.9380324  85.0239086 103.9241231 100.4906471  85.4983711
 103.6745060 101.4271421  84.3357658  47.7326679  37.8607416  74.4471741
  47.8998232  38.4812927  75.1565409  47.7012491  37.0067739  74.8784304
  39.4470286  11.6140819  76.1540413  40.3072214  11.2498367  76.3629055
  38.8254023  10.9711051  76.4952040  97.3204983  97.1415777  88.8224125
  96.4813591  97.5887449  88.7123299  97.9160489  97.6006682  88.2301426
  91.1401201 110.6380888  72.8782463  91.7812456 111.1215016  73.3993053
  90.4495491 111.2755331  72.6965666   3.4387872  49.0187311  60.8191633
   3.7685663  49.1885471  59.9367571   2.5546545  49.3855333  60.8191395
  59.5783073  75.2811970  -0.1143005  60.2812320  75.9032323  -0.3019073
  59.9170310  74.7464062   0.6036827  39.4832730  20.7451272  73.5680771
  39.6804905  21.6650772  73.7442207  39.7022176  20.2929735  74.3828487
   0.0962388  62.1257009  20.8966991  -0.4317297  61.7113908  20.2141830
   0.9863459  62.1247263  20.5446503  12.4751013  97.6467652  85.8346939
  13.2388991  97.3108191  85.3656673  12.2722548  96.9685264  86.4789581
  60.1520831  46.5416385  17.2413132  60.4366142  45.8057888  16.6992828
  60.9481246  46.8339957  17.6852486   6.3102453 106.2731386  75.2798748
   5.9904307 105.8972711  76.1000443   6.8851202 105.5998529  74.9159575
   5.9454029 100.4685743  70.1720572   5.1998442 101.0422714  70.3488159
   6.1545342 100.0791461  71.0210800  92.2718412  64.2790194   6.3465855
  91.3834364  64.4694902   6.0454437  92.3275835  63.3234735   6.3390705
  43.8057899  18.5364866  65.7271433  44.4446898  17.8963590  66.0406303
  43.6672258  19.1212177  66.4722061  89.4495422  80.2656938  16.1408302
  89.6271545  79.3272950  16.2048218  88.5101206  80.3435399  16.3071510
  25.6071901  51.5982389  71.7581892  25.8623433  51.2286520  70.9128857
  25.7767534  52.5362062  71.6704845  54.2103148  15.3912270  57.8807211
  53.5702133  14.7630107  58.2151461  54.1375160  16.1432219  58.4684563
  33.7425065   5.6311470  81.8606472  33.2643270   6.3908941  82.1928596
  34.6424556   5.9406620  81.7580700  25.5537152  43.4370756  95.3904915
  26.3337421  43.2014656  95.8927631  24.8248291  43.2720661  95.9885979
  41.8932867  45.3539515  68.1585932  42.8417110  45.3735018  68.2864380
  41.6316652  44.4773293  68.4402180   7.7363556  77.7405329  64.0095425
   7.6302260  78.0419416  64.9118280   6.9041889  77.9525728  63.5867357
  19.5764828  46.1365604  74.9489069  19.1523314  45.4613256  75.4784203
  19.4994390  46.9345760  75.4718494  12.6424330 106.2171186  67.4358511
  12.7536648 107.1566023  67.5815582  12.9689902 105.8099825  68.2382441
  45.4281700  58.6242490   7.6375553  45.9871120  58.9679884   8.3344433
  44.7557796  59.2947866   7.5171253  85.8615190  87.0441367   5.3614399
  85.6555778  87.9781868   5.3984711  85.7735140  86.8159749   4.4360039
  60.2695019  60.9909298   1.8335793  61.2116915  60.9998579   2.0021889
  60.1665670  60.4100146   1.0798046  50.2437669  98.6312010  14.1911194
  50.3488821  98.3743335  13.2750389  50.2436692  99.5882322  14.1730187
  76.9293768  55.0376972  15.6184265  77.6975018  54.6548432  16.0422680
  77.1124274  54.9666417  14.6815846  95.2112085  49.5450957  29.7758553
  95.4471809  48.6178978  29.7466251  95.9995777  50.0022270  29.4830486
  52.6714611  16.9504523  44.7617674  53.3344889  17.4056065  45.2808666
  53.1551695  16.5894091  44.0188599  42.4686384  49.6460247  82.0480442
  41.7184782  50.2273130  81.9231510  42.4163389  49.0275621  81.3193417
 100.6528074  84.1908027   1.8148777 101.3094837  83.4946562   1.8347523
 100.5327827  84.4331218   2.7330849  36.8536845  57.4198519   5.9966824
  37.5436695  57.1672504   6.6101524  37.3224250  57.7835116   5.2455017
  89.6149821  11.0015213  89.0991402  89.1861482  11.8572259  89.0889835
  90.3443547  11.1063707  89.7100830  23.0634928  18.7200916  72.9812765
  22.5937581  18.4130073  72.2058582  22.7897096  19.6317828  73.0817413
  58.0026770  10.5127048  61.2847948  57.0720434  10.6962311  61.1564541
  58.4119081  11.3763344  61.3386726  41.1832809  17.0371473  57.8190804
  40.2884912  16.7839336  58.0459309  41.1389923  17.9847729  57.6915026
  56.5987635  16.0538781  82.7024651  55.7534838  15.8486903  82.3029232
  57.0547628  16.5767694  82.0430088 106.3110525  97.1042730  12.6919529
 106.5925485  96.2108900  12.4948380 106.5947181  97.2511913  13.5942719
  32.4380183  15.5672109  74.3274069  31.7601538  15.0648379  74.7794628
  31.9618821  16.0743880  73.6699152 110.2307255  88.2392790   0.6281254
 110.1265747  87.8262712  -0.2290848 109.4978029  87.9054643   1.1454460
  62.2480774   8.4915435  66.9929314  62.7230787   9.2839086  66.7424059
  61.3662386   8.7977779  67.2046328 108.8298858 107.9726322  88.7711239
 108.4323443 108.8364009  88.6611462 108.6378945 107.5146593  87.9528141
  79.4912559  72.2199477  24.4367001  80.0038940  72.4645127  23.6662361
  79.5469839  71.2648894  24.4681809 100.3245527  54.8573024   3.4357712
 100.0491363  55.7031698   3.7891647  99.9887115  54.8513901   2.5394413
  60.9185410  28.7462068  65.5265617  60.4542065  28.6193299  64.6992016
  60.7905531  27.9250097  66.0014200  58.1906700  11.4843035  71.4099455
  57.4503994  11.1983037  71.9451427  58.9540195  11.0778475  71.8202209
  62.4133832  59.6256499  10.8578941  62.7114207  59.4234888   9.9710247
  62.9896933  59.1149600  11.4264843  44.8476553   1.6195399  61.6126060
  45.2888012   0.7703850  61.5889740  44.8869467   1.8843639  62.5316048
  40.7648754   8.0103415  85.0913620  39.9382591   8.0145758  85.5739784
  41.3464022   7.4611747  85.6171608  51.5048838  11.2337863  88.5120392
  52.2386837  10.6583905  88.7281227  51.6287994  11.4425468  87.5861359
  43.6999512  28.7521410  72.5167465  44.3922806  28.0914164  72.4978495
  43.5790920  28.9987087  71.5997791  46.3464087   4.0210015  12.3511860
  46.0739630   4.5340735  11.5904209  47.1687906   3.6117560  12.0820210
  12.1643126  13.1223428  67.2794533  11.6680014  13.1002367  66.4612722
  12.2892737  14.0542722  67.4586821 113.6947621 103.9569337  82.9408646
 113.7155713 103.0539669  82.6239300 114.6159352 104.2074389  83.0110073
  68.5828257  38.5733581  80.2635860  68.9981794  38.0267000  80.9305763
  68.7075377  39.4693208  80.5765247  23.2546473   4.1279477  56.1641359
  24.0817952   3.6486709  56.2126303  23.3019614   4.6040657  55.3350973
  31.3255215   1.7524110  83.6271858  31.9653296   2.4433756  83.7987900
  30.7063532   1.8132815  84.3546200  58.7651825  60.1815605  95.0582695
  58.3525705  59.3199301  94.9985313  59.1038275  60.3464794  94.1782951
  14.8343819 102.9138930  70.4832268  14.3407410 102.2340424  70.9418726
  14.2911452 103.6981435  70.5611706  42.7157402  11.6540515  82.2081184
  42.3066711  11.8425262  81.3634968  43.5151100  12.1805894  82.2098923
  15.9772301  49.5934582  62.7327538  16.8712604  49.9199295  62.8345299
  15.8727837  49.4714069  61.7891312  25.4863930  39.9668741  85.0000858
  25.1944423  39.0840602  84.7728443  24.6890879  40.4193878  85.2753544
 109.5569927  50.8846955   9.7172234 109.4959337  51.7919029  10.0163528
 109.6259147  50.9506656   8.7647888  82.7318096  25.9982705  82.9310989
  82.0098400  26.6125059  83.0641651  82.9376888  26.0689473  81.9989777
 118.2315625  93.9120097  72.0980215 117.9093255  93.1002433  72.4897194
 118.1519927  93.7708099  71.1546421  80.3486473  59.2845561  23.6510918
  80.9165031  59.7257750  23.0193493  80.4802925  58.3518507  23.4809086
  75.2689201  67.5721945   4.9858448  75.7430631  66.7502238   5.1114819
  75.4092914  68.0564453   5.7995007  77.3239565  12.3160470  93.7872696
  76.9793892  12.0356369  92.9394054  78.2477856  12.0665145  93.7647533
  15.5419749  87.0816440  80.2923679  16.2926358  87.6154585  80.0320148
  15.1229018  86.8388076  79.4667482  50.7923603  22.0803595  91.2878609
  50.8212376  21.3983130  90.6168842  50.3105974  21.6826415  92.0130920
  64.9933767  18.7867093  88.2598209  65.0553274  18.0225658  88.8329506
  64.0592146  18.8662612  88.0668449  47.0452642  19.6966624  84.6959782
  47.7935171  20.0927091  84.2493153  47.2289038  19.8209894  85.6271362
 108.5759813  61.5028377  20.3187439 108.6873943  61.9910570  19.5029804
 108.4584266  60.5946420  20.0401852  84.3376714  63.9651056   0.9653256
  84.0591747  63.1420250   0.5638096  83.6169082  64.5711793   0.7938168
   3.4926909  82.4282498  75.6951332   3.3396643  81.4833732  75.6905270
   3.9002388  82.6007457  76.5438843  65.9319622  90.2787997  21.0749313
  65.2391226  89.6254541  20.9782669  66.4354378  89.9835469  21.8335888
  63.6995506  34.1456461  92.8835583  62.8927374  34.6594501  92.9194355
  63.4054708  33.2487774  92.7242565  53.3844614  34.1725230  81.0625553
  54.0610075  34.2044520  81.7389488  53.8320065  33.8218522  80.2925110
  73.8482189   0.2284084  58.9927578  74.8014545   0.1515605  58.9519262
  73.6743879   0.5948773  59.8597717  97.7086241 105.0140526  36.8856499
  98.1711323 105.2023269  36.0690281  97.3863537 105.8658649  37.1802494
  67.8311640  90.3158905  15.1301739  67.1003229  90.4418565  14.5250008
  67.4293334  89.9499489  15.9181091  40.0703764  20.1826692  95.2007675
  39.1352344  20.0411892  95.3481770  40.2554131  21.0210371  95.6240082
  36.8651605   7.5118637  89.2793941  36.1814594   6.8649501  89.1053581
  36.3965940   8.2642502  89.6407700  53.8246346  30.7657146  65.5371428
  53.7001324  29.9897504  66.0835981  54.1697979  31.4276767  66.1362267
  52.5179958  33.7957644  71.0809708  52.1575689  34.5240903  71.5867996
  52.4374819  34.0746260  70.1688385  26.5304201 105.3219087  81.1235237
  26.8488043 104.5305754  80.6891727  27.1823185 105.5021329  81.8008518
  47.3566771  24.9219871  92.6007080  46.8898106  24.7283006  91.7878437
  47.6664591  24.0699673  92.9078388 116.5678484  48.4071411   9.7201702
 115.6541807  48.6886646   9.6734116 117.0722086  49.1978587   9.5288155
 100.9352714  75.1070608  17.8299114 100.1738245  75.3182615  18.3701202
 101.2707073  74.2895819  18.1979343  95.0109244  -0.0014728   2.3700211
  95.6857885   0.6616790   2.2250149  95.2131189  -0.3644031   3.2323620
  39.5640421  39.9337816  88.3158493  39.1447639  40.6906176  87.9064083
  40.4987144  40.1395512  88.2990074  71.8326813  86.3277199  34.0849754
  71.6737682  86.6595127  34.9686596  71.7624504  87.0994927  33.5231373
  35.7786298  73.0172920  89.4301796  34.8923302  72.9873991  89.0698910
  35.7008457  72.6077127  90.2918243  49.2031145  17.2402132  81.2139988
  50.0195837  17.2455716  80.7144260  49.1469145  16.3540840  81.5715599
  74.4278294  67.2460128  13.8919899  74.3840868  67.0713939  12.9518673
  73.9350349  66.5294410  14.2918751  45.6091690  33.7841368  76.6935349
  45.3689814  33.2558489  75.9323168  45.7735157  33.1447124  77.3866177
  67.2995383  40.3170087  34.5742962  67.1826154  41.2546303  34.7273514
  68.1165559  40.2551617  34.0794346  78.4008199  60.6384502  12.9799912
  79.1140467  60.6645082  12.3421356  78.4224421  61.4989211  13.3987400
  50.3259993   7.6865077  86.4631176  50.2493048   7.9214060  85.5383587
  49.5474434   8.0648428  86.8717003  39.2588878  14.1056168  94.6942806
  39.9473906  13.5079670  94.4027233  38.7866640  14.3355918  93.8940620
   6.9234818  95.9668560  72.0246601   5.9986084  95.8247478  71.8230534
   6.9184654  96.4067705  72.8747654  53.2309437   6.3658786  93.9712906
  53.7513685   5.7266611  93.4846783  53.7555981   6.5605032  94.7478771
  28.6046124  41.4810944  52.6665449  28.9330554  41.5368319  53.5639000
  28.0667853  42.2656012  52.5591850  79.1093761  85.5581643  11.1406395
  79.4700033  84.8184444  11.6295120  79.5467645  85.5192234  10.2901146
   0.3541702 106.4628698  83.6962509   1.0220354 106.6682960  83.0420494
   0.8495491 106.2754555  84.4935608 115.8282341 108.4918142  73.5303879
 115.9607566 109.4239692  73.3578873 116.5476144 108.2516659  74.1143799
  46.5346527  26.3564897  64.9580193  47.2840214  26.8267345  64.5925760
  46.4024878  25.6177902  64.3638039  50.4220247  37.6658988  83.7914658
  51.3776922  37.7192283  83.8006496  50.1360035  38.3985043  84.3371010
  48.1371927   9.4765109  51.6053629  48.6163378   8.6654031  51.4357901
  47.2163105   9.2153454  51.6045189  20.7675982   0.6268187  71.9691896
  21.4931226   1.1544478  71.6353416  20.1259375   1.2679973  72.2747946
  34.9403596  16.5228581  70.5083752  34.7608781  15.6920803  70.0681162
  34.2550349  17.1130097  70.1948738  84.0610296  68.2056703   1.5377209
  83.5478002  68.1418957   2.3431847  84.7818882  68.7952329   1.7590973
 108.6511165  72.7006342   3.5787365 108.2426721  72.3220863   4.3572685
 109.0262491  73.5270645   3.8829014  70.3375387  21.0758734  91.9124126
  70.7720518  20.6331348  91.1834335  70.4418898  22.0082879  91.7228222
  29.4541669  90.5308892  11.2421867  28.6593229  89.9989940  11.2814495
  29.7175825  90.5003859  10.3224537  84.1458446  62.6245834  10.1856300
  83.5822756  63.0692734  10.8187744  84.0967018  61.7001595  10.4290554
  42.7395582  21.9345188  44.3482828  43.3746099  21.2548184  44.5739985
  43.0807066  22.7277374  44.7613859  57.7733898  26.9224572  67.6788235
  58.2825708  26.5944910  68.4200478  58.2538223  26.6229868  66.9069862
  33.5904234 100.9464211  84.1104984  34.3790596 100.9865160  84.6514988
  33.5214775 101.8187709  83.7225819  25.7216280 109.5597079  69.8476410
  26.2740486 108.9669330  69.3380547  26.2705439 110.3294901  69.9971533
 111.9205392 102.1735741  86.6178703 111.2055338 101.5877349  86.3692856
 111.9531621 102.8231091  85.9155369  25.5092573   9.1860747  89.6460056
  24.5750737   9.1039246  89.4542217  25.9255409   9.2497593  88.7864208
  45.8532953  41.7524052  64.8520613  45.6804514  40.8302498  64.6623468
  46.7842007  41.7810774  65.0730276   6.4899081  94.7220487  86.4601326
   5.5451744  94.6827812  86.3112354   6.7102879  93.8660033  86.8273544
 115.2927072   7.7243793  77.5896549 114.7203796   7.1379101  78.0843544
 116.1689971   7.3565829  77.7039957  35.3353470  98.7215907  81.8937588
  35.2379053  99.5664198  81.4544392  34.4675415  98.5369308  82.2529888
  42.7314854  43.9877844  85.6325436  42.0571566  44.0659237  84.9577045
  42.9142809  43.0494499  85.6809616  40.9156227  16.9094169  54.3556309
  41.1413860  17.7822459  54.6772385  41.5950060  16.7081535  53.7120724
  12.9129207  13.5761917  34.9521327  13.7835598  13.9739490  34.9551988
  12.4311662  14.0594804  34.2808819  81.9504148 106.7882683  14.3546078
  81.8148548 106.4473535  13.4705040  82.8834278 106.6553785  14.5221016
  21.2056099  70.7679476   0.3628609  20.2923905  70.9876706   0.5472157
  21.3557755  69.9504246   0.8375618  66.8262154  59.0532147   3.7579319
  67.1286160  58.8581766   4.6449158  67.3120982  59.8386718   3.5065243
  79.3813450  70.9244146  27.8645203  78.7699277  71.5697755  27.5096867
  79.0200001  70.0795080  27.5965759  72.5859529  73.1382789  28.4342072
  72.5661833  74.0939881  28.3845875  73.5129077  72.9229130  28.5371754
  49.3830061  43.0194235  45.1839924  48.9791250  42.3519230  44.6294212
  49.3167686  43.8267088  44.6739578  77.6323605  22.5324512  36.9725394
  77.6800823  23.1337142  37.7158022  77.8679848  23.0684972  36.2153292
  87.5432331  72.4740709   6.8993828  88.1656486  72.1598269   7.5551865
  87.7983600  73.3833553   6.7433617  53.0182219  35.9421468  74.5697021
  53.6275816  35.3348756  74.1500139  52.2131872  35.8658385  74.0575218
   8.5862577  47.4251509  56.5732193   8.0849272  47.9244423  57.2178936
   9.4635898  47.8066587  56.6043758   9.0751666  32.5995922  72.6624727
   9.5183563  33.3668280  72.3003101   9.0534639  32.7587414  73.6061001
  47.8506327   5.5954778  56.9088173  48.5587358   6.2264681  56.7797136
  47.1221352   5.9446192  56.3953733  25.0574422  37.3712206  71.9738960
  25.1168299  37.5015259  72.9203224  24.3234730  36.7672825  71.8608618
  57.9135847   6.6665858  47.4841022  57.6605368   7.3559225  48.0981159
  58.8003874   6.9022787  47.2115946 117.7125348   8.9894587  20.1199410
 116.8630875   9.2262704  20.4922173 117.6515068   8.0469519  19.9643967
   5.2205104   0.3755476  96.4162064   5.8939832   1.0519887  96.3448334
   5.6765676  -0.4395334  96.2067127  33.4985280  27.3086047  83.8141441
  34.0737081  28.0678296  83.7194061  33.8127208  26.6867065  83.1578255
  73.2234621  14.4487286  58.7762070  72.9797268  15.3727436  58.7212467
  72.9949188  14.0893400  57.9189777  25.0627512  86.2844707   7.2165939
  25.7003040  85.8201386   6.6742298  25.2758164  86.0240604   8.1127045
 104.3096484 100.1436181  70.6639194 103.5116590 100.2547891  70.1471138
 105.0186337 100.1880712  70.0223637  44.6028137  31.2828231  56.3357925
  44.6178627  32.2282410  56.1868286  45.1913643  30.9261346  55.6704998
  94.9445278  55.0953879  11.6950390  94.2378647  54.7683832  11.1383316
  95.6697065  55.2568802  11.0914967  77.7315504  62.8560551   0.5616829
  77.6423842  61.9057132   0.6333134  78.5208184  63.0610295   1.0629437
  99.0436012  78.6752941   7.8576061  99.4879753  78.1653763   7.1802971
  99.4267017  78.3676292   8.6790726  53.9242380 104.9797959  64.6084356
  54.3014067 105.2307607  63.7652302  53.7167471 105.8112086  65.0349712
  15.2281922  66.3649030  71.0967064  16.0370034  66.0689349  70.6790304
  14.5696657  65.7265277  70.8227491  65.4298878   7.5389177  82.5491333
  65.4661179   7.6180613  81.5958977  65.9359312   8.2850200  82.8708172
  97.4506075  39.1293158   6.4434120  96.9347412  38.7986924   5.7080147
  98.2592327  39.4497849   6.0438511  50.0104237   6.4992386  90.0721931
  49.5281887   5.8271337  90.5538082  49.3350172   6.9878000  89.6016979
   1.8212908 107.7017365  70.3757572   0.9674948 107.4269463  70.0414610
   2.4198645 107.5708927  69.6403551  48.6725140  32.4720836  77.8798771
  49.0138340  31.5920615  78.0389261  47.9835033  32.5837469  78.5348797
   4.0239399 102.3273713  71.0625219   3.4449309 102.7115883  71.7208195
   3.4955948 102.3012985  70.2647734  69.8914081  51.2394636   9.7897884
  70.4520947  50.5656739  10.1743290  69.0777380  50.7818665   9.5781872
  33.7491322  42.7776051  66.2386656  33.0215621  43.3853197  66.3711691
  34.2975807  42.8876066  67.0154142  36.6267967  19.9777174  53.2853460
  37.1999073  20.5323219  52.7560139  37.1898723  19.2605901  53.5767317
   8.8731503  62.8940201  72.1310949   8.0321288  62.9268456  72.5869846
   9.2283726  63.7784243  72.2198343  57.2904539  29.9857569  95.8302498
  57.9232931  30.7029295  95.8678627  57.5624228  29.3895149  96.5279388
  61.2187195  33.6568046  44.7947979  60.5539942  33.8893080  45.4431152
  61.6538143  34.4845462  44.5904350  71.4010477  10.7666767  78.6758709
  71.5623951  11.7027390  78.7941456  71.9887352  10.5102611  77.9651642
  76.9492275  49.8565771   4.1956112  76.7817766  50.5436535   3.5505364
  77.6783282  49.3563624   3.8289616  21.6160822  19.7814906  91.2761307
  22.2744918  19.0964890  91.3923264  20.9207010  19.5523846  91.8927193
  57.6548100  38.0473971  73.3504105  56.7362595  37.8463149  73.1713629
  58.1290293  37.2605371  73.0817127  98.4549124  71.1322881  10.7592365
  97.6404030  71.6350819  10.7563564  98.3266813  70.4647328  10.0853226
  60.4825830  32.8549147  80.1358986  60.8312798  33.6170030  79.6734428
  60.1815987  33.2015014  80.9758472  71.7195303  74.8238076  23.0374119
  71.9155914  74.8167612  22.1005413  71.3255102  73.9679302  23.2061073
  65.8704216  82.0035388  12.0164082  65.5157072  82.8410627  11.7181465
  66.4296705  81.7104508  11.2969849  48.0617809  23.3019710  94.8316956
  48.0359030  22.3965645  94.5221710  48.9759016  23.5653329  94.7255707
  41.8131971  27.7691031  75.8905411  40.9162760  27.7468896  76.2241173
  42.3600817  27.6367617  76.6649055  81.9408304  73.1957890   4.9723694
  81.6148836  72.8922333   5.8196327  81.2972814  73.8441314   4.6864864
  54.5020866   2.2005758  65.0939512  54.5953465   2.5425059  64.2047834
  55.3113127   1.7135082  65.2493620  15.6870210  39.8780894  78.4469461
  15.4806733  39.1879058  79.0772629  14.8337936  40.2075672  78.1646729
   3.1991449  20.0747681  85.2640057   3.0191588  19.8618472  84.3483162
   3.1435612  19.2352712  85.7205009  94.0169269  81.7879535  26.6812679
  94.3072206  81.1698844  26.0104820  94.6571142  82.4986555  26.6452477
  13.0666035   2.3468024  32.7248356  13.0473536   1.7001540  33.4303162
  13.9426964   2.7292258  32.7743027  10.9477413  38.2163835  54.5449066
  11.5063775  38.3058453  55.3170156  10.1098192  38.5954332  54.8103094
   8.7058657  96.7996986  96.0756397   9.4692200  96.6798289  96.6405773
   9.0282267  97.3297841  95.3467178  66.8596369  67.2256233   9.4376442
  67.3529941  67.8000511  10.0231907  67.3732549  66.4185478   9.4051144
  39.8384976   0.8546492  79.9568796  40.0285673   1.0993306  80.8625507
  40.6753635   0.5429181  79.6123314  70.1757050  13.1512642  71.9484377
  70.7477570  13.8471651  72.2720289  70.6945944  12.3522496  72.0409727
   9.0193051 101.9582749  94.7414589   8.9263361 102.1855123  93.8162804
   8.3962124 101.2443073  94.8765087  83.6287467 102.8712017  92.2998524
  83.4590040 103.4145839  91.5303326  83.6825825 103.4933932  93.0252552
  31.4740109   6.9030941  87.7912140  32.2001314   6.8658870  88.4137821
  31.0883689   7.7689743  87.9244995  68.3975822  51.8451046   5.5057308
  68.6362344  51.0242467   5.9363911  68.3945066  51.6337140   4.5721695
  59.2789078  22.4097347  58.1447601  58.6643600  22.3078156  57.4180031
  59.6138811  21.5267396  58.3007956  23.3768892  31.5052295  67.2178221
  23.5192895  30.5692530  67.0767498  22.9927731  31.8153358  66.3977480
  99.0261108  84.4640185   5.6960461  99.2528803  83.5341813   5.7104656
  98.5790045  84.6144463   6.5289375  55.1614618  26.7583942  96.3283062
  54.4341707  27.3751140  96.4116096  54.7895718  25.9137702  96.5823555
  61.7642552  37.2344066   0.1930210  61.7418820  38.0876745   0.6262180
  62.3756487  36.7161001   0.7162640  56.2697226  77.9582788  11.4676449
  56.7740244  78.2381345  10.7037136  55.4090626  77.7304079  11.1161205
  49.2447376  13.7753522  69.8008776  48.3147335  13.6806774  69.5950651
  49.6803522  13.1311822  69.2427397 100.3893097  29.1253018  57.0704794
 101.0192270  29.1662121  57.7900362  99.5566423  28.9142561  57.4928045
  87.3590357  86.5417196   8.2532188  86.4343006  86.4409544   8.0275127
  87.5369865  87.4733116   8.1239864  60.0066311  32.1911289  14.6281025
  60.3989202  31.5483929  14.0371487  59.9622590  31.7437603  15.4731628
  54.4731951   3.1672314  85.2992535  54.2881727   4.0551350  84.9932671
  55.3850079   3.0137300  85.0517178  63.4079647  21.4050460  55.1327944
  63.0379534  20.8999085  54.4088078  62.7066898  22.0034766  55.3903294
  39.7631526  35.1073456  59.5663071  40.3183413  35.5780482  58.9446640
  39.0315604  34.7866559  59.0388918  33.8984013  41.1469269  57.8727245
  34.0272021  41.5693188  58.7219715  33.8089895  40.2165222  58.0790901
  43.2946444   1.8605855  67.2200727  43.6144829   2.1783903  68.0644274
  43.4848738   0.9225266  67.2295666  91.3827497  61.1595501  15.1026508
  90.9526426  61.9083567  15.5156014  91.9887144  61.5490575  14.4723103
  47.7226114  22.7840972  66.6138029  48.3258581  22.0626307  66.7921591
  47.7072144  23.2898593  67.4263287 106.9487125  79.4694974   4.6837875
 106.3197595  79.6716143   3.9911053 107.1161920  78.5318329   4.5890877
  65.9034395   2.1125527  90.7046318  66.6572666   2.5763780  91.0691071
  66.2078428   1.7901498  89.8563194  35.6769013   0.3643457  74.5867491
  36.5633416   0.3941807  74.2267990  35.7059336   0.9495503  75.3436661
  16.2409294  22.6529598  75.1742601  15.7207394  21.9795060  75.6125450
  15.5941629  23.2171059  74.7503901  76.1422443  28.7229609  48.1023073
  76.8887472  28.1238341  48.0987263  75.4804134  28.2841825  47.5678110
  23.9101713  92.8788144  90.0843143  23.2976740  93.5626442  89.8132896
  24.6035069  92.9031916  89.4248295  27.3315454  36.9462705  67.9188490
  27.7047110  36.8258309  68.7920427  27.8664660  37.6340532  67.5225592
  47.1152210  11.4615321  86.8365002  46.1657476  11.4465606  86.7160606
  47.3340654  10.5754578  87.1249676  81.2551975  30.6250453  87.3024750
  81.8883133  30.7112455  86.5897560  80.5401421  31.2134290  87.0601177
  32.5388384  26.9398189  77.3354244  33.4717798  27.0740390  77.1685791
  32.5115538  26.4196253  78.1384706  63.0079460  23.1301427  79.9071455
  62.8518057  23.9159155  80.4309940  62.1598530  22.9358768  79.5081091
  41.0910082  43.7954903  72.0186138  41.2352991  43.3409166  72.8485394
  41.0865784  44.7238827  72.2516537  92.7437116  91.2317033  95.2857971
  93.0543233  90.3723640  95.5709076  92.0275093  91.0388656  94.6807384
  52.0265341  19.6626890  47.2553015  52.8648090  19.2068672  47.1794415
  51.4110756  18.9866114  47.5387764  44.1944998 106.6317935  81.2223911
  43.7317198 105.7958616  81.1651516  44.2315405 106.8213500  82.1599007
  46.3924551  29.1311455  85.3834248  47.2714949  29.1928267  85.7572174
  46.5193605  29.2819977  84.4467449  82.3879463  60.2321692  11.0427544
  82.9320604  59.9770267  11.7877838  82.6337225  59.6226718  10.3468105
  87.5465090  64.8496278  19.4854996  87.9101116  64.2559983  20.1424858
  87.3970491  65.6680931  19.9587986  78.1403508  94.0444214  91.8322277
  79.0444176  93.9526315  91.5314484  77.7482487  94.6714754  91.2245369
  55.0713015  28.3142185  76.0860538  55.2798557  27.5319815  76.5967798
  54.3067026  28.0646157  75.5670929  43.2158583  97.5309558  67.8236914
  43.8884943  97.7969975  67.1967793  42.4943846  98.1420941  67.6746416
  69.4938803   9.0812242  86.0431004  69.5889091   9.9470693  86.4399719
  70.3132868   8.6317271  86.2498760  86.7783165   5.4586130  73.5130787
  86.3494682   5.7387394  72.7044725  86.1256027   4.9151647  73.9545059
  49.4922352  32.4898911  69.9506426  48.9447594  31.9933772  69.3423843
  49.9504042  31.8218088  70.4605246  38.8628531  22.7626133  83.3328342
  38.7181783  23.6880040  83.5301971  38.3831048  22.6136446  82.5180435
  38.8042450  29.0426970  78.8590813  39.0021992  28.2070613  78.4362793
  39.2877626  29.6907854  78.3468056  22.1819901  17.8028631  49.1359568
  21.7900467  17.1390057  49.7033262  21.7018366  17.7269697  48.3113813
  32.5645494  35.3269506  79.4816303  31.6893363  34.9400401  79.5047426
  33.1584406  34.5762753  79.4849873  39.0337753   3.6078611  82.1311760
  38.4401989   2.9214358  82.4356747  38.9017439   4.3290207  82.7465820
  57.8251123  34.8640442  67.3530531  56.9854641  35.0965190  66.9566011
  58.2963467  34.3999028  66.6611433  40.5577040  30.9518981  73.6400700
  41.2737846  30.6824660  74.2152834  40.9523344  31.5956163  73.0517483
  75.5429649  19.8920035  79.2915535  75.9968185  19.0683746  79.4701195
  76.0291243  20.2805805  78.5643053  75.9516048   7.2014922  78.6168909
  75.2917767   7.8939450  78.5799503  76.3383293   7.2854066  79.4884634
  77.5737459 100.0591757   4.4514153  78.0843026  99.9532367   5.2541229
  76.7382962  99.6321203   4.6408245  29.2130899  34.6952295  74.6159172
  29.6865368  33.8884306  74.8187733  29.7418022  35.3888369  75.0103807
  70.5413389  16.2429953  22.2234297  70.1252604  16.6011703  23.0075359
  71.4789009  16.3650560  22.3727942  28.5816574  12.5993907  82.2435379
  29.2629528  13.2288063  82.0070934  28.5018468  12.0331693  81.4759159
  79.7127706  78.5801222  21.3707134  80.4297907  79.0257408  21.8218586
  79.5229704  79.1361191  20.6150124  50.6778431   9.2616427  90.9119511
  50.8019400   8.3989739  90.5161762  51.1209726   9.8648703  90.3153038
  69.4409115  89.9576070  20.9931728  69.0402800  90.8149625  20.8493969
  70.2353913  89.9719526  20.4594872  17.8874457  20.9215736  47.9806137
  17.7163780  20.0856614  48.4144545  18.1785882  21.5014744  48.6843061
  80.1487190  74.6082498  17.8927490  81.0691864  74.3458583  17.9036400
  80.0220138  75.0718595  18.7205479  85.7741338  68.7792970  10.6620285
  85.1500637  69.3734588  11.0788509  85.2996523  68.4214820   9.9116489
  58.4322453  29.1622424  71.0707235  58.7797976  28.3590031  70.6831074
  58.9921522  29.8570633  70.7243729 102.4594487  92.1208889  72.3939276
 102.1546043  91.2921901  72.0243835 101.7652191  92.7459748  72.1852541
  37.1714926  38.6176014  80.0411701  36.7195439  38.0979300  80.7059383
  36.9046021  39.5193243  80.2197552  41.8116045  50.5568266  54.3905115
  41.4714193  50.1525784  55.1886892  42.6799488  50.8766270  54.6353388
  68.9305639  27.0810986  94.0792179  68.1803703  27.5688553  93.7392998
  69.6938229  27.5476670  93.7386608  36.0139942  30.7982421  80.9662247
  36.7632151  31.0449910  81.5084553  35.5237508  31.6121697  80.8504105
  61.5164930  95.9018900  14.2822430  61.1480576  95.9105398  15.1656601
  62.3240239  95.3945805  14.3644878  54.4659519  37.6126385  72.6686716
  54.0625811  36.8806648  73.1352997  54.2886209  37.4347496  71.7450190
  73.3965302   7.2282004  83.5424042  73.6096430   7.0475185  82.6268959
  72.6826620   6.6238731  83.7459183  60.8367348  26.7406845  79.8970556
  61.2162638  26.2623668  80.6342125  59.8922110  26.6187811  79.9932432
  55.8786058  11.0365808  84.6479893  56.5099525  10.3172171  84.6603489
  55.7402277  11.2178624  83.7183571  72.3371202  70.3419961   5.9049294
  73.0055577  70.3186752   5.2201817  71.7801244  69.5853962   5.7217857
  29.8019147  54.7701406  77.9534149  29.3023467  54.2634201  77.3131847
  30.7139707  54.5300722  77.7898407  51.1129093  29.9399209  55.8263683
  50.7872391  30.4029751  56.5982151  51.3092947  29.0576720  56.1414862
  48.1514215   4.5181996  78.3518362  48.7569094   3.7877834  78.2249212
  48.6905384   5.2999139  78.2313728  48.6379957  40.2365494  95.9595299
  48.9346361  39.9680781  95.0899506  47.6906061  40.3385448  95.8685017
  39.1476321  26.9109869  76.9347620  38.5005903  27.3414350  76.3759375
  38.9864612  25.9755898  76.8111181 107.5470049  85.2711965  34.2563126
 107.8350050  85.8846070  33.5802815 107.8926498  84.4243170  33.9742538
  49.3391418  45.8790350  40.9888363  49.8267746  46.5508652  40.5122900
  49.7568321  45.0555897  40.7364416 111.1395962 102.3156645   2.6466629
 110.7006437 101.5981247   2.1898243 111.8133051 102.6125051   2.0349190
  83.8706571  71.5533139   4.3376419  83.1973011  72.2319104   4.3859169
  83.5478765  70.9423079   3.6752865  28.6652994  27.3432541  56.6110277
  28.1247902  27.7545023  57.2855282  28.0358911  26.9861770  55.9844685
  29.2303634  32.9607892  90.2585125  29.2602658  33.2849288  89.3583584
  29.7146702  32.1355724  90.2321339 104.8597240  44.6412230  82.7997303
 104.3289661  43.8877869  83.0583286 105.2797127  44.9279785  83.6106586
  66.1187601  25.9376860  81.5192699  65.4500675  25.2545619  81.4700317
  66.0312462  26.4182925  80.6961155   4.8064202  98.5785444  64.1826439
   4.4850176  97.8184028  64.6675348   4.1625613  99.2646308  64.3586159
  96.2793810  68.2191517  14.6960995  97.0250351  68.7009479  14.3381760
  96.1117870  68.6320247  15.5432579 115.9883243  68.2336308  17.5429413
 116.7037851  68.7557234  17.1799442 115.2582390  68.3761753  16.9405434
  99.1500408  79.8072173  27.0420048  98.4180338  79.5860650  27.6177570
  99.2791826  80.7471205  27.1690247  31.3834620  45.3316402  84.9416065
  31.1872721  45.0991917  84.0340233  31.1422539  44.5543385  85.4454327
  81.8721581  27.9547381  49.8373032  82.2139263  28.7637711  50.2179432
  82.5113010  27.7174830  49.1654062  40.8656788   1.0889128  61.0084772
  40.9715223   2.0133102  60.7837152  41.2317038   1.0132521  61.8896866
  53.3742142  35.8757925  77.2156763  53.2129383  35.8447146  76.2726736
  52.6509380  35.3795171  77.5988436  53.2480955  32.2205162  76.8342304
  53.9463377  32.6212382  76.3164282  52.4445009  32.4384809  76.3620424
  65.6841380 105.6778957   6.6680309  66.6054517 105.4342272   6.7577049
  65.2818162 104.9331333   6.2211582  71.0561848  30.7080436  87.0358276
  71.3629818  29.8513770  86.7387867  71.5117884  31.3340020  86.4729500
  50.8320284  24.9381971  91.4747620  51.3172007  25.0968003  92.2844982
  50.5453491  24.0274000  91.5417957  38.4511209  37.0593548  66.9794226
  37.5449157  36.9758105  66.6827059  38.3805203  37.2406340  67.9166460
  72.4509096  22.5148344  90.1973438  72.6185036  22.7822018  89.2936516
  72.6900482  23.2792091  90.7215405  49.1218996   9.9383140  63.5859966
  49.5136023   9.1638339  63.1822872  49.2616796  10.6377661  62.9476690
  55.8651018  14.1028488  74.3415308  56.0086012  13.6864328  75.1913786
  55.2908278  13.4977138  73.8722229  53.5122013  21.6693497  80.1461029
  54.1595650  22.1613121  80.6512070  53.0747271  22.3301578  79.6092796
  45.8068419  38.8654184  81.1809063  46.5712309  38.9819431  81.7451477
  45.5845070  37.9384112  81.2672329  20.7679081  50.5001783  86.6874409
  19.8382354  50.6699181  86.8395138  20.9806371  51.0131359  85.9077930
  58.6016417  33.3696842  74.0923929  58.5084009  34.1301346  73.5185909
  59.5036268  33.0782866  73.9591837 114.2120439  50.8713533   9.7130749
 113.5483104  50.7532703   9.0335629 113.8447267  51.5380986  10.2933857
  80.8690929  10.5168879  71.0455084  79.9349976  10.4293501  70.8557034
  80.9149456  11.2031317  71.7112398  70.7956362  21.0844326  94.4458771
  70.4037666  20.2987003  94.8270512  70.5337048  21.0603619  93.5255241
  53.4001637  40.6171083  82.1085167  53.2202435  39.6993470  81.9046211
  52.5364208  41.0279369  82.1458912  50.5533600  38.4817386  71.7631531
  50.8033037  38.6897445  70.8628798  49.6153784  38.2971311  71.7147446
  12.0481270 101.7928178  79.9979162  11.1061161 101.6393329  79.9252319
  12.3565357 101.8225653  79.0922499  74.7935492 105.5072500   7.6778385
  75.4289276 105.6950189   6.9869873  74.1362721 104.9546053   7.2549889
  40.0660067  74.3989708   9.2412540  39.4812569  75.1450504   9.1083405
  40.2592952  74.4101729  10.1786682  96.4031792   1.7216828  69.6472502
  97.1888733   1.5795064  69.1193247  96.4008045   0.9973856  70.2730465
  99.7321016  47.5545563   2.9653999 100.4573280  48.0727674   2.6164887
  99.3082315  48.1325145   3.5998508   5.6008564  80.9301736   4.3118164
   4.7899662  81.2768747   3.9396736   5.5276047  79.9818875   4.2040226
  66.2274456  36.6302776  75.1981211  65.6186295  37.3505139  75.0343084
  65.7645893  36.0604048  75.8123207  69.3911362  23.8660526  82.6843643
  69.2057562  23.0500078  82.2196770  69.2552900  24.5507884  82.0294476
  54.6050882  23.9642978  67.9377174  53.7676859  24.3665981  67.7071953
  54.8034430  23.3854914  67.2016001  96.7513830  53.9491156   2.3077652
  96.9054634  54.3428041   3.1665394  96.8276388  54.6785849   1.6927120
 117.7627648 107.1609647  77.9463291 117.1492256 106.5197236  77.5877047
 118.2851017 106.6658003  78.5773659  64.0160799  29.4040918  53.0261993
  64.6723270  30.0331664  53.3259296  63.9931250  28.7368011  53.7120771
  50.4629135  20.5746722  65.3560877  50.6456518  20.7692504  66.2753105
  50.2462101  19.6423674  65.3471041  24.0863228  25.1655483  57.4685287
  24.1988754  25.8967400  56.8611383  24.9747133  24.8455691  57.6254034
  34.6017694  34.0923381  42.9998350  34.7520518  33.2436824  43.4162807
  35.4354811  34.5540237  43.0893087  54.9456263  32.7188826  66.7735815
  55.1920652  32.7644730  67.6973867  54.5266914  33.5609365  66.5956116
  57.0915842  19.0417683  79.3309784  57.2160196  18.5088634  78.5456371
  56.7336512  19.8677838  79.0056849  64.6161652  37.7348852  58.9982033
  65.1109743  37.4371386  58.2348251  65.1066542  38.4905219  59.3217278
  40.0125122  23.4640288  73.4815025  40.2964401  23.9216638  74.2728233
  39.3156314  24.0140963  73.1237125  67.2098446  21.8172598  59.5076656
  66.3835335  21.3559675  59.3639612  67.2567892  22.4526954  58.7933493
  13.9479988   2.8968055  22.5081512  13.5091894   2.9139096  23.3586762
  13.2983607   3.2432801  21.8964645  68.2274055  15.0036025  46.2456894
  67.3780632  14.7909951  46.6325331  68.2855988  15.9571958  46.3049030
  51.0744429  19.4552433  95.1310253  50.8880329  18.9749503  95.9377480
  50.7890463  18.8678670  94.4311905  56.9540405   4.8239487  77.5954866
  57.3567581   4.5975217  78.4338093  56.2551117   5.4369807  77.8233385
  49.8872519  20.0601959  56.6193390  49.6469021  19.1434181  56.4852476
  50.8061790  20.0304055  56.8856430  73.6449534  79.6617963   1.3610909
  74.2698580  78.9480664   1.2333462  72.8153807  79.2229726   1.5494320
  68.4306485  75.3402521   2.8933212  69.3086774  75.7073976   2.9957935
  68.0942303  75.7436825   2.0931408  61.3768053   2.0418186  80.5819893
  62.2271824   2.0064348  80.1439953  60.7574940   1.7149457  79.9294281
  64.2595625  17.7700889  74.8456335  64.6580124  17.1475554  75.4538488
  64.9452257  17.9483449  74.2019558   8.4477955  66.1983442  75.5787230
   9.0087706  65.5751228  76.0403872   9.0484810  66.8741035  75.2644634
  50.0182962  15.8517754  90.1304054  50.7331657  15.9882820  89.5086670
  49.2794323  16.3304853  89.7547054  77.3572493  46.6571522  87.3784161
  77.5999260  47.5828505  87.3579311  76.4134789  46.6533709  87.2186661
  43.5548544  52.2510052  64.1075468  44.0189075  52.9828072  63.7009144
  43.1751442  52.6212740  64.9043846  53.8991308  44.5516443  93.8363838
  54.4031572  45.3633022  93.7780476  53.6569548  44.3545294  92.9315472
 114.5170034   2.8248936   2.4089310 114.9813379   2.5977666   3.2145569
 115.1644290   3.2953793   1.8838474  65.8864546  40.3811121  94.8936558
  65.9570503  41.3043261  94.6509171  66.6797161  40.2051592  95.3996277
  80.7206756  45.9347285   8.3268616  79.8019535  45.8551432   8.0702469
  81.2016708  45.4693665   7.6425240 113.6560566  82.9367019  11.1666367
 113.3253748  83.5152032  10.4794476 114.2288143  82.3223998  10.7074902
  40.8432436  37.2394776  68.9898634  41.0969162  36.3177323  69.0375137
  40.0250101  37.2885680  69.4841433  85.8103210  74.4973005  12.2981331
  86.4125520  74.3917348  13.0346176  86.3748485  74.7150494  11.5564320
  16.7920720  95.8224155   7.5912640  17.1034943  94.9205162   7.6676437
  17.2558915  96.2952806   8.2822773  76.5888918 109.4414244  79.9665785
  77.0413330 110.0129193  80.5869961  77.2123211 109.3250408  79.2496252
  40.2189875  29.1646004  69.0317583  39.2753744  29.0050602  69.0122652
  40.5611467  28.5042524  69.6343327  70.4094934  47.2295761  85.6362057
  69.5604897  47.6573706  85.5247879  70.4090309  46.5242147  84.9891376
  89.4056064  62.5374563   3.7785599  90.1186115  61.9020988   3.8431809
  88.6225158  62.0443936   4.0232918  54.2802238  16.9148815  92.0787621
  54.9977016  16.7147613  92.6799393  53.8142300  16.0849524  91.9772816
  67.2750664  11.4764977  81.4292526  67.5722456  11.6933715  80.5455780
  68.0530787  11.1284745  81.8649292  93.4022266  87.8345944  36.6834900
  93.4975511  88.5470058  36.0513374  92.6642019  88.0989219  37.2327492
  23.2769942  49.4446516  78.6626625  23.2841873  48.5480642  78.9977884
  23.1019688  49.3490219  77.7264738  88.2231647  65.4554780  12.2176144
  88.4651691  65.0936599  13.0701134  88.2981188  66.4031436  12.3296234
  45.8907843  41.2976074  53.4750843  45.3630686  40.5888605  53.8430834
  46.7950630  41.0433054  53.6590576  33.2393813  42.2555399  77.1107101
  33.3880997  41.6619873  77.8467894  34.0700483  42.2601032  76.6351032
  55.0931644  32.4225831  79.1556263  54.4754744  32.4826980  78.4268713
  55.9540129  32.5201130  78.7486172  61.2863398   6.3465214  65.2749300
  61.7125654   6.8136322  65.9935236  60.7530069   7.0117110  64.8398304
  43.7472439  36.8150210  79.0080023  43.5175467  35.8866549  78.9679384
  43.4960127  37.0860243  79.8909950  41.7539549  28.9922643  53.9562511
  41.0555553  29.3637133  54.4952297  41.6451025  29.4100237  53.1019354
  31.3338089  11.7583692  50.7630730  30.5694342  11.1824620  50.7459736
  31.2965298  12.2306335  49.9313259  19.1369498  44.5477486  66.1047649
  18.4680021  44.4595337  66.7837048  19.3199623  43.6490870  65.8306408
  55.5475807  64.5756674  88.1293678  55.0898361  63.8070917  88.4699345
  56.1785364  64.8010969  88.8129616  71.6175842  39.4439864  89.7483444
  71.2300968  39.0635753  88.9600754  70.9438801  40.0345659  90.0853443
  60.3053617  24.4513226  68.9719057  61.2165594  24.7035241  69.1213799
  60.1639652  23.7066746  69.5564938  28.1757485  58.0733207   3.8216755
  27.3597275  58.0951223   4.3215439  28.8465535  57.8522749   4.4677422
  42.4437618   6.7315805  80.9640312  42.3968697   5.8027804  81.1906624
  42.6489305   6.7399305  80.0291157  63.0855083  25.2455044  70.3549385
  63.3698511  25.3585935  71.2619066  63.7830591  24.7320342  69.9474955
  35.7079434  30.4094863  90.4337215  36.6264033  30.2679849  90.6631565
  35.7375860  30.8238435  89.5713615  94.1067058  62.5633164  14.0361664
  94.4628078  61.8438657  14.5575211  94.8435146  63.1634511  13.9213345
 100.7325632  88.7082411  15.6631252 100.8125240  88.0717828  14.9526569
 101.3297350  89.4155122  15.4194233  29.7790027  29.6474552  60.5564117
  29.6416903  30.3280520  61.2153244  30.1534176  30.1112413  59.8074484
  47.0929384  59.9970436  67.1359825  47.1684170  59.0978289  66.8166971
  46.4127398  60.3892899  66.5885305  22.0046759   0.4989203  95.1848412
  21.5605164   1.0821795  95.8002853  21.8486595  -0.3793326  95.5320644
  46.6490841   4.9129370  84.4385338  47.5358868   5.0729030  84.7613716
  46.7601728   4.7564709  83.5007668  59.7242880  20.4527235  44.5875788
  60.4991245  20.4848480  45.1486778  59.7279310  21.2912440  44.1259527
  55.4283094  31.3440657  81.6778851  56.1661148  31.7850304  82.0991039
  55.3330660  31.7882919  80.8353710  25.1724052  26.6721106  52.1393061
  24.2849064  27.0023227  52.2790670  25.1130009  25.7364631  52.3323488
  60.0837374  31.5865469  88.5352230  60.8969307  31.1340094  88.7591743
  59.6493340  31.0041523  87.9120445 101.4766103  75.8316924  14.1652367
 101.8818886  74.9657084  14.2105362 101.4213115  76.0215570  13.2286903
  83.1553489  65.7491841   5.4182026  83.9890272  65.4364981   5.7695362
  83.1388933  65.4262270   4.5172855  67.0013285  19.4358563  54.8943329
  66.6092110  18.7878132  55.4795837  67.5234079  19.9941063  55.4705429
  32.7729201  42.7035141  53.1821012  32.1378613  42.8173018  52.4750042
  32.3545313  43.1005669  53.9459944  49.7286606  20.4401851  77.0499802
  49.1575432  19.6842182  77.1862698  49.5024967  21.0421395  77.7590227
  16.1488521   3.7780979  83.1126785  15.8880281   2.9039359  82.8227806
  15.3654182   4.1354874  83.5306931  51.6522646  24.3421984  71.7070723
  52.3495150  24.9978709  71.7200279  51.2703514  24.4159579  70.8324671
  50.5919695  24.4646597  95.3802204  50.9536362  23.6778092  95.7880116
  51.2943697  24.7858429  94.8147964  20.4297566  27.2370195  65.5944395
  19.8840451  27.0042872  64.8432636  20.4415083  26.4476180  66.1356831
  61.3663197  31.9150877  62.9282522  60.9820890  32.5329852  62.3063183
  61.7911386  31.2558508  62.3794699  44.9872637  42.2312069  83.0942440
  45.9170628  42.4432755  83.0122280  44.5694876  42.7032566  82.3739243
  18.4729134  59.7463901  12.4623177  18.3163105  59.2823057  11.6399262
  17.6173913  60.1014735  12.7036259  46.4836407  35.9186602  87.5647449
  47.0873308  36.6374111  87.7523327  46.3472700  35.4932761  88.4113121
  94.5419884  19.6805727  73.5626984  94.1919136  18.7954295  73.6637020
  95.4573917  19.6083832  73.8329935  20.8569258   0.9142930   4.9616024
  21.5774887   1.3006360   5.4593536  20.3817528   0.3834874   5.6008884
   8.6556083  30.4347610  75.2871561   8.8962966  29.5108294  75.2189493
   7.7021050  30.4406929  75.2033234  58.3218622  38.1315732  49.8286724
  58.9720249  38.5373616  49.2552185  58.3183098  37.2094536  49.5719290
 114.5057951  21.6065025  93.3502007 113.5949697  21.3127017  93.3677959
 114.7006442  21.8371654  94.2585278  66.7617464  14.1952896  86.2914753
  65.8550119  14.4892275  86.2039185  66.7410517  13.2741785  86.0319328
  32.7892447   5.8951157  93.2546711  32.3278284   6.0194659  94.0840435
  33.7010694   5.7501829  93.5072613   2.9297482  82.1124698  29.8801205
   3.1676423  82.3549439  28.9852211   3.5837780  81.4611794  30.1336929
  60.9002256  35.8989286  53.8968277  60.1700258  36.3186407  54.3516684
  61.6358089  35.9736323  54.5047522  16.1323391  77.6094438  31.7624161
  16.9425522  78.0374147  31.4855930  15.8656727  78.0867840  32.5480721
 113.7853843  77.6347400  14.5781872 114.2217094  78.4865476  14.5947430
 112.9152424  77.8181912  14.2240212  55.9752893   2.0299757  76.4921904
  56.0837221   2.9652849  76.6644430  55.0508976   1.9342506  76.2629128
 110.7187349 101.7227365  11.7322800 111.2585241 101.8728258  10.9561798
 109.8345834 101.9688226  11.4603302  47.7413177  20.1742506  68.4443521
  48.0711269  19.3685424  68.0464935  46.8532038  19.9557972  68.7267780
  45.7232094  43.3846760  86.8485832  45.1912022  44.1724777  86.9606876
  45.7739687  43.2628393  85.9005260  72.8410006  22.4174309  81.1386967
  72.6396036  23.0020809  80.4080391  72.1763802  22.6193953  81.7972755
  57.5846863  22.1474862  90.9877014  57.5952244  22.8728485  90.3632259
  57.9898739  22.5055289  91.7775440  80.4634094  19.5672703  78.0200863
  79.6825504  19.6100640  78.5720396  81.0707569  20.1926064  78.4154654
   1.7547738  72.8560235   6.1038849   1.7986046  71.9251503   6.3224766
   1.0175883  73.1879403   6.6163418  75.6792641   8.7669259  56.3835430
  75.3977680   8.6217117  55.4802704  75.0983953   8.2149327  56.9071150
  43.9065695   1.5733778  82.4916267  42.9915857   1.3122201  82.5956917
  43.9154577   2.1022119  81.6938210  36.2671304  13.8088250  34.0263200
  35.3604650  14.0228546  34.2462730  36.3658714  14.0905631  33.1168675
  42.8337019 104.0997041  65.2087355  42.2610300 103.3566077  65.0187683
  42.3765867 104.8550380  64.8389387 106.6104728  38.1638874   0.7888767
 106.7696983  38.6772908  -0.0031498 105.7408363  37.7858032   0.6584236
  62.8423023   5.7075459  56.7679787  63.6087847   6.1187506  56.3684177
  62.1427155   6.3524282  56.6634083 107.4478800  94.1656782   7.9016468
 107.1074993  93.2716085   7.8698227 106.7662174  94.6962930   7.4893162
  51.6249466  10.3108037  75.6288338  51.3705826  10.0274777  74.7506237
  50.8157110  10.6436265  76.0169029  91.7448414  96.9497616  93.0453682
  91.2202896  97.0251150  92.2482491  91.8584491  97.8522165  93.3435345
  37.0334983  13.1713271  89.8317719  37.1595001  13.3515370  88.9001751
  37.9051232  12.9368556  90.1504040  77.6223284  64.3306364  45.5355331
  78.5241086  64.0368052  45.4063484  77.1097714  63.5229422  45.5693790
  52.8704691  15.9670782  83.4033966  52.8807497  16.7203534  83.9939117
  52.5028849  16.3072157  82.5876617  57.0851660   5.5560791  86.5741158
  56.7312479   4.9571186  87.2315502  56.3828230   5.6470233  85.9301662
  77.2204572  68.5233583  15.3489563  77.4400813  68.6162545  16.2759754
  76.2796694  68.3470012  15.3422043  46.7867231  13.1166863  61.3141251
  47.7335835  12.9912591  61.3770008  46.6842461  13.8998461  60.7733917
  45.4229641 106.4462949   8.2129070  45.1908207 105.5372764   8.0230972
  45.2931858 106.5344764   9.1571590  54.1475534  27.8021121  56.6563416
  53.7984419  27.7072167  55.7701445  53.6278963  27.1962333  57.1846390
  76.6631413  25.6266260  85.1918030  77.4246550  25.8760428  85.7153702
  76.6145229  26.2935615  84.5069218  64.4565773  11.8955266  59.8896694
  64.5106506  11.8203974  60.8423853  64.3644571  12.8345191  59.7283077
  68.1064320  40.5341864  87.9512119  68.5760784  39.7398853  88.2056713
  68.3030176  41.1618423  88.6466503 103.8804991  80.8034803  22.7150604
 104.4254905  81.1758329  22.0218346 104.3123419  81.0679676  23.5273335
  65.0479078  14.3735242  96.4747047  64.1854095  14.5269895  96.8604279
  64.8733711  13.8301635  95.7062435  73.5615349  11.1411059  43.2831192
  74.1250277  11.5904427  42.6531982  73.1557369  11.8464255  43.7871838
  11.5364682  79.2609169  -0.1328781  10.8489548  78.9784958   0.4702827
  11.5134655  80.2169468  -0.0915459 104.8595506  91.8041803   1.6242477
 104.6896440  92.7336408   1.7774365 104.6689827  91.6758300   0.6950352
  87.0422441  94.9268438  16.3341305  86.8025524  94.7452332  17.2428677
  87.7972395  94.3623306  16.1681625  39.5572424  22.6270700  38.9413428
  40.2264690  23.1253815  38.4722400  40.0072527  22.2932053  39.7173953
  69.9802494  24.9016547  59.3414927  69.8506975  24.0565109  59.7718143
  70.9100294  25.0930142  59.4644642  56.1719084   8.8402760  77.5020504
  56.7324781   9.6107918  77.4109697  56.5684080   8.1862336  76.9265127
  92.2336102  18.0444777  77.1736622  91.5742683  18.5803902  76.7328739
  91.8510056  17.1674597  77.1998119  54.2700005  15.9124887  71.8676853
  53.5514402  16.5443635  71.8929577  54.6428585  15.9384239  72.7488947
  52.0470333  22.2762489  56.8688345  52.0144033  22.7709842  57.6876163
  52.7489758  21.6391873  57.0017385  44.1389894  55.6708241  93.0607796
  43.7501717  56.4473057  93.4634399  43.9277935  54.9574804  93.6630821
  13.0311489  37.7379298  77.1412563  12.9141355  38.6763048  77.2895479
  13.3440936  37.4000287  77.9803753  41.1100292  62.0067787  30.5346775
  41.9652605  61.6545677  30.2881789  40.4891634  61.5437841  29.9721932
  61.4702702   4.6963221  92.4681664  60.8073235   4.0073723  92.4225426
  62.3046112   4.2276406  92.4470234  68.7167740  10.4784930  78.9076567
  68.3556890  11.0225379  78.2077551  69.6552086  10.6668305  78.8974762
  70.2296400  50.3042746  82.4551105  69.7070885  50.7292366  81.7749786
  69.6424627  49.6506786  82.8349400  71.8187046  47.8996277  80.9976768
  71.4503717  48.7341166  81.2878323  71.3007736  47.2372437  81.4550877
  93.5123712 106.8749239   5.3851673  93.4717399 107.4122287   4.5940373
  92.7608663 107.1582176   5.9059498   0.7290637  77.3463847   3.0524895
   0.8422743  76.4822890   3.4484074   0.0488984  77.2195245   2.3910400
   3.4111630  93.8849975  10.9277317   3.5157715  93.8647010  11.8789742
   3.8790165  94.6732642  10.6520817  79.7648508  84.0109112   6.2311909
  78.9745433  83.9864113   5.6917069  79.4453508  83.9161851   7.1285030
 116.6731483  88.5961034   2.2635052 117.4204380  88.0161192   2.4098179
 115.9353382  88.1439783   2.6727173  61.8933296  23.5472989  85.6504059
  61.7619228  22.9766870  86.4076233  62.2877979  22.9796243  84.9883175
 113.8870937  79.6105553   5.2849266 113.0706531  80.0710584   5.4788277
 114.2482597  80.0717713   4.5279095  57.3559666  17.6471221  72.0573711
  57.0967293  18.3472645  72.6563931  57.5346279  18.0938208  71.2298584
  73.5041857  35.1375365  92.4444771  74.1053581  35.0060892  93.1776524
  72.6349735  35.1422238  92.8453445   4.5845067  90.4587104  15.2425644
   3.6360585  90.4988267  15.3652927   4.7649800  91.1034347  14.5584652
  45.5399179   9.8769993  94.9643898  45.9215832  10.5778325  95.4929733
  44.6593285   9.7604322  95.3210545  82.1007663 111.4452793  26.8939087
  82.7961332 110.9663631  27.3448345  81.4945537 110.7658626  26.5987274
 109.9617368 100.1109125  18.6287853 109.2521316  99.5733120  18.9804623
 110.7610447  99.6569826  18.8957760  88.0798721  51.9788647  92.6333332
  88.0215740  52.5474930  91.8655396  87.9117107  51.0998774  92.2937202
 103.7183124  85.8045413  12.8781292 104.4859249  85.7020737  12.3155472
 103.4733469  84.9098779  13.1143543  77.7152491  22.7694607  64.1608715
  78.3282137  22.5237513  63.4679508  76.8508816  22.6745296  63.7607670
 108.9150936  75.9475328  38.0846569 108.1651384  76.0649730  37.5015614
 108.5307152  75.6708242  38.9164707  61.2455893  51.5074778  93.7316036
  61.9331694  52.0865297  93.4027100  60.9845734  50.9891462  92.9703999
  40.8547974  40.0620890  69.8744488  40.5222225  39.8677087  70.7507133
  41.1597538  39.2181277  69.5413399 111.4988739  88.9082696  24.7161934
 111.4560873  87.9735996  24.5142242 111.4030201  89.3412401  23.8679096
  35.5461359  27.7998137  64.8757553  34.8110771  27.2688222  64.5692158
  35.6138873  28.5076880  64.2350101  96.2968666  99.1254284   7.7668926
  96.4698965  99.2633583   6.8356201  96.6258365  98.2440855   7.9436562
  87.6966572  14.8693717  77.1828222  87.8409004  15.5824900  76.5608168
  86.7724037  14.6434832  77.0780897 108.1299478  87.2620632  10.9683010
 108.6577350  86.8586637  11.6574642 108.7588436  87.4756409  10.2790234
 117.6806289  86.5554501  16.7359993 117.7397520  85.8290602  17.3565552
 116.9418937  87.0778419  17.0484135  81.3968182  17.8563988  76.0276890
  81.1613083  18.4583807  76.7336512  80.6356621  17.8584421  75.4472780
  18.9522243  38.7393689  94.2234898  18.8634348  38.1672740  94.9857616
  19.5780277  39.4094181  94.4985008  59.2550850  30.7894063  84.6224117
  58.5874891  30.4348993  84.0351582  60.0696516  30.3760171  84.3363571
  93.2490635  80.9444141  60.6641388  93.8663483  80.2472687  60.4423809
  92.7188015  81.0547924  59.8749113  80.5523872  70.8189774  30.4476619
  80.6626034  69.8687649  30.4133487  80.3146267  71.0649538  29.5536828
  79.7322941  84.6664429  86.7714500  80.3457546  84.8053169  87.4929905
  80.2115059  84.1158295  86.1522579  27.8985470  37.7682072  15.5789349
  28.0492323  36.8460328  15.7866261  28.5351341  37.9661328  14.8920414
  54.8998564   9.0363890  10.0512764  54.1390341   9.1020877  10.6283924
  55.5510920   8.5605246  10.5667183  36.3672018  91.3465691  70.2717066
  36.2761426  92.2874546  70.4223061  37.0013380  91.0591412  70.9285831
  58.9652937  18.9722449  10.3843472  58.1482619  19.2264230   9.9553082
  59.3178862  19.7912318  10.7324574  38.9302289 110.7802107  19.6701691
  38.6843716 111.6918041  19.8276016  38.9243733 110.6917335  18.7170860
  80.7526970  72.0400810  78.7336016  80.6260872  72.5614262  77.9408836
  80.4064178  71.1761904  78.5099649  98.0698013  91.5732098  57.4508238
  98.6241817  90.8156109  57.2638941  98.6032200  92.3277664  57.2011328
  63.4338903  69.2169189  88.0766582  63.3342505  69.9810600  87.5088596
  62.5372553  68.9580774  88.2894325 106.9932938  59.7990847  94.2322254
 106.7928219  59.3145275  93.4314442 106.5126228  60.6218052  94.1410255
  82.2852039  59.5412397  49.4922543  81.9921017  60.2817774  50.0232267
  81.9713211  58.7694979  49.9635601  20.0462120  18.7449319   6.6351769
  19.5388334  19.3684203   7.1548531  19.3916767  18.1512648   6.2672302
  63.4620493  35.6055123   1.3152287  63.7888449  35.3249223   2.1700356
  64.2411726  35.6390721   0.7601807  30.4759281   9.6354491   1.3460419
  30.6052178  10.5713565   1.4996311  30.3507727   9.2644460   2.2195026
  77.9574108  95.1379204  86.5134525  77.0425940  95.1486778  86.7949200
  78.4128475  94.6476746  87.1979046  77.9634190  81.6546917  91.6858387
  78.5274887  81.6827202  90.9130096  77.2163153  82.2076988  91.4572620
  62.7186888   1.2318427  46.3710758  63.4216421   1.2127692  47.0204804
  61.9957655   0.7619435  46.7867729  66.1939812  75.8428860  78.5003567
  66.8835258  75.5184078  77.9211521  66.4766979  75.5843973  79.3775606
  10.2851825  97.0145988  71.2791824   9.5154052  97.1142769  71.8393087
  10.3024249  96.0831451  71.0593367  68.4325504  92.1016979  53.4118414
  68.3215618  91.1777878  53.6361027  69.0749121  92.4258995  54.0431070
  88.5360813 110.2686119  86.6645336  88.9888000 109.9441528  85.8860683
  88.6564732 109.5784092  87.3167229  80.1225185  78.9583540  94.2892361
  80.3473473  78.5474968  93.4544373  79.2706776  78.5862637  94.5175743
  69.2131060  25.2610452  13.8479492  69.0017622  26.0432774  13.3383534
  69.4830912  25.5975491  14.7024033  84.0581036  80.1802158  87.5353241
  84.0144157  80.7871819  86.7964649  83.1467056  80.0634289  87.8035545
  52.1101492  27.0480782  18.3515141  52.6668757  26.7944390  19.0876934
  52.6992338  27.5070626  17.7527306 100.4384708  58.6168575  58.3336258
 100.3035259  59.5642090  58.3101797 101.3654995  58.5122108  58.5478401
 108.3003235  66.5781736  84.7290993 108.5210609  66.3109112  85.6213379
 107.3433971  66.5954494  84.7140694  87.2766018  97.1053410  70.8819962
  86.7706394  96.4521217  70.3987360  87.8036404  97.5427818  70.2133226
 109.1899014  68.0434132  87.7943420 109.6343327  67.2081947  87.9397011
 108.3465385  67.9460859  88.2364941  37.7903782 104.9013616   7.1035740
  38.2519185 104.4446851   6.4002583  38.4803998 105.1596548   7.7146408
  38.3585709  15.8191926   4.2110035  38.0597418  16.6786677   3.9139530
  38.9284390  16.0082347   4.9564907  59.1144371  86.8176651  81.8575191
  59.3533897  86.2617302  81.1158562  59.5152617  86.3915825  82.6151562
  91.4079857  62.9209518  86.6309643  91.4985466  61.9973564  86.8654919
  90.6721115  63.2310486  87.1587467 112.0606327  70.5453634  82.6180077
 112.4950981  71.0312557  81.9170284 111.1418343  70.5110359  82.3518085
  78.1851625  78.6950922  62.5380087  77.2856712  78.9601755  62.3459768
  78.7089109  79.4752312  62.3555088  98.8223392   5.0690894  54.3738794
  99.3905861   4.3023830  54.2997742  99.4256717   5.8107143  54.4209766
  47.5707358  42.7963979  20.6333134  47.0538157  42.8109700  19.8278210
  47.3051184  41.9891412  21.0737774  92.0164490  60.5908823  81.7654037
  91.1532974  60.2391386  81.9832993  92.5969124  60.2350378  82.4382114
  34.0789830  94.5989777  36.1507675  34.2181813  95.5458190  36.1694214
  34.8926007  94.2304541  36.4949200  82.4509430 103.8272381  57.9207039
  81.6074085 103.6312962  58.3284998  82.2278595 104.1158581  57.0357370
  81.8629473  22.2986562  21.9671223  82.3745650  21.7066438  22.5184795
  82.4772661  22.9918248  21.7255470  99.2579746  83.6201572  92.2696686
  99.7767448  83.1756783  91.5991974  99.5465374  84.5319843  92.2303963
   8.5975110   8.9994292  82.9752254   8.1790005   8.5185390  83.6892414
   9.3481289   8.4585433  82.7298069 102.6841354  55.4978609  91.4110088
 102.1359348  54.9161148  91.9375801 102.1596241  56.2917233  91.3066101
  75.8946991  79.6073818  77.4397230  75.3835964  79.7709322  76.6470957
  75.5955553  80.2729702  78.0591917  27.1449028  96.3445045   1.2913868
  27.0572697  97.2963859   1.3410732  26.2695061  96.0126497   1.4908382
  25.4823273   8.2997233  10.1820728  24.7623461   8.2930095  10.8127949
  25.8292549   9.1908509  10.2240917  48.5536038 111.5448381  12.3337338
  48.2546174 111.9373514  11.5135071  47.8570115 110.9342815  12.5749847
  44.9014776  24.1877229  26.9886181  44.6716135  23.7739140  27.8205750
  44.1324442  24.7099168  26.7602989  88.1460762  85.5107880  88.5922527
  87.8088951  84.8489094  89.1959476  88.8066006  85.9830093  89.0991497
  32.4474924   1.5872437  42.9064247  32.3031777   2.1280391  43.6829159
  33.3680599   1.3306958  42.9609367  56.1724489   7.6351840  14.1056225
  56.5843123   8.0923135  14.8388550  56.6377180   6.8003852  14.0520546
 115.1804913  21.0694224   3.4004852 115.8042372  20.3907544   3.1424496
 114.5503009  20.6153542   3.9598724  77.1304274  75.7000971  81.6134930
  78.0104494  75.3263330  81.5677547  76.6289473  75.0695086  82.1303177
  68.6789799  85.3318310  56.9739246  68.6348629  84.8452759  56.1507893
  69.4577169  85.8814144  56.8858528  39.9961441  18.9952523  14.8030445
  40.9355181  19.1312033  14.9268696  39.5908850  19.4210154  15.5585072
  51.1310499  23.5341269  30.6556103  50.2584475  23.2181985  30.4211208
  51.5652769  22.7736337  31.0420391  17.4769913 107.6039840   7.2484180
  17.6376091 108.1584932   6.4849064  17.3409115 108.2205393   7.9678413
  93.0577660  86.0967636  86.3107204  92.9240417  85.4470348  85.6206417
  92.7610588  85.6617165  87.1100521  89.8743439 104.8534203  79.7649574
  89.9293232 103.9361668  79.4969082  88.9853001 104.9503613  80.1061916
   4.6837764  59.1127825  58.0897951   4.9466376  59.9648046  58.4379292
   3.8314013  59.2722750  57.6845169  66.7870712  75.7695007  89.0121365
  66.2852049  76.4711428  89.4269371  66.2596655  74.9829960  89.1517258
  94.2593765  70.0815344  86.3714409  93.7545013  69.4272614  85.8884621
  94.3769550  69.6992493  87.2410774 104.2095947 110.3981972  67.6630831
 104.9637318 109.9731159  68.0715132 104.5914650 111.0150528  67.0386648
  74.4561529  77.2554207  59.9956512  74.4997501  77.5262928  59.0786123
  75.0698805  76.5235758  60.0586605  84.0217304  90.6750202  62.3009157
  84.3401337  89.9654102  61.7429638  84.0296173  90.3069115  63.1844711
  93.7352657  29.6905828  95.4489708  94.3044472  30.4598141  95.4723358
  94.0091896  29.1669774  96.2019825  81.5545481  28.6660725  25.3856251
  81.9733637  27.8666360  25.7045815  82.2533911  29.3201691  25.3886482
  75.1495743  76.6434526  74.4519186  75.4319715  76.0021830  73.7998009
  74.2213106  76.4536905  74.5881033  61.3286894  14.7369677   3.9911720
  61.1563318  13.8180072   3.7861321  62.0263499  14.9904401   3.3868095
  82.7508562  23.8667638  30.9669182  82.3447340  23.4151608  31.7067501
  83.6482352  23.5342891  30.9466812  42.2536391  13.9945704   6.7129967
  42.1970480  13.6265427   5.8311817  42.6699560  14.8477036   6.5902111
 107.6206207  62.7069092  81.2433147 106.7357159  62.7113247  81.6082382
 107.7133751  63.5650873  80.8296013  83.2192230  85.0023365  56.7462540
  83.5498810  85.8802509  56.9364262  82.5010681  84.8773003  57.3666239
  88.4622478  76.3966894  63.2311773  88.3727551  77.3430586  63.1188631
  87.5670052  76.0629034  63.1732750  94.9487782  78.7081385  83.5952091
  95.2632999  79.1565037  84.3802452  95.0299168  79.3595743  82.8985977
  36.6691052 102.7881052   8.6186478  37.0207440 103.6585523   8.4318325
  37.0620667 102.5459387   9.4571945  85.3516960  60.1748705  60.7241726
  85.0786018  61.0741186  60.5425167  84.8783302  59.6463680  60.0816441
  76.7302513  90.9527016  72.5724411  76.0848284  90.8317757  73.2688856
  77.4348831  90.3425789  72.7903318  62.8792971  62.1734006   4.2051289
  63.5814207  61.6721207   3.7904236  63.3020609  62.9807526   4.4978401
  31.7477291  24.9646146   7.6113197  31.4238232  25.4903752   8.3426735
  31.1371105  24.2295701   7.5558254  64.6262377  38.3844048   5.3347561
  63.9372557  37.7403600   5.4982922  64.5248430  38.6143071   4.4111225
  59.6573656  19.6858794   2.7723190  59.2723959  19.2345626   3.5235474
  58.9469259  20.2273804   2.4283955  63.8040972  68.9565516  96.1100483
  62.8792143  69.0215588  96.3479519  63.9828157  69.7601032  95.6215858
  94.5399458 105.0770046   8.5298607  93.6537630 105.2725507   8.8342735
  94.4210512 104.7590734   7.6348660  90.3442383  67.4720097  58.2427216
  89.5410633  67.3860455  57.7291536  90.0745201  67.2859526  59.1420889
  86.1491013  94.3045235  56.9752789  85.7687664  95.0511456  56.5125465
  86.1673069  94.5755768  57.8931189  98.8755226  40.8209801  70.4567146
  97.9374027  40.8162880  70.6468105  98.9349174  41.1258745  69.5513153
  18.8006132  50.2553899   9.8165199  19.3995636  50.0132615   9.1102097
  19.0773838  49.7192437  10.5596039  91.9477844  87.3572636  73.6318398
  92.0632362  86.5525246  74.1371202  91.0859108  87.6820946  73.8923979
  11.1781996  13.1870372  21.0040257  11.6481322  13.6666400  20.3218433
  10.2552241  13.3812577  20.8408424  93.9470863  86.9546890  50.8208561
  94.4995022  87.3716068  51.4820957  94.4504738  86.1927605  50.5340052
  35.0394106  66.6925812  88.1678104  35.1301384  65.8703089  87.6862812
  35.5130219  66.5443325  88.9863110  36.6933649  11.9371373  13.5079453
  37.3366802  12.5279242  13.8995430  37.2184342  11.2825209  13.0474922
  72.9813623  78.2843494  54.6672583  72.1270752  78.5529757  55.0052929
  73.0542898  78.7269068  53.8216496  96.4051533 102.0928955  85.6345940
  96.8693733 102.8863811  85.3679180  96.8433189 101.3875771  85.1583862
  56.1000078  55.2260644  10.0903103  55.8091658  54.3341214  10.2802822
  56.7021864  55.1296002   9.3525288  86.8381214  46.0907984  95.7667351
  86.3632011  45.2636385  95.6861877  87.6006413  45.9855604  95.1977730
 113.4373314   2.2755866  59.7261524 113.1208450   2.7572589  58.9619112
 114.3807155   2.1957450  59.5851421  74.2052889  86.7171669  87.6543713
  73.7575150  87.0959282  88.4108543  74.4102478  87.4677467  87.0968246
  73.7648981  19.5779235   6.1623547  74.0835589  19.5606334   5.2599213
  72.9533404  19.0708930   6.1395428  81.8049622  89.4337559  45.7803631
  81.4839935  88.9588642  46.5469694  81.9414043  88.7558556  45.1184940
   8.1895482  90.2155902   1.4302895   9.1021096  90.2115847   1.7191574
   7.8987729  91.1171414   1.5677330 111.2207413  37.5603318  86.7497253
 111.0368156  36.7324686  86.3058186 111.9504929  37.3607183  87.3361015
  85.2466679  72.2516680  45.8869076  85.8603191  72.8782368  46.2704086
  85.1204681  72.5588465  44.9891567  90.6655407  92.5437641  75.0360870
  91.2599087  92.1721268  75.6878853  90.3180695  93.3331394  75.4512882
  91.1095810  62.7784252  74.3271065  91.1679649  63.1097126  75.2232504
  91.8827820  62.2232628  74.2261362  75.2981776  17.8057439  12.3896668
  76.0372942  18.0472953  12.9478714  75.6996744  17.3849494  11.6294262
  99.1253757  71.8117857  88.6066532  99.9815750  71.6603613  88.2063675
  99.2901325  71.7675972  89.5485306  45.9891259  98.3791830   6.9166729
  45.3904664  97.7315284   6.5446636  46.7825352  98.3043386   6.3864491
  49.2668741  12.9277474  11.0353729  49.1732710  12.1347482  11.5632221
  49.5260828  12.6104314  10.1703045  98.7879086  68.9880657  92.6691818
  99.5641613  68.7081957  93.1542969  98.2382011  68.2057047  92.6248550
  87.0648384  68.0836487  82.9741859  87.3226357  67.1940708  83.2158947
  87.7873802  68.4040499  82.4342632  90.1492691  70.8012438  75.9567165
  89.7253323  70.6329584  75.1151800  90.5783367  71.6493511  75.8434010
 109.3202574 110.0753071  18.2344315 109.5281727 110.1892902  17.3070690
 109.7703869 109.2680551  18.4833500 105.8759689  81.3569450  62.4903727
 106.7396164  81.7650127  62.4284935 105.5876255  81.5409374  63.3843708
  94.6429920  78.1647825  61.4745760  94.7098160  77.2787333  61.8305063
  93.7726593  78.4637070  61.7379904  60.4708021  21.3039309  36.3423130
  60.4396265  22.0035607  35.6897995  59.6125429  20.8840710  36.2844822
  26.1554926  26.8022782  -0.0618771  26.5924710  26.0699231   0.3727791
  25.2630728  26.4918954  -0.2151325  57.6478403  37.2485978   9.5498631
  57.2509878  37.7042920   8.8075134  56.9919031  36.6030843   9.8131058
  87.8826046  91.7769814  55.5349064  87.6476002  91.0918236  54.9091673
  87.9577065  91.3205242  56.3728952  96.7658710  55.2215910  96.6459370
  97.0871067  56.1178923  96.7443562  97.2019672  54.8959732  95.8585167
  88.6367989  92.1132946  88.2689762  89.5289516  92.0014381  87.9406548
  88.1695652  92.5416183  87.5517082  61.8628025  89.5448780  73.6209154
  61.2638617  89.6618366  74.3583584  62.0706081  88.6105347  73.6269855
  61.7913437 110.8111000  91.6204453  62.5457621 110.4611969  91.1464691
  62.1729660 111.3356876  92.3243046  96.0894871  62.8816748  76.6794205
  96.4372730  63.7509060  76.4801264  95.3198242  62.7968502  76.1166954
  82.3989201 101.3395214  36.8801761  83.0562687 101.4750290  37.5626469
  82.8784752 100.9205437  36.1655354 104.2395878  71.2057638  69.1721201
 103.9987278  72.0542002  69.5441103 103.8377476  71.2023687  68.3033609
  55.7408333  82.7566433  94.2018127  56.6682673  82.5503349  94.0854549
  55.3242636  82.4493599  93.3966541  46.4444750  61.8781239   5.3251335
  46.3420885  60.9371144   5.4674408  45.6621092  62.1329076   4.8360130
  23.5878199   6.6692025  12.7116463  23.4502619   6.8868214  11.7897198
  22.9106158   6.0220248  12.9085991 101.2709999  19.3275106  60.8238840
 101.7519474  19.3248415  59.9962950 100.3571987  19.4558036  60.5694437
  79.1142750  68.6833000  74.9284840  78.9186478  69.2700672  74.1979551
  79.2374802  67.8260756  74.5207882  99.9205208  65.9788322  83.9692974
 100.7547951  65.7161379  83.5804462  99.8581505  65.4632568  84.7733688
  83.5246563  83.5338593  95.2608967  84.3089581  83.4991741  95.8085251
  82.8426647  83.1240177  95.7930183 102.9992008  58.0639362  59.2562056
 103.8338470  57.6370764  59.0628386 103.2383919  58.9579344  59.5007277
  56.2411022 101.6871929  79.2965603  55.3643227 101.3136864  79.3859243
  56.2111568 102.1742725  78.4731007  10.0391059  99.6093941  76.2108660
  10.1316695  99.5904255  77.1633911   9.0937285  99.5935631  76.0617304
  59.2499655  16.1499364  19.5115921  59.4772356  16.8978936  18.9592049
  59.9874514  15.5475241  19.4143745  71.5581530  28.1153256  13.7718651
  70.8629149  27.6784188  13.2799408  71.3762396  29.0490681  13.6656830
 107.2365856  91.2323284  84.1554451 106.4648628  90.7851601  84.5028973
 106.9185638  92.1000004  83.9059448 113.6719894  39.5745206  44.6440554
 114.4681931  40.0972605  44.7391367 113.9814472  38.7184358  44.3481016
  76.7883587  96.7195892  78.4672451  76.9801092  95.8120155  78.2310820
  76.6694021  96.6999626  79.4168234  18.6834448   8.7257010   7.6893684
  17.8037089   9.1029269   7.6885292  19.0519636   8.9754874   6.8420002
  82.3960590  96.8498898  57.3984194  82.7542496  97.6008701  56.9251728
  82.1306801  97.2056293  58.2465076 110.2879650   3.6819129  49.2359829
 109.7953541   3.0651908  49.7774792 109.6241695   4.2752891  48.8845253
  64.7445917 103.1955910  71.7114305  63.8287067 102.9276276  71.7861652
  65.2245951 102.3764801  71.5894032  77.1555185  86.7340183  88.8169861
  77.6559830  87.1604919  89.5126057  76.2922144  86.5822411  89.2015648
  87.6311796  54.4116647  10.2549908  88.3723944  55.0095994  10.3514454
  87.5585097  53.9809377  11.1067078   0.5260043  69.7951937  95.6496716
  -0.3356214  69.4320822  95.4447746   0.4231124  70.1794672  96.5202904
 110.1156902  70.4027653  89.7063065 109.9230003  69.6501303  89.1471672
 110.7817078  70.8941126  89.2254353  87.2487164  64.1869545  60.1200151
  86.5415478  64.7567701  59.8176098  87.2103214  64.2436457  61.0747623
   3.5399871  91.0026932  70.7325315   2.7910380  90.5348206  71.1018419
   3.8491587  91.5609455  71.4459753 115.5526239   4.9971728  90.4344368
 114.6561414   4.6752219  90.5287552 115.6237394   5.2408652  89.5115089
  53.7506771  85.2696037  58.3761930  54.3739700  85.9944248  58.3275795
  53.7775469  84.9916077  59.2917442  60.3594797  59.5359856  27.1753284
  60.6417578  58.8497121  27.7799675  60.7339209  60.3404195  27.5343964
  66.3047075  84.1294003  43.9280367  67.1990728  84.2241478  44.2556953
  66.3905478  83.5705948  43.1556368  59.5152968   5.6564338   3.7436554
  60.0651568   6.1828095   4.3240139  59.7615355   5.9358556   2.8618881
  31.3367909  35.6485802   7.0564625  32.1755188  36.1046273   6.9872829
  31.1053007  35.4344994   6.1526844  78.3356571  66.2599421  69.1068554
  78.3872843  66.7337370  68.2767439  78.4762239  66.9310045  69.7747993
  32.3793381   3.4461171  14.3399212  32.8998869   4.2375190  14.2022774
  31.5046185   3.6774499  14.0275356  56.4035910   9.6034915   5.3774330
  56.5804976   8.8382346   5.9245369  55.7011812   9.3217141   4.7913811
  64.9080896  87.1055889  89.9063206  64.2716789  87.7240467  89.5475483
  65.2172756  87.5202656  90.7117271  84.1106415 104.5617676  70.7242107
  83.1924820 104.4531631  70.9720278  84.1152287 105.3295135  70.1525688
  39.9201935   7.8025061   7.8246662  39.3552750   7.0306260   7.7886459
  39.3212002   8.5425288   7.7256653  51.3357353  81.3120556  77.5730944
  51.5578890  82.2046566  77.3082256  50.9605789  80.9152889  76.7869234
 116.6521454  75.8423615  94.6697617 117.4894905  75.6301022  94.2574024
 116.0185051  75.2744198  94.2313957  94.7828674  85.3486061  89.5406914
  95.5601597  85.0466251  90.0106430  94.8274136  84.9045944  88.6938763
  50.0541704   0.9049470   0.2672741  49.8938292   1.7424924  -0.1675060
  49.2425745   0.7214457   0.7404110  71.4901876 100.7273102  88.0995750
  70.6441689 100.7128143  88.5471058  71.9460154 101.4814186  88.4734249
 102.0006180  91.0595512  83.0646324 102.6043987  91.1082077  82.3234749
 102.0097160  91.9403839  83.4391880  61.0258627  80.5762196  90.2758217
  60.4306889  81.0169697  89.6694088  61.0252857  81.1297417  91.0567474
  28.8335818   9.5806701   6.1609146  29.3030089   9.9743754   6.8963501
  28.2731455   8.9166266   6.5623924  70.3840923  94.5655441  57.7429390
  71.1251402  94.0202808  58.0070782  70.6667280  95.4607296  57.9299927
  57.9517746  78.9115763  92.4834919  58.3358717  78.4361362  93.2201481
  57.4841309  79.6423912  92.8877831  19.6381634   7.3849589  17.5927612
  19.7319954   6.5567166  18.0633518  19.5708674   7.1311480  16.6722843
  75.8041000  82.9378796  90.2119827  75.0088787  82.7822113  89.7024441
  75.8243608  83.8861847  90.3405952  89.3968201  71.5667439  49.4337273
  88.6921787  70.9239340  49.5144272  88.9478779  72.4115419  49.4020844
  66.0346079 110.0510216  31.1337185  65.1033688 110.2274609  31.2674642
  66.4504910 110.9119415  31.1794591  33.2996004  31.4254338  28.3953068
  33.3639782  30.5280454  28.7220928  33.8734930  31.9315106  28.9704296
  76.3598013  74.0751839  75.4724646  75.6494427  74.5967388  75.8461094
  76.1025763  73.9384937  74.5606613  96.5381145  68.0139589  80.0356483
  95.9149265  68.5361385  79.5304680  96.2906837  68.1625462  80.9482956
  39.5249718  27.4928433  16.3262817  39.3128651  28.3982236  16.5532753
  38.7030428  27.1297890  15.9963581  94.1370010  62.8860903  74.6404886
  94.6992588  63.6454248  74.4871569  93.4994411  62.9121828  73.9269972
 106.3819695  62.1678305  89.7220039 107.1383286  61.6250229  89.9445152
 105.6266022  61.6567850  90.0126553  87.6514339  65.9607792  66.7257166
  88.2017326  66.1176443  65.9583855  88.2116508  65.4682779  67.3255730
  58.6747854  31.7413384  10.7823250  59.2260092  31.2444360  10.1777813
  58.7002962  32.6378590  10.4479191  58.2936400  18.1218201  16.9047329
  58.3553904  17.1705062  16.9908783  57.4412554  18.2704169  16.4953587
 104.6238041  73.3699846  78.5172844 104.4178391  72.5285912  78.9245510
 104.4698524  74.0144968  79.2080355  47.7638739  27.6288468   7.6878807
  47.7168101  28.5615594   7.8977940  47.5440424  27.1873338   8.5082314
  95.0272655  57.7546644  80.6971836  95.0794792  58.3365965  81.4553738
  95.5265903  56.9798279  80.9551144  84.9665737 103.4832668  59.2351961
  84.9056053 104.3405819  59.6565437  84.2045116 103.4457397  58.6571836
  93.8757801  51.7403269  92.5217724  94.0307808  50.7995129  92.4376488
  92.9430580  51.8122196  92.7244759  53.8794344  13.0703742   6.2748215
  53.8476008  12.1156079   6.2145111  54.6969050  13.2540089   6.7376873
  53.6282825  94.3539429  82.2346592  53.2455397  93.8626766  82.9615688
  53.9629364  93.6816502  81.6411304  77.9888678  89.3005180  69.2327547
  78.1350374  88.3856583  68.9921284  77.6217985  89.2601871  70.1158571
   1.0886531  65.2023649  80.6266403   1.9280772  65.1101542  81.0773087
   0.8649020  66.1279297  80.7240677  73.6479759  71.1037683  90.3790188
  73.3257532  72.0037794  90.4279423  74.4599104  71.1670637  89.8760509
  94.5420265  89.1065598  39.9263954  95.1588726  88.4903812  40.3214312
  95.0707912  89.8784733  39.7244287  78.4842699  55.5745656  26.0587189
  78.6607569  56.0802419  25.2653858  78.4168165  56.2316186  26.7515156
  45.2954977   4.4957644   7.1527836  45.3201979   5.3604848   6.7430470
  45.3615587   3.8820798   6.4211723 116.1943150  80.7723618  93.8603687
 116.7326355  80.1161289  93.4178734 115.7849026  80.2979755  94.5839500
  18.3850228  35.2277045  39.2149591  19.3173062  35.3250842  39.0210772
  17.9420792  35.5566077  38.4327483  69.7805071  97.8858948  85.2517509
  70.0363493  97.4851418  86.0825157  70.1150322  98.7811756  85.3046417
 111.2769508  76.2635231  72.0565796 111.8628025  77.0017767  71.8892717
 111.8559933  75.5023384  72.0957375  38.4888952  35.4291779  28.8711807
  38.2116192  36.3453347  28.8695976  37.7921408  34.9688775  29.3390343
  23.4658688  26.7823560   1.7638466  22.9710644  27.5967748   1.8539497
  23.4170407  26.3754803   2.6288864 111.1640835  85.8896160  82.5684071
 110.8510208  85.8382702  81.6653061 111.7970562  85.1755142  82.6434517
  10.1374852  10.2564578  65.6622362  10.2213036  10.5423312  64.7525740
  10.0767838  11.0692744  66.1641073  96.4148808  85.9755421  72.8222370
  96.2779999  86.6943359  72.2051239  96.3706493  86.3885498  73.6846161
 113.0440998  83.5290718  63.7596989 113.5618687  82.9029846  64.2658281
 112.1800232  83.5133553  64.1712284  24.7229247  85.1026535  58.7385082
  24.2652564  84.8642254  57.9323244  24.0541320  85.0416470  59.4205904
  11.6445195  16.6395717  92.8987026  12.2433888  16.8706660  93.6087608
  12.1827351  16.1404853  92.2843266   9.1759448  48.3491945  81.7479420
  10.0739531  48.6326599  81.5762615   9.2107444  47.3944521  81.6889381
  91.4136410  95.6098366  87.0813847  91.9715595  96.2735939  86.6759396
  91.8666363  95.3790855  87.8924179  93.8108730  90.3119946  88.4738541
  94.2898083  90.0503349  89.2602348  94.4656467  90.2893734  87.7760029
  53.6893862  47.4818093   3.7328026  54.1395968  48.0761105   4.3331024
  52.9436987  47.1534974   4.2351791  13.7088542 105.6587791  70.0389528
  14.5695739 105.7971573  70.4342413  13.0882602 105.9306240  70.7151127
 102.5803471  78.4635925  37.6938486 102.3988438  79.3553686  37.9905391
 103.4462357  78.5173082  37.2893906  96.6855240  81.3616848  79.9753189
  96.8008041  82.2988033  80.1326656  97.3792648  81.1357403  79.3557215
 101.3096714  84.2392635  77.1694231 100.6370258  84.7784233  77.5854492
 100.8236027  83.5232449  76.7604065  79.0775603  15.7399184   1.3503239
  79.9989336  15.6846482   1.6037914  78.8692587  16.6724974   1.4063713
  93.4833925   0.3516061  12.8151104  93.5968512   0.0324303  11.9198582
  92.5886172   0.1025445  13.0465862  55.5959654 100.9896851  56.5295076
  56.2032986 100.8886909  55.7965851  55.8859158 100.3419399  57.1718359
   7.3570096  14.8336272  93.7769222   7.0628487  15.2877479  94.5665264
   7.8692566  15.4875617  93.3013153  70.9867686  26.5868813  27.9258225
  70.3581351  27.2256238  28.2620880  71.7830008  26.7444951  28.4331677
  14.2199915  72.3210580  27.2748253  14.9477833  72.6800019  26.7671749
  14.0089768  73.0066068  27.9086468  86.2074089  81.1843014  56.4138508
  85.6849289  81.5477562  57.1287966  85.6087208  80.5947113  55.9553957
 101.2545586  74.8168325  74.6105528 102.0522594  74.2939425  74.5300436
 100.6558323  74.4412851  73.9650106  21.1004578  34.2859702  83.9252472
  20.5938565  34.0965514  84.7149944  20.9775101  35.2242427  83.7811279
  27.3658198  51.8547494  27.7137825  27.2611588  50.9954602  27.3052570
  26.5018624  52.0557648  28.0734989  70.6465149  78.8119030  59.2942333
  69.8513317  78.2799768  59.3253469  71.1538076  78.5290384  60.0550747
  76.4231157  74.5359707  96.1047840  77.3377037  74.8065281  96.0238075
  76.0038424  75.2497435  96.5853786  86.4472580  66.4097595  50.5292034
  87.0155048  66.8525934  49.8989487  85.7501221  66.0277462  49.9960041
  23.8259272  98.5529232  82.5754261  24.7516398  98.5983562  82.3362160
  23.8286834  98.4728241  83.5292721  65.2816248  76.2368298  70.3204155
  65.4474068  76.4858818  71.2296581  65.4616499  75.2971172  70.2928448
 107.6622295  96.1258793  70.2692461 106.7674828  95.7862186  70.2865124
 108.2048798  95.3615189  70.0755453  20.2746331  22.8987556  87.9034519
  21.0761296  23.3118110  88.2247353  20.3665768  21.9771915  88.1453037
  40.9799784  24.4882829  12.3026344  40.4678171  24.8306329  13.0352470
  40.8454149  23.5412604  12.3381588  83.7847805  63.9856958  50.9736872
  84.1009235  63.1976032  50.5318737  83.8536072  63.7813807  51.9062948
  75.0940418  94.2640305  92.5784874  75.9815788  94.1618156  92.2348785
  74.9845171  95.2093315  92.6816082  74.2509669  40.8240182   1.2898705
  74.3612879  41.7110593   0.9474728  75.0198858  40.3485352   0.9753677
  80.5855292  52.6903111  19.4931099  80.7530802  51.8681866  19.0323803
  81.0992544  53.3415753  19.0154240  90.1964569  74.7772217  83.7396240
  90.3188610  75.4820156  83.1035995  90.5460072  75.1297617  84.5580101
  98.8941383  99.0094090  90.8238506  98.0528355  99.4426441  90.9679127
  98.6961651  98.2984924  90.2142239  92.8447819 110.5968761  78.6421824
  93.5568428 110.8330822  79.2366648  92.3676109 109.9064350  79.1024303
  65.8385676  36.8157441  27.5540611  65.7435435  36.5386063  26.6428062
  66.2577170  37.6746423  27.5007221  69.6409798 101.2281418  55.2206802
  70.1112270 100.9236622  54.4445467  69.9133587 102.1400070  55.3233671
  80.9207552  24.2113549  26.4045403  81.8254393  23.9048249  26.3426373
  80.5608862  24.0741164  25.5282471 113.8118839  88.2022953  93.1467247
 114.6948433  88.0012798  93.4569168 113.9469910  88.6365032  92.3044395
 109.9764919 108.1603432  80.5259991 110.5949497 107.5357628  80.9049892
 110.5161190 108.9107704  80.2771854  35.1386517   9.6015508   8.0057594
  34.3043249   9.1604335   8.1655666  35.1336306  10.3478915   8.6050770
 107.4472618  54.2511225  48.4112215 106.6178226  53.8012314  48.2503891
 107.2712231  54.8163652  49.1633797  69.9801207  74.6048212  47.6890469
  70.4891443  73.7941885  47.6886129  69.0789318  74.3216705  47.8436804
  99.4429398  86.6100311  92.5213242  99.5319462  87.4017906  93.0518150
  99.7256851  86.8751049  91.6460991 100.1971912  90.1581001  49.4202137
  99.7837448  90.7366276  48.7794304 101.1356258  90.3125191  49.3119144
  50.2826327  26.9237859  25.2254364  49.7443407  26.2125451  25.5727264
  51.1372870  26.8010384  25.6386253  53.1780863  76.6623020  83.5967541
  54.0462732  76.2592363  83.5920525  53.0684280  77.0052338  82.7098465
  94.3334770  75.9495068  62.9636955  94.6312714  76.3254833  63.7920618
  93.6771393  75.3005934  63.2174110  93.8523865  90.3093719  50.2188540
  94.4408703  90.9103966  49.7620249  94.3074512  90.1028919  51.0352564
  67.3009634  75.8216572  76.1455202  66.8467236  76.6289759  75.9044075
  67.7917099  75.5792665  75.3602505  84.1322517  98.1262398  51.9729757
  84.4940376  99.0114594  51.9313717  84.6646214  97.6208019  51.3586807
  95.6815243  58.9922810  65.0174284  95.8194923  58.0522633  65.1338530
  96.1429691  59.2033768  64.2058039  70.1175117 109.1048336  60.0987387
  69.9152803 109.6889687  59.3678999  70.3401947 108.2711506  59.6844816
  92.5884533 101.0668278  36.4106035  92.0917320 100.8598518  35.6189847
  93.3395958 101.5705872  36.0971761  61.9438952  48.7002808  18.6667416
  61.2815493  49.2522580  18.2509872  61.9685190  48.9991624  19.5757458
  97.9212284 111.1144161  26.0607529  98.7210369 110.5896473  26.0947800
  97.6027870 111.1244774  26.9633746 116.0692692  91.0663509  94.9203587
 117.0045662  90.9788990  95.1041889 115.6834030  90.2549553  95.2504826
  83.8661671 110.0941849  61.5471888  82.9113579 110.1189518  61.6101027
  84.0763378 109.1645241  61.4588261 116.5394020  80.5686092  52.6991558
 115.7037926  80.8714771  53.0544662 117.2004795  81.0080338  53.2340527
  82.7539253  71.5925646  75.2001095  82.1714592  70.9362364  75.5824757
  82.5873661  71.5413570  74.2589045  19.3783145 103.1225586  90.0454617
  18.5170989 102.9203510  89.6798801  19.9860911 102.9794693  89.3199444
 107.4069691 109.7724342  92.0855427 107.5128746 110.2546406  92.9055977
 107.6155567 108.8661003  92.3119736  34.7650563  18.3546882  55.8327770
  33.9179265  18.1857448  56.2451696  34.8332917  19.3091254  55.8080196
  74.6800518  90.0467777  77.9400539  74.4416523  89.1288280  78.0695581
  75.5098057  90.1468658  78.4066677  98.5224056  70.4280996  80.6473064
  99.4514179  70.5605745  80.4585934  98.0895710  70.5244875  79.7990131
  20.3857171   1.2279372  41.9269371  21.1174618   0.6843047  42.2189140
  19.9147736   0.6790023  41.2999439  99.5765877  74.6811342  58.5818052
  99.0871048  75.1528406  59.2556953  99.6204853  73.7807608  58.9037180
  99.6852493 108.3340359  92.2249508  99.2730141 109.1976070  92.2485352
  99.3635941 107.8935337  93.0115414 104.9214077  58.0621862  50.2395391
 105.6770420  58.0165863  49.6537256 105.1608944  58.7240124  50.8882809
  90.9336680  59.8978478   4.1129658  90.2519243  59.4955117   3.5748360
  91.1977404  59.2071778   4.7208187  74.6632147  95.9000015  65.2366209
  75.1980829  96.5288353  65.7210970  73.7704992  96.0582066  65.5436325
   1.1995654  73.1916714  94.7447586   1.7505984  73.0138826  95.5069828
   1.7748027  73.0449104  93.9938927  73.0055952 108.2849312  66.8320799
  73.6446333 108.5495853  67.4937630  73.1417370 107.3428822  66.7309141
  73.9152861  74.6787262  79.9826193  73.4447050  73.8753748  80.2049160
  74.6322727  74.7192335  80.6154823  63.5767191  15.1555306   2.2225925
  63.4535616  15.7859666   1.5129349  63.5908430  14.3036134   1.7863915
  84.5434475  95.6441784  55.0834274  83.7219238  95.2774429  55.4102898
  84.2737961  96.3033390  54.4438696  76.8181896  67.8766823  94.0850258
  76.8220711  67.7377605  95.0320816  75.9557295  68.2489252  93.9010906
 113.4112358  90.8501720  76.4427614 113.0160713  90.2015686  75.8601952
 114.2880344  90.5097961  76.6205072  99.9085236  70.8121920  90.9924316
 100.5185795  71.2869263  91.5569687  99.6521187  70.0468779  91.5069962
  76.5794134 103.0803299  67.7926159  76.5210533 104.0000248  68.0514479
  75.6767750 102.8287697  67.5972128  37.1428555  26.5230710   8.5789082
  36.4439791  25.9092862   8.8049194  37.8938454  25.9660394   8.3740398
 109.8795605  90.8919716  83.9819241 108.9475060  90.9122658  83.7648869
 110.2385426  90.1959419  83.4315491  46.1205977  52.4262387   3.4154293
  47.0286291  52.5480038   3.1381390  45.7045763  53.2725865   3.2515404
  60.5471819  35.6733949  11.5618107  61.2190741  35.9826524  10.9542248
  60.7676905  34.7546822  11.7153618  16.8046015  24.1826684  11.4644310
  15.8507555  24.1313607  11.5259049  16.9929474  25.1208550  11.4405415
 103.9143181  88.3023453  77.0657015 102.9720974  88.1620121  77.1593237
 103.9871407  89.0590954  76.4841032 111.0142136  41.2866879  48.2374191
 110.4449368  40.5750751  47.9445601 111.8605518  40.8676243  48.3933544
  87.9679298  93.6914062  93.3653450  88.4308243  93.4031963  92.5786400
  87.9722881  92.9257679  93.9398098 114.8083019  87.4693298  87.6561832
 114.8770523  86.6054916  88.0627441 115.6969929  87.6660252  87.3599243
  20.3503817   6.3796193   0.3259346  19.4354361   6.6523749   0.3945515
  20.3385990   5.6576354  -0.3024223  88.0409605   2.1421771  71.2178135
  88.8514549   1.9662719  70.7399130  88.2771475   2.8234820  71.8473196
  77.4853802  95.0959969  74.9212790  76.8470860  95.7173347  74.5709133
  78.1077099  95.6390953  75.4049921  58.8636606  65.1626832   5.7669518
  59.5806044  65.1740414   5.1328346  59.2891138  65.3072984   6.6121170
  97.0385170  94.3833447  55.4457331  97.8877926  94.0167809  55.6918907
  96.9598293  95.1794434  55.9713459  29.0619963  38.4568078  13.2508728
  28.1238096  38.6043031  13.1313679  29.4604414  39.3137700  13.0989811
 103.9624500  70.7326174  90.0313759 103.7904930  71.0563231  90.9156132
 103.9018154  69.7804880  90.1088715  37.1668976  53.4067590  32.8102657
  37.3769062  53.1363065  31.9164059  37.8633421  53.0263192  33.3454868
  16.3500743  87.8735352  84.2711353  16.9778876  88.4075165  83.7843704
  15.5765586  87.8405380  83.7082672  15.6435351  80.4350567  94.8770905
  16.0202555  81.1008835  95.4524136  16.0244517  80.6174564  94.0180969
 100.8546925  79.4732237  68.5177851 100.3456402  80.2760887  68.6295986
 101.2715435  79.3335581  69.3680573   6.2724547  61.1291027  78.8306379
   5.4475074  60.8204937  79.2053938   6.1376910  61.0828304  77.8841066
  80.8528519  70.3859997  64.1046715  80.7643509  71.2012005  63.6108637
  81.4415169  70.6060266  64.8266745 107.4006653 111.2451935  77.5074339
 106.5725422 110.9321022  77.8713226 107.9921818 111.2862396  78.2588673
  96.0457325  77.7052975  57.8743982  96.0050297  76.8967152  58.3850574
  96.9816589  77.8840113  57.7830362  93.1953907  82.6319218  62.6086712
  93.0599785  82.1161461  61.8137693  93.1344509  83.5416222  62.3171997
 116.4295578  15.1253104  76.3671207 115.5298233  14.8354101  76.2165833
 116.5877438  15.7789099  75.6859350  49.4520807  88.0917454  93.2393456
  49.1509390  87.8203201  92.3722363  49.5049477  87.2777462  93.7401772
  94.5480156  81.4730358  95.9705257  93.6923122  81.8748188  95.8203125
  94.8140430  81.7914867  96.8331051  50.8673876  58.9399010   1.5943691
  50.0615996  59.4241101   1.4141151  51.3662165  58.9930589   0.7791588
  10.1813637 109.8064996  18.9397118   9.2914330 110.0108720  18.6525032
  10.4823529 109.1350366  18.3275196  86.2839317  99.2907047  68.1469488
  86.3936329  98.6319542  67.4612093  85.3957272  99.6238708  68.0191326
  85.0165272  80.6323242  66.3300323  85.6337643  80.6019020  67.0610046
  85.1892471  79.8301554  65.8371592  34.9649590  48.7574250   6.5197537
  34.2819279  48.6965710   7.1875832  34.9685162  47.8963811   6.1016342
  51.7228811  26.7283971  14.1569111  51.7896574  26.2694794  13.3195564
  52.5915449  27.1068913  14.2925522  51.7590254  23.6994416  27.5987598
  51.5383070  22.7905661  27.8023693  51.9583433  24.0935332  28.4479878
  53.8590353  42.4668938  13.1025574  54.4364184  41.8322617  12.6781628
  53.1705015  42.6323850  12.4585411  29.1756491  83.7202835  76.0663414
  29.0819697  84.1935253  76.8930817  29.5241790  82.8650665  76.3180685
 108.6347801   8.1465201  94.9292946 107.9322464   8.0101924  95.5649853
 108.2130558   8.6010318  94.2000484  82.0947742  85.3903675  68.2528639
  82.8936672  85.7553673  67.8723574  81.9793701  84.5508480  67.8077507
  27.2614150  98.5867023  74.0254498  27.6865916  98.5916519  74.8830271
  27.4615149  97.7232933  73.6638927 115.4597950  73.9061642  84.2472458
 114.7619820  74.4768667  84.5690727 115.0324345  73.0613232  84.1063976
  27.0401513  12.2426562  87.0723629  27.2247826  12.6902442  86.2466431
  27.4930798  11.4028506  86.9960594  24.9964940   4.8405604  65.5299902
  24.1679799   5.3092818  65.6304789  25.5143010   5.1035934  66.2908649
  47.1059357 100.5006220   2.4334881  46.7566239 101.0749819   3.1148979
  47.3657643 101.0947754   1.7294189  56.4647883  65.8907563   6.5538570
  55.6771105  65.5914933   6.0997269  57.1568602  65.3071648   6.2429020
  80.0467587  89.7061253  84.9264908  79.4737673  89.3843746  85.6224632
  79.4630003  89.8451710  84.1807461  20.7486682  80.5333042  87.7767849
  21.0175757  81.3253784  87.3114491  20.4001384  80.8514500  88.6095810
 110.6856346  50.2290058  90.2082539 111.2915134  50.3230047  89.4731998
 111.2090206  50.4471016  90.9794426  86.2134933  84.7644138  62.7970791
  86.9845867  84.4162273  63.2447529  85.8674049  84.0211964  62.3030329
  12.7192073  66.1093664  78.9335012  12.9142718  66.6537952  79.6962404
  13.0790572  65.2502537  79.1541100   4.0675692  42.1970415  75.3304338
   3.4007411  42.3445272  76.0011196   3.6319213  41.6517448  74.6753788
  53.2458210  90.4974937  96.0140800  53.3563948  90.3104591  96.9462967
  53.7566710  89.8196793  95.5715561  36.5799653  16.4276557  84.4593430
  35.7267128  16.8432956  84.5836449  36.6158329  16.2295585  83.5235596
  79.5183229  75.2389526  72.1411705  78.9113617  74.5101547  72.0120192
  79.1240883  75.9669876  71.6607809  12.5440173  63.9902067  72.5194883
  12.7254729  64.1229820  71.5890741  12.3175101  63.0628204  72.5893784
  42.4691330  14.6496921  83.9663887  43.0129372  14.5389991  84.7462940
  41.9440209  15.4288535  84.1491508  91.0950470  92.6143074  80.2227402
  90.7051086  91.8263817  80.6013680  90.3471565  93.1328201  79.9260283
  89.1960734  50.4219777  13.5421536  89.7550028  49.6752126  13.7570068
  88.6760443  50.1249272  12.7954552  66.8937159  88.2811642  57.0429802
  66.9296932  87.3246479  57.0474005  67.8028774  88.5544777  56.9207048
  88.8879204 108.9768887  78.8992834  89.3192196 108.1247425  78.9629412
  88.0739784 108.7987614  78.4281111  20.4706925  38.2641846   5.4000923
  20.7450360  38.0394513   6.2891743  20.9026831  37.6150853   4.8448631
 100.1945496  73.8616133  82.1224117 100.5162621  73.0903816  82.5892448
 100.7611752  73.9301205  81.3539982  86.5141678  93.4276772  72.9964781
  87.2395039  93.8004589  72.4953365  86.3673210  94.0527344  73.7063837
 102.5665474  85.0339603  59.5484686 103.3409786  85.5914974  59.4734144
 102.7342129  84.3088436  58.9465427 109.9473381  81.0109329  82.7629089
 110.7253742  80.7950497  82.2488117 109.2344284  81.0243225  82.1243095
  97.8240871 104.7675514  94.6081543  97.6958752 104.8811913  93.6664104
  98.4534454 104.0498543  94.6793079 109.7131157  61.5022993  67.4570036
 109.6622849  61.9088984  68.3220625 109.0048504  60.8584213  67.4530077
  15.2130275  73.6832190  60.7195425  15.0948291  74.5039415  61.1977339
  15.2663951  73.0140162  61.4018536  19.2152661  43.2814175  12.8037617
  18.5704678  43.6781937  13.3894608  19.6650093  42.6336343  13.3462879
  67.0904272  12.1166426  19.9250481  67.7179735  11.3957650  19.8725769
  67.5335139  12.7820784  20.4514477  19.2262320  92.0640755  41.7119122
  18.7707000  92.0074368  42.5518656  19.2701106  91.1595726  41.4017820
  61.4123362  15.4329926  12.6001617  61.3111513  16.1461598  11.9697830
  60.5779856  14.9649293  12.5682423  49.2014712  24.6041734  14.8746464
  49.6043604  25.1894433  15.5160305  49.9411410  24.2088277  14.4133255
 111.4871597 105.9458733  69.3935061 111.0755825 105.4868031  70.1256895
 110.7660103 106.1336231  68.7927294 100.6204510  96.3725281  85.4249859
 100.0786877  95.8198643  84.8617077 101.1490917  96.8890762  84.8167419
  88.8143730  98.3723640  68.8830948  87.9483604  98.7660885  68.7771082
  89.4222641  99.0438080  68.5734940 105.7100105  80.4708672  91.4699745
 105.1676655  81.2118340  91.7402935 105.1461411  79.7062159  91.5865517
 101.1093807 100.3845119  73.5776615 101.2831974 101.1908150  73.0919647
 101.9732857 100.0836849  73.8594532  85.1313132  34.3850095  15.5299637
  85.8286112  33.9033658  15.0849602  84.4458502  33.7331826  15.6765625
  71.9637602  47.8227288  13.6645863  72.6232546  47.3514420  13.1554768
  72.3801630  47.9756028  14.5128033  32.0319687  30.3616099  77.5401211
  31.5785443  30.5529933  76.7191410  32.8869378  30.0271373  77.2692013
 105.9520817 100.2420616  73.4407854 105.6350803 101.1434937  73.3845186
 106.1595058 100.0042725  72.5370884  93.5694599  78.9324951  57.9796839
  93.1204796  78.6122513  57.1973181  94.4562149  78.5791874  57.9084539
   1.2718825  79.3061972  73.6509705   1.1251979  78.9310265  72.7826595
   0.9925990  80.2180004  73.5682201  42.7350825  11.2133271   1.2815067
  43.1399363  11.2873084   0.4172966  41.7997092  11.1206061   1.1006615
 115.8654993  19.5235974  12.9844257 116.3492983  20.1879556  12.4937031
 114.9531477  19.8096139  12.9393551  82.6735115  72.3033094  85.4602528
  82.8374577  71.3611937  85.5022526  82.9600525  72.5574207  84.5830154
 109.1068727   8.7793021  72.0677662 109.6170694   9.5406966  71.7916870
 108.7526876   9.0253787  72.9223013  89.4960499  88.4300232  73.7687397
  89.7679806  89.3477821  73.7671423  88.7767792  88.3944416  74.3993092
  40.7975500  22.8153951   4.5375320  41.5614050  23.2068354   4.1138336
  40.2381485  23.5601289   4.7581551  63.8014793  78.1213236  77.5262213
  64.0480661  77.2245455  77.2999001  63.0193377  78.0247879  78.0695152
  96.3709372  42.9663331  12.5400898  96.6729277  43.4896619  11.7976925
  96.8773096  42.1559960  12.4836514  73.9821529  79.9479628  96.7613792
  73.0348444  80.0851059  96.7669106  74.1946888  79.7813511  95.8430672
  71.8330210  15.0029570   6.5907547  71.1787718  14.7081048   5.9573051
  72.6715773  14.7517926   6.2035057  72.8308218  27.5152833  32.8363583
  73.2993811  28.2024533  33.3101532  73.3910006  26.7434174  32.9179832
  72.3474026  60.2136707  58.4484625  71.7636967  60.9508944  58.2695055
  72.6296616  59.9162197  57.5835466  44.4180506  49.0541703  20.9969303
  45.3326720  49.2279107  20.7744476  44.4599169  48.3707768  21.6658470
  10.7595496  68.4666443  75.6327295  11.2570338  67.6754093  75.4261160
  11.1878924  69.1576481  75.1274920  91.6913414 100.8389378  66.6267872
  91.2310505 100.8912849  67.4644184  91.2860680 101.5183544  66.0879183
  91.3981915  63.3509302  83.8467407  91.2287235  63.0444145  84.7375584
  91.1061001  64.2624760  83.8474655  87.4299431  90.6283474  94.5748615
  86.5668106  90.9760094  94.7992516  88.0259895  91.0485363  95.1948738
  15.9728449  47.8706319  10.0874493  16.6626471  47.3159844   9.7230598
  16.4054173  48.7061078  10.2637741  83.0951595 105.6848621  80.2987480
  83.0851173 104.8802948  79.7802877  82.9150581 106.3799477  79.6657848
 117.4338722  93.3979988  64.7443295 118.0117130  93.3178043  63.9854479
 117.7500057  92.7342510  65.3572941  28.8112866   2.4427276  89.4649124
  28.0572068   2.9751449  89.7181225  28.6283814   1.5781455  89.8327255
  93.4282303  87.8592396  92.9577637  92.9885578  87.1164131  92.5440788
  94.1739655  88.0443668  92.3869514 115.9842092   3.3630710  58.4376144
 115.6833774   4.2710643  58.4734678 116.4618570   3.3014922  57.6103973
  95.4730034  95.8099461  64.6544552  95.4880142  95.1219082  63.9891624
  94.5738506  96.1378670  64.6396208 112.8465462 110.6591129  54.8269176
 113.7873459 110.7995701  54.7201395 112.4631214 110.9723282  54.0077019
  55.1539152  19.5026070   4.8008797  54.4798010  19.7150952   4.1553947
  54.7041910  18.9570624   5.4461357 100.6202126  68.9928722  89.0872765
 100.3568649  69.7034740  89.6720219 100.0577068  69.0936661  88.3193874
 106.0979843 109.2010403  74.2902517 106.6934967 109.8816109  73.9765501
 105.8997154 108.6792374  73.5126638  78.6230868  41.9361836   2.7732441
  77.8389376  42.4448830   2.9795429  78.8091105  41.4471871   3.5748169
  98.1450367 104.0840530  52.2815990  98.8149548 103.4494114  52.0272875
  98.6317062 104.8901939  52.4534082  75.6632328 104.9049091  75.1851034
  76.0873032 105.7506657  75.3302813  75.2487516 104.6978760  76.0227060
  59.6789282  11.6618974  39.2377827  59.7023695  10.7138688  39.3678925
  58.9672583  11.8003518  38.6128113  84.0007496  70.1160765  78.6759853
  84.2892170  70.5770493  77.8882504  84.8121452  69.8712254  79.1208649
  62.6049059  32.6818234   1.5422985  62.9178732  31.8617875   1.1604378
  63.3412188  32.9988725   2.0653126  76.0858362  16.9171292  15.2970001
  76.5289133  17.1736104  14.4882175  75.8233946  16.0086543  15.1485989
 109.9335670  76.8641376  76.0201073 109.2842102  77.2185755  76.6275120
 109.7659016  77.3218489  75.1963234  28.2942538  79.5047140  93.1667614
  28.8745932  78.9644241  92.6305580  27.4121909  79.2538595  92.8924179
  15.4910981 109.8522188   0.0806019  14.8436104 110.5314304   0.2694675
  16.3316761 110.3095009   0.1039478  33.4826695  12.5211959  78.5464811
  33.6979996  11.5891318  78.5799789  33.6356961  12.7697616  77.6348686
  87.4737835  78.9458561  70.3996038  87.3348045  78.6454964  69.5014429
  88.3835983  78.7176752  70.5903864  34.9459874   1.0980754  65.0092459
  34.3374764   1.8309074  65.1035881  35.1551854   0.8432536  65.9078789
  11.4013247 109.9425507  93.4785175  10.6311850 109.4376659  93.2173347
  12.0781283 109.2837811  93.6340618  74.9942415  72.0887715   5.4230663
  74.4271105  71.6509873   4.7883007  74.4468802  72.7792317   5.7970783
  96.9102383  92.6471329  94.0003395  96.9762897  91.6922092  93.9997768
  95.9751034  92.8224659  94.1052628  61.9083994  12.6932961  13.4447548
  61.5266722  12.4470622  12.6022121  62.0445078  13.6384827  13.3789703
  59.2024725  84.0727193  16.2845299  58.5638445  84.6033532  15.8082840
  59.5722121  83.4901959  15.6210682  26.5858035  98.0429363  81.5078545
  27.0287852  97.1968269  81.4438438  26.9297366  98.5496140  80.7721710
   3.8688885  29.5153670  64.3608809   4.0004384  28.6369376  64.0041018
   3.1775509  29.8935275  63.8174868  58.7164246   3.8253741  68.9306974
  59.4754921   3.4431129  68.4903240  58.0943238   4.0026050  68.2251406
  57.8344952   7.7269511  44.8760223  57.9331337   8.6783557  44.9124622
  57.4971138   7.4878936  45.7393026  35.9209095   2.1669536  91.5624809
  35.0850140   1.8042712  91.2692833  36.1428296   1.6575389  92.3418808
  80.9904021  46.3848931   2.9343292  81.6218203  46.1924416   3.6275074
  80.9428614  45.5773122   2.4226830  62.1612406 104.6765423  84.1866589
  61.7050743 104.7930336  83.3532524  61.4935875 104.3303394  84.7787857
  80.5508536  78.1722600   9.6488640  79.8336905  78.7621648   9.4166443
  81.3263052  78.5708577   9.2538521  88.9422989  92.6162624  91.0310459
  88.7836647  92.3374844  90.1291847  89.6207714  92.0210743  91.3498974
 104.3831444  94.2762852  90.7499313 104.0269756  93.3990288  90.8906174
 105.3299141  94.1676331  90.8397198  58.6989611  51.5734155   9.1072056
  58.6902540  51.8093259  10.0348351  59.4604891  51.0012395   9.0127251
  38.8366925   0.0694041  64.6386147  38.7005173   1.0152392  64.6942043
  39.7526394  -0.0557084  64.8868608   1.8089329   4.4830852  67.4916792
   2.1728837   3.8803058  68.1400824   2.4927460   4.5606761  66.8263960
  83.7679386  93.9887238  49.2288923  84.2104816  94.6948528  48.7579727
  83.2948112  94.4307232  49.9338865   5.7657771  53.6911249  85.4991817
   5.6956343  54.1811848  86.3184166   6.4634375  54.1327095  85.0149155
  70.6493490  45.4210717   1.5144417  70.4582422  45.0168187   0.6680939
  70.1436537  44.9078805   2.1446297   7.4233393  97.4035454  69.7149563
   7.5238089  96.9173622  70.5333471   6.4978080  97.3065662  69.4908381
  99.4148636 110.7900715  88.1492805  99.5866299 111.0767746  89.0462399
  99.8598671 111.4368820  87.6017094  98.7856770  90.6123638  71.3109350
  99.6779156  90.2667618  71.3373518  98.7948990  91.2446022  70.5923176
  11.9802336 107.3195934  78.7966871  11.5070681 106.4908409  78.7223864
  12.9027705 107.0764828  78.7189436  81.5285223  19.7631652  14.1628620
  81.9821852  19.5351989  14.9743149  81.2841624  18.9204938  13.7802097
 103.4112167  78.9141607  84.8562908 103.5933590  78.4243107  85.6582260
 104.2200947  79.3947458  84.6802521  67.6092261  39.1919953   9.7445747
  68.3843535  39.4675214   9.2551968  67.7057665  38.2436997   9.8320553
  89.9629116  82.3956585  85.9582329  90.4786491  82.2193336  86.7450905
  89.4310474  83.1581020  86.1863232 108.7339241   4.9499087  53.0215597
 108.5349733   5.7260089  53.5453176 108.2045919   5.0525432  52.2306728
  31.6771733   2.9452758  88.1047535  31.4466225   3.2885795  87.2414970
  31.0245453   3.3225207  88.6946583  47.8229635  27.4786908   5.0317928
  47.8164023  27.4054963   5.9861633  47.9394549  28.4138543   4.8640892
   7.3670440 104.4349766  63.5042000   7.2990470 104.9509048  62.7008152
   7.9171519 103.6893272  63.2641602  59.4586229 105.1948643  84.9716377
  59.7663069 106.1009502  84.9955750  59.3085718 105.0173283  84.0430927
  49.3289219   1.9790321  95.4488468  49.3887841   1.8161349  94.5075035
  49.6405159   2.8776412  95.5566978 116.6106606  65.3533602  68.1287766
 116.5296268  65.2710629  69.0789843 115.7406425  65.1354170  67.7944279
  45.4139172  32.3188644  62.9822254  44.4652211  32.2070365  62.9214954
  45.6434094  31.9571834  63.8382387  31.5263211  12.3411899  90.3714943
  32.3706948  12.1760898  90.7910252  31.7154252  12.3136191  89.4335651
  85.9025210  73.4478528   0.1111099  86.5662020  73.4461266   0.8008740
  85.1876181  72.9189832   0.4652855 115.7757503   1.5355640  85.7313538
 116.0354454   2.1023326  86.4576912 116.0532076   2.0090156  84.9470711
 115.8089447  74.5520401  87.8585434 115.2748108  74.6952200  88.6398411
 116.6926098  74.8086977  88.1221867  62.4434757 107.4510288  90.6768608
  61.7919159 108.1519985  90.6954861  62.8743982 107.5470829  89.8275566
  95.6553745 106.1282349  90.6222630  96.6021824 106.0304451  90.7234097
  95.2950191 105.8569336  91.4665222  28.2426869   6.5095954  91.6336823
  28.8001668   5.9256225  91.1194611  27.3573910   6.3411956  91.3109970
  69.3969458  16.2950570   4.0158627  69.0803641  16.5221841   3.1415531
  69.3351000  17.1110303   4.5124504  78.5774565  91.5124416  75.0742054
  79.0362358  91.9324017  75.8017921  78.8352537  90.5921650  75.1277399
  39.3834942  51.1866814   0.7471153  39.5812863  52.0847852   0.4815361
  39.1582459  50.7397420  -0.0688103  47.0053118  54.2176682   6.0578033
  46.0713309  54.2527253   6.2643978  47.1710318  53.2973248   5.8535072
  68.8131857 101.7021179  79.3731928  69.4717598 102.3912621  79.2860365
  68.6084795 101.6833019  80.3080559  18.9406066  80.8894444  94.7070122
  19.8800139  80.9742165  94.5440483  18.8829760  80.3935337  95.5237007
  91.8553066  88.1406879  79.7565985  91.8571568  87.8142834  78.8567734
  91.9404602  87.3549461  80.2965832  43.5164278  17.6797826   8.9008972
  43.5034388  17.6274735   9.8565838  42.9929465  16.9319302   8.6129639
  55.9557360  23.6482055   1.5542671  55.2814024  23.4726960   0.8979961
  55.6472128  24.4305665   2.0113918  40.5852526  29.2721421  24.9955818
  39.6757525  29.0612275  24.7844860  40.5240172  29.9647767  25.6534168
 101.4040852  91.4364243  78.4157276 101.7391491  91.1209393  77.5764227
 101.6980839  90.7840347  79.0514803   1.4168124  83.6631680  74.6231985
   2.3103003  83.4014034  74.8454332   1.2196116  83.1830883  73.8189173
  34.6317517   5.7307677  89.4043636  34.0507351   5.0898318  89.8140812
  34.2108952   6.5747218  89.5682335  99.2770672  96.1601639  70.6051826
  99.2834091  96.4416981  71.5200233  99.9754524  96.6688442  70.1932001
  76.2923544  25.4096753   1.2576172  76.7055338  24.7413689   1.8043205
  76.5136927  25.1564748   0.3614494  74.6786135  57.4003465   1.8075153
  74.4011515  58.1783921   2.2911522  75.6342047  57.4128682   1.8615601
   6.5761428 110.1186180  75.6006813   7.4339156 109.8391914  75.2807093
   6.2270503 110.6696320  74.9001455  70.9517878  76.3792378   6.4816925
  71.0410517  77.1379430   7.0584271  71.6651648  75.7960469   6.7409489
  72.9765987 102.4185944  69.4439459  73.0199289 103.1358719  68.8115978
  72.1409035 101.9888687  69.2617893 103.6788464 105.6883812  85.6433678
 104.3996143 105.1112556  85.8956528 103.1054306 105.7044506  86.4096355
  97.3538971  96.9618988  53.0597067  96.4529419  96.8958759  53.3761883
  97.8913879  96.8717003  53.8465977  35.1792973  35.7947690  11.5878078
  35.0814169  34.9001366  11.9138310  35.9166783  36.1509663  12.0834133
 105.5137062 107.4023914  72.2775459 105.3656101 106.4682293  72.4246120
 104.7519493 107.6892948  71.7739153 107.9349899 100.7782745  64.3812513
 108.7291908 100.7076359  64.9108648 107.2645473 101.0802937  64.9940491
  61.5366095  74.4006211   1.9142220  61.3604182  74.5814950   2.8375217
  62.1155661  73.6384351   1.9257042 110.5396539   9.1134601  38.1999683
 110.4564506   9.7421222  38.9169741 109.6848852   8.6848121  38.1568670
  26.1980265  14.6052987   7.8378174  25.9769219  13.6900431   7.6656220
  26.6607302  14.8921305   7.0505020  83.0414486  94.4194698  79.6600533
  83.0974770  93.5020256  79.3928719  82.5167370  94.8363495  78.9765835
  91.3150900  41.8786389   2.0873043  91.7282313  42.6278550   2.5165150
  90.8751887  42.2525842   1.3238403  27.9292237  12.6506763  68.3645582
  27.2078167  12.1121936  68.6898947  28.3590542  12.1034579  67.7072620
   6.2741618 105.8985615  71.4958715   6.6527514 105.0830936  71.1673737
   6.9017176 106.5743351  71.2394905   8.8906800   3.4489112  63.5880899
   9.3650853   3.5506396  64.4132090   8.2703244   4.1777949  63.5770512
  84.0369415  93.3888149  72.4668932  84.9902821  93.3101177  72.4327612
  83.8780499  94.1163349  73.0683184 114.6256256 111.4387798  71.0307407
 114.5494652 112.0792294  70.3234529 114.1180038 110.6859207  70.7278347
  36.7294156  13.3214717  54.9699497  37.6337468  13.6000304  55.1142550
  36.2723195  13.5654788  55.7747793 103.2346249 107.9005623  81.0766220
 102.4114037 107.5564194  81.4231873 102.9970837 108.7415028  80.6859398
   7.6788460  18.8861423  84.5925522   7.7109467  17.9503589  84.7913170
   6.9352376  18.9791446  83.9970398   5.3690581  51.8086624  35.6102657
   6.1726718  51.3602543  35.3468919   5.6207232  52.7294874  35.6808567
  71.1270237  79.0714216  96.5134907  70.5430126  78.3295631  96.3559914
  70.6712008  79.8206997  96.1300182  12.7742993   1.8401675  77.9146862
  11.9346367   1.6443782  77.4989223  13.0663620   1.0012679  78.2713079
  65.1231098  76.1407518  92.7140427  64.3712807  75.5850506  92.5086689
  65.1637936  76.7657757  91.9902134  38.0884301  15.0160842  74.7779894
  37.1519886  14.9241119  74.6023798  38.1357228  15.6334167  75.5079842
  96.4392185  93.9426804  84.4546413  96.1616516  94.2376041  85.3219414
  97.0183182  93.2005119  84.6280003  82.7336407  85.5615997  50.4204416
  83.0062103  84.6732903  50.6503057  83.4506130  86.1182880  50.7242298
 106.1048603 109.9253941  50.5070448 106.3783836 109.8304367  49.5946836
 105.1875401 109.6520233  50.5117702 114.5276720  17.0609717  86.1843777
 113.6220962  16.9941001  86.4871883 114.9555094  17.6225524  86.8307590
  31.4928566  24.3964534  64.5991373  30.9890019  24.5709281  63.8042021
  30.8700119  24.5348125  65.3126860 117.1474171  96.3969421  88.3396530
 116.4750099  96.3886547  89.0208530 116.7662334  95.8929062  87.6207066
  44.6030760   2.7200001  79.9617910  45.3311825   2.2617921  79.5420980
  43.8370323   2.4810627  79.4399500  26.6973257   4.1366225  90.7766247
  26.2690496   4.8490003  90.3019333  26.0691929   3.4151065  90.7435131
  51.3477850  13.5651743  42.5743961  51.2642097  13.8199544  41.6555214
  50.8754206  12.7349782  42.6366711  10.4103249 103.3151562  76.7996407
  10.6983536 102.5227864  77.2528744  11.2097042 103.6754430  76.4156818
  77.9843667 109.6143165  34.0662742  77.5777266 108.7671770  34.2485666
  77.2625170 110.1669919  33.7667489  18.6036890  97.3351271   9.4587648
  18.2693117  97.1775372  10.3417087  18.5949152  98.2877631   9.3658161
  64.2270053  88.5461302  58.2883072  65.1212729  88.6198254  57.9550123
  64.1655339  89.2241712  58.9611483  52.6892376   6.1946660  89.8859501
  52.9269123   6.6473764  89.0767574  51.7832518   6.4565969  90.0497055
   0.7694166  94.4648440  39.3934941  -0.0312478  94.5223875  38.8720989
   0.5107110  93.9794941  40.1769066  65.8201807  74.7195430  56.4031839
  64.9745482  74.5852680  56.8310881  66.2110155  75.4573388  56.8712997
  71.9396448  13.9413762  60.9947348  72.4478149  14.1975343  61.7643976
  72.5518751  14.0274620  60.2639866  24.2964285  80.3802605  66.4608002
  24.9742764  79.7989292  66.1161232  24.7547119  80.9344263  67.0925522
  22.1543956  11.1309087  74.3038511  21.7185783  10.3935814  74.7312164
  21.4919281  11.8215215  74.2833328   6.1886566  99.1527254  61.7966938
   5.8136814  98.7412126  62.5753355   5.9656304  98.5580428  61.0805607
 115.7213725  77.2633071  60.4659271 116.3790406  76.7640085  60.9500837
 114.9288143  77.1947141  60.9982586  92.4387008  56.9258561   8.6985275
  93.2570011  56.4879912   8.4642384  92.6154262  57.3235287   9.5510838
  59.6327448   0.8956818  40.3242922  60.0668430   1.0149485  39.4795632
  60.0840569   1.5006083  40.9130287  51.5176678   0.0399532  63.8129568
  51.3296700   0.9769741  63.8666344  52.0372725  -0.1452792  64.5952177
  75.9307152  46.5381606   3.0975506  75.2157027  45.9425475   2.8734180
  75.4934842  47.3350175   3.3976814 115.9361423 105.9767992  71.6988182
 116.0849894 105.2464182  72.2993326 116.0870660 106.7584426  72.2303152
  34.4071507   1.8648553  87.4361324  34.5051718   1.0687768  87.9585075
  33.5085177   2.1503668  87.6009750  42.6480579  15.0933003  65.5165434
  43.4117270  14.6890819  65.1046658  42.3300505  15.7209456  64.8675728
 112.1420206 110.0802369  57.2419977 112.6189507 110.6141033  57.8774166
 112.3619402 110.4644471  56.3933229  86.2133248 103.7740065  89.4114780
  86.3216890 102.9384006  88.9573193  87.1047897 104.0443940  89.6315002
  45.4498213 109.3070536  84.2491245  44.7500437 108.6551089  84.2102242
  45.2155798 109.9500577  83.5798550  49.4687366  26.7058635  65.3754473
  49.0854597  27.1165347  66.1504793  49.8492622  25.8898067  65.7002258
  57.9504347  20.8137369  85.1942730  57.7846193  21.1827517  84.3267727
  58.7942743  20.3700924  85.1085472  99.0831841 110.9119330  92.2023487
  99.8780097 110.7895594  91.6832066  98.8843287 111.8445910  92.1196651
  19.7507542 104.7129161  60.0061035  19.6190613 103.8012237  60.2663040
  20.3310602 105.0721110  60.6772614  20.0175827  97.6824767  87.1121693
  19.7171086  96.9593723  87.6626873  19.2263335  97.9934866  86.6723633
  42.1827412  10.5752492  92.5052261  42.1128559   9.6441913  92.7161312
  42.9126596  10.6269205  91.8881607  25.1416891  99.0524478  72.2453547
  24.2572516  98.8691409  72.5622129  25.7156962  98.7504132  72.9492903
  34.0824842   7.0840079  69.2891598  33.2261395   7.4497235  69.5108795
  34.6074677   7.8420860  69.0323734   8.9392584 105.0260736  55.3624725
   8.5636347 105.6838978  55.9476280   9.8726910 105.0220407  55.5744076
  41.1852789  36.8335915  66.0239410  41.2201977  36.7482257  66.9766903
  40.8547211  35.9883690  65.7196951   7.6204127  88.4925766  73.8478327
   7.0220631  88.6466331  73.1167555   7.6192063  89.3159814  74.3359280
  13.2328003  69.3198533  77.7244234  12.9224938  69.5801778  76.8571424
  14.0885466  68.9224048  77.5632906  25.0651282 105.8499677  57.9732800
  24.2146223 106.0664863  57.5911903  25.6980866 106.3209100  57.4312449
   6.0251826  99.7354300  72.6332855   5.9282988  98.9380999  73.1539679
   5.1785963 100.1755733  72.7094555   7.6265591  68.9654488  53.5135078
   8.3570164  69.5546145  53.3249474   6.8462199  69.4710727  53.2862473
  36.6811061  27.3418021  57.7186728  36.3684583  27.3623395  56.8142033
  36.0569143  26.7776322  58.1751013  22.4802607 111.4459092  75.1634884
  21.8032330 111.4952998  74.4886398  23.3025282 111.4043903  74.6752453
  30.1491332  14.3707895  80.8218002  31.0916591  14.2485332  80.7080841
  29.7825575  14.2322767  79.9484921  58.8480806  36.1382747  92.9537964
  58.5453796  35.3436923  92.5142002  58.6316490  36.8454552  92.3461056
  32.5676173 104.2281498  55.6925106  32.7260035 104.4488312  56.6103601
  33.1953686 103.5311110  55.5019951  45.1896477  29.3626738  88.1660080
  45.5659151  29.0613961  87.3390293  45.4188013  28.6797142  88.7963104
  74.4229013  55.7120003  22.9023239  74.5957286  56.6532545  22.8822491
  74.7832185  55.4201301  23.7397072   3.0925530 107.6545973  84.6422672
   3.0741328 106.8449987  85.1526070   3.7537688 108.1951753  85.0744724
   5.8041226  71.1241748   1.6949436   6.6406666  71.4877071   1.4046547
   6.0211121  70.2475323   2.0121929  21.9341486 100.1801224  58.7060165
  22.5129956 100.2792735  59.4618845  22.4962538 100.3496046  57.9500103
  34.7562504  11.8351579  73.1369066  35.1750326  12.4682915  72.5538158
  34.8272133  11.0001385  72.6743698  60.8384800   2.6456982  67.6326847
  60.4711914   1.8925096  67.1700430  61.2590122   3.1656748  66.9478464
  19.6372533   2.7344263  58.9834356  19.9682868   3.2767847  59.6993256
  20.3750157   2.1716779  58.7483788  64.2982149  31.2912631  85.0020123
  64.5293951  32.0014668  85.6006813  64.4032860  31.6699743  84.1292191
  65.0562286  33.8633394  20.7675672  64.9715805  33.6116743  21.6872025
  64.2952776  33.4698510  20.3405476  69.1773040  39.4812347  12.2523758
  69.4909150  38.6945273  12.6984379  68.8497001  39.1647233  11.4105103
  89.6545250  68.8422002   4.7125599  90.4768402  68.4893407   5.0524399
  88.9988500  68.5902740   5.3628323  16.9438303  10.2580440  79.8394156
  16.3697183  10.9824049  80.0882721  16.6796756   9.5362055  80.4098511
  93.2195074  73.8462640   9.8192093  93.7001163  74.6735014   9.7888157
  93.8738853  73.1810977   9.6057293 111.0817034  55.3132981  16.7039654
 111.4083797  54.7298154  17.3888466 111.7291576  55.2450701  16.0022709
  22.1271086  24.0262175  69.8182631  21.5936327  23.2987618  70.1383352
  22.3073435  24.5520592  70.5975199 106.4252938 101.2683136  66.4927053
 105.5569304 101.5664370  66.2219667 106.3669122 101.1943025  67.4452543
   5.2440661 101.1231751  85.6229973   5.3372877 100.2082808  85.3574562
   4.3012875 101.2452395  85.7348347 110.0799120  88.2084246  70.5749559
 110.2114714  89.1131658  70.2914667 110.9517706  87.9090185  70.8327389
  41.6064757  91.2137980  71.3546371  40.9998911  91.7768128  70.8736944
  41.4060705  91.3778539  72.2761345  39.4717741  11.9010615  73.3785772
  39.4239545  11.9061005  74.3345690  39.0644002  11.0735178  73.1227446
  16.1433601  24.4240093  93.1016731  16.4131176  23.5060716  93.1309032
  16.0044026  24.6621132  94.0183163  42.6369381  40.8040428  95.8427620
  42.7365828  41.5783787  96.3965702  42.5864172  41.1513805  94.9522305
  24.2480391  89.0668244  68.1890392  24.8086994  89.0021009  67.4159288
  23.3591431  89.1135807  67.8370428 109.4281609   5.5989850  94.7643185
 108.5711737   5.1976210  94.6203995 109.2582293   6.5407348  94.7428131
  62.4186277  10.4004598  81.8327522  62.1183872   9.6579695  82.3569679
  61.6184711  10.7672930  81.4567089 105.5019487 107.0512490  89.1821098
 106.0932315 106.5396420  88.6299515 104.9502386 106.3977684  89.6119976
  78.5242373  81.5567662   5.7338402  79.1084725  81.4643981   4.9812672
  77.6456887  81.5744759   5.3542683  32.4806142   3.6312231  47.4264956
  33.3862281   3.7549374  47.1422625  32.2572064   4.4462407  47.8760147
   5.5529278 104.9821157  83.0838680   5.5109709 104.3069191  82.4066830
   4.9637669 105.6696666  82.7733898   8.7263220  90.8651705  88.1634617
   8.1950920  90.8124180  87.3689461   8.8111513  91.8034084  88.3330059
   2.4882620  80.6402011  89.9930763   1.8245285  80.4532213  90.6569481
   3.2628601  80.8955617  90.4940987  17.0012301 109.2370021  86.5986919
  16.8253916 109.5947027  85.7284260  17.7118510 109.7790692  86.9413471
  58.7354183  19.5233524  65.1260090  59.3150902  18.7965930  65.3541136
  59.0487146  20.2554178  65.6571913  71.3450575  16.5403998  53.6885023
  71.6224813  15.9865201  52.9587841  70.4885769  16.8752527  53.4228945
  45.9984112   2.2724955  59.1179466  46.5172958   3.0691132  59.2292786
  45.7294369   2.0358518  60.0055742  16.3132160  93.3567364  88.3852386
  15.9422320  93.3356471  87.5031090  16.0059422  94.1846330  88.7545681
  65.5408556  23.1157304   9.9542400  65.4000003  23.3970811  10.8582565
  66.2722546  22.5004293  10.0061008  15.7028788  92.9037924  81.1760044
  15.9877032  92.3306353  80.4642487  15.3851765  93.6922820  80.7360268
   3.5016173  95.8312268  61.5312958   4.0466946  95.1545365  61.9328117
   2.8593605  95.3455801  61.0137224   7.4572533 100.0159891  76.9544888
   7.5158613 100.9671218  76.8642521   6.5945214  99.8647375  77.3405647
 106.1973823  95.8924968   3.9656934 106.0730017  95.9146435   4.9145195
 106.6415633  96.7158325   3.7630776 116.5353567  37.0344950   4.8590157
 117.0910532  36.7524471   5.5855724 115.8214599  36.3970830   4.8420498
  73.9203579  47.7341308  29.8580238  73.8740141  48.6813231  29.7279808
  73.4362823  47.5797774  30.6692383  77.3253436 101.9889487  76.1394501
  77.3220643 101.2686748  76.7698669  76.3999681 102.1505655  75.9556246
  41.5980547 100.2083595  67.5393677  42.2110289 100.5030973  68.2128859
  41.8728846 100.6696696  66.7469740  25.1171511  60.8857484  64.0070915
  24.6962517  60.5989642  63.1966400  24.4554251  61.4220042  64.4438744
  80.2845954 105.7135583  71.1470127  80.4227203 105.0184173  71.7903900
  79.4448427 106.1026133  71.3913155  92.0199281  31.4413501   3.8193485
  91.6177160  30.8859112   4.4871304  92.9480535  31.2082459   3.8411686
  92.1800977  13.8661577  11.3440105  92.4294979  14.7845747  11.4467213
  92.8537876  13.4974910  10.7726452  12.6149100  90.6185527  55.4211998
  12.5185126  91.0534067  56.2684536  11.9149369  90.9867139  54.8820066
  40.3116608   1.3199149  89.7080612  40.3877878   1.8969254  88.9481354
  39.3909907   1.0582141  89.7188091 107.7115978 104.4465012  87.5745106
 108.4942091 104.5743228  87.0384026 108.0476750 104.1673739  88.4261990
  45.7000685  19.3102086  74.6443081  46.6021919  19.4998085  74.3865061
  45.3585052  20.1486707  74.9550295  43.8480425  31.5666461  91.6180325
  44.6304178  31.0197258  91.6887283  44.1856098  32.4482942  91.4599991
  45.8822823   2.9642293  71.6517353  46.4540672   3.2146960  70.9260893
  45.0999022   2.6101360  71.2289667 105.0843800  90.9100385  78.5759878
 105.9746850  91.0069008  78.9139271 105.2019704  90.6510491  77.6620245
  86.0773815 108.3016063  63.4389067  86.9345392 107.8763963  63.4655523
  86.1798240 109.0814657  63.9843941  64.8317099  34.1699123  82.8163910
  64.6173143  33.3857036  82.3111343  65.6848001  34.4452691  82.4807549
  23.0163264  24.0343785  65.7412243  22.3137927  23.8124990  65.1301193
  23.0717301  24.9893236  65.7059717  32.0068663 107.5260199  79.6188879
  32.4707573 108.2875622  79.2709064  31.7185229 107.0459096  78.8426256
  40.5774117   0.2690360  44.0490484  40.0594473   0.3883661  44.8450994
  39.9689102   0.4629301  43.3360529  13.0269974 111.1156094  87.1107674
  12.9547280 111.1341104  88.0650520  12.1224087 111.1612484  86.8011379
  69.3277359  12.2627354  46.0488653  69.0134478  13.1334543  46.2923956
  69.4217730  12.2995973  45.0970125  41.8372011   4.5008931  91.9851208
  42.2152424   4.1144097  92.7750206  42.3920345   4.1819727  91.2733078
   8.8260954 108.6057512  61.3290834   9.5376318 108.8954202  60.7580900
   9.2678517 108.2365490  62.0937872  26.0345626  38.1043959  65.6324673
  25.4679775  38.8433838  65.8540726  26.2620068  37.7153087  66.4769268
  90.3418714  59.1519113  12.7011177  91.0248930  59.8067774  12.8455612
  89.6028311  59.4565027  13.2276794  57.8591728  22.6114225  52.9819584
  58.7875032  22.8408861  52.9397678  57.7857399  21.8131971  52.4588203
  81.1972791  43.9182164  10.1991436  80.4155857  43.3777239  10.3134033
  80.8708889  44.7342803   9.8200104  22.9177016  89.0640278  47.8488493
  23.3177059  88.3203573  47.3980951  23.5776919  89.7557254  47.8019667
 114.7214020 101.4621265  69.2492962 114.6105278 101.9947965  70.0368214
 115.2405418 100.7118328  69.5387506  26.9985312  82.8759308  73.4864426
  26.9136971  82.3893399  74.3063593  26.9849175  83.7956710  73.7512541
 108.6329258 110.8287610  44.4505501 109.5804299 110.6954859  44.4239521
 108.4887637 111.6258473  43.9405489 100.6877786  22.9230668  10.1783058
 100.7283432  23.8733722  10.0710365 101.0479051  22.7649500  11.0509655
  38.9833706 105.1900924  63.4578657  38.6378115 105.8651895  62.8738546
  38.6728495 104.3663741  63.0819702  21.3630360  54.5174451  92.7612495
  21.9053858  54.8892255  92.0656395  21.9502180  54.4535394  93.5144901
  35.1037138 107.3936955  72.2333813  35.8992975 107.9252077  72.2612572
  35.2372187 106.7271806  72.9073000  46.0192871   8.7380254  74.4949150
  46.0180044   9.4763708  73.8857555  46.2845278   9.1187215  75.3321409
 114.4193901 104.4211663  68.2335567 113.8270057 104.7310753  68.9185858
 114.3660177 103.4668131  68.2844782  23.7595719 108.9037786  91.2937069
  23.4372824 109.1310943  92.1658802  24.0998238 108.0141253  91.3884449
  31.3209503  75.8403797  91.3170719  30.6541699  76.0149403  90.6528664
  31.7792528  75.0630159  90.9978676  18.7439936  94.6463711  66.1407185
  17.9571503  94.2902548  66.5533733  18.5448378  95.5727084  66.0048151
  80.5237862 103.9108289  89.3426132  80.5888229 102.9676921  89.4925976
  80.3099036 103.9913471  88.4130955  60.0373411  12.3863268  78.3064365
  60.7180214  11.8432319  78.7038708  59.8233414  11.9405019  77.4868774
 110.6309301  48.4287329   5.4744598 110.0880224  47.6468815   5.3735230
 111.3893778  48.1304874   5.9764931  10.4903191 106.6692392  73.2420540
  10.1627463 106.0324813  72.6068640  11.1568850 107.1629111  72.7643394
  39.4276309  18.8075554  55.7897329  39.2469954  19.7332239  55.6262112
  39.2112112  18.3720136  54.9652958  31.6399169  23.8166523  70.0939655
  32.5335097  23.9417028  70.4134750  31.7451739  23.5952997  69.1686773
 114.8687066  87.8864093  69.2056465 115.1441039  87.6443047  68.3214664
 114.6416057  87.0549030  69.6218824  92.1395857  39.0427090   6.7868588
  92.1555502  39.2788746   5.8593914  91.6582042  39.7553124   7.2072193
   9.6017617 110.6633159  65.0517511   9.4704169 109.8739807  64.5264626
  10.1627987 111.2198540  64.5116282  20.1234167  88.0279703  71.2678909
  20.2400749  88.7867470  71.8396235  20.2749985  87.2735519  71.8371964
  42.4212282  77.9132600  81.9832516  42.3480528  77.8034706  81.0351849
  42.9950064  78.6715288  82.0929718 104.4844092  83.0006451  85.5546665
 103.5359157  82.9400892  85.4409790 104.7622574  82.1019621  85.7318592
  34.2031527  17.7612913  84.7178268  33.4543514  17.8921747  85.2995491
  33.8161945  17.4786055  83.8892174  60.9628868  25.9833527  58.2947540
  61.1789656  26.9139409  58.2351685  61.6480875  25.5455518  57.7897167
 103.6591257  57.2408957  69.7436285 103.2693709  56.4122147  69.4650459
 103.1158126  57.5261254  70.4782629  52.7719784  13.7742734  74.1816807
  53.0327034  13.1704640  73.4862185  52.2406340  14.4354403  73.7380981
  62.7438402   4.4719201  88.8600349  62.9611921   5.1445240  89.5054722
  62.3797226   3.7530252  89.3765926  77.1746016   6.9731116  45.2114248
  76.7720318   6.2412792  44.7438860  77.6689959   7.4433213  44.5400715
  29.3889880  15.8197403  84.4960403  28.8128400  15.0553846  84.4892311
  30.2641129  15.4613554  84.3478870  56.6204977  16.1088085  61.2566233
  56.2288141  15.2414274  61.3589334  56.1082458  16.6727829  61.8360758
  13.7304610  97.0208211  74.4083023  14.3403691  97.5069685  73.8534117
  13.1156271  97.6824231  74.7253084  43.0150461  70.4928970  64.1261911
  42.4450827  71.0538435  63.6001539  42.4859858  69.7158813  64.3066740
   2.2754925  63.6169095  72.1689653   2.4010294  63.3650107  73.0838537
   3.1290501  63.4709878  71.7610788  83.7805397  25.8767249  10.5987331
  84.5742923  26.4108135  10.6293461  84.0988571  24.9740245  10.6050655
  91.9044174 107.3431880  59.4028187  92.5158931 107.8088297  59.9733496
  91.2876667 106.9247834  60.0034761  30.7893055 108.8702707  51.4020109
  31.0515469 108.1580160  51.9852352  29.8394888 108.7796752  51.3253593
  43.8156366  36.6954589  92.9838085  43.5235691  37.3522639  92.3517227
  43.0067110  36.3048387  93.3143902  19.6022671 100.9602792  69.9620056
  18.6848324 101.2333174  69.9619675  20.0953167 101.7773170  70.0367308
  58.1251687  72.5133003   1.2163040  57.8350658  73.0013634   1.9869301
  58.0497998  73.1378712   0.4948780  39.7926283  34.1778421  74.7727394
  39.1620851  33.5840392  74.3652534  39.2550397  34.8670816  75.1628399
  53.6381548  99.1747649  84.9337006  53.0805033  99.7312612  84.3900299
  53.3851832  98.2815237  84.7005463  66.4007473  18.5596895  83.5351658
  66.5682554  18.7222540  84.4634628  67.1479988  18.9530385  83.0844784
  30.7863617   6.3290912  52.8787661  29.9963474   6.8553954  53.0017042
  30.9655547   6.3817531  51.9399643 102.6503372   1.9093789  80.2148151
 103.4571838   2.2466134  79.8255682 101.9545841   2.2350153  79.6437502
  70.2844334  25.1539540  88.4049129  70.8531332  25.9238625  88.4123802
  69.3973684  25.5117679  88.3686447   6.0092037 110.6830489  68.0250263
   5.6561154 109.8967294  67.6087809   6.2841957 111.2376220  67.2949171
  54.3904018  17.6007450  86.6254425  54.7783852  18.4038842  86.2780762
  54.0281296  17.1582925  85.8578300  87.7611000  47.8612758   6.7542908
  86.8146354  47.7614524   6.6519520  87.9119093  47.7641423   7.6945278
  48.3452368  21.1937261  59.8342705  49.0699577  21.0672641  60.4466534
  47.8536797  21.9320536  60.1940966  79.8211622  43.1834602  45.5263805
  79.7910118  42.7157974  44.6917486  80.5986214  43.7381315  45.4621887
  71.7082739   5.3303111  71.7909336  71.4723253   5.8587927  71.0285234
  71.8343258   4.4482484  71.4412069  93.7799770  75.9442903   7.5338146
  94.5237619  75.7244529   6.9728443  94.0131933  76.7880179   7.9210732
  49.9953604  40.8344221  68.8654089  50.3125620  41.4749241  68.2287216
  49.0683651  40.7249022  68.6534786  16.2307566  78.5824342  92.5239468
  15.3156870  78.8570161  92.4649334  16.4810341  78.3874888  91.6208458
  24.3492413  13.1108785  88.6521053  25.2338576  12.7814543  88.8107491
  23.7744379  12.4451518  89.0297890  43.5257053  34.8027682  50.9738493
  44.0924597  34.0437007  51.1110973  42.7427673  34.4445896  50.5555773
  52.9361153   2.7727416  93.2858372  52.3834515   3.2228696  93.9247227
  53.2936716   3.4745106  92.7418613  22.9052275  97.9741282  26.7607641
  22.8174084  98.0666835  25.8121037  23.7141865  97.4762864  26.8789721
  47.0987844  23.3046389  55.9559536  46.5798092  24.1060495  55.8878803
  47.5879383  23.4047055  56.7726183  82.6779079  19.1389406  26.4237142
  82.4386120  19.7038519  27.1584558  81.9051456  18.5926676  26.2800145
  84.7446060   3.6374184  57.0442343  85.0974178   3.5153407  56.1628437
  85.4821968   3.9741495  57.5529623  88.4438688  13.3462955   7.8243515
  88.5477716  12.5465824   7.3086998  89.3378240  13.6576893   7.9661533
  58.6110353  12.6998186  68.9717007  58.3976030  12.2835112  69.8067856
  58.5248804  11.9987845  68.3256674  68.3610970  76.5580990   0.3361389
  68.6811525  76.7727067  -0.5400684  67.5258929  77.0204736   0.4059670
  84.7828514  76.6912152  13.4710571  85.1996929  76.7644622  14.3296024
  85.1696331  75.9062268  13.0832073 105.7269508  71.0728265   2.2199318
 105.1648456  70.8941771   1.4660332 106.1254675  71.9212093   2.0258495
  73.2998991  10.3178477  61.8615437  73.6340570  11.1965215  62.0418262
  73.6630344   9.7752196  62.5614834  41.9749468 110.0139299  88.4161949
  42.5213831 110.3206254  89.1397858  42.5433462 110.0665022  87.6478291
 101.5885336  49.5025952   1.7707417 102.5022203  49.5764198   1.4951298
 101.5473348  49.9864920   2.5955936  12.8116291 106.7335967  57.2665787
  13.3480328 107.1191535  56.5738630  13.4284228 106.2227471  57.7908182
  56.9119089  98.2948000  74.0087748  56.0967654  98.7931294  73.9501619
  56.7632311  97.5266762  73.4573078  48.4617472  36.2638164  61.6392422
  47.7311707  35.6455135  61.6531563  48.4860897  36.5855551  60.7380629
  20.4028290 111.2616544  61.7348623  19.5294255 110.9866858  61.4559507
  20.2465790 111.8168710  62.4987698  15.3060644  74.2168159  85.1298618
  15.1500338  73.6896725  85.9134483  14.4470709  74.2869277  84.7133923
  14.7234743  92.6163025  35.3863001  14.0247362  92.0037169  35.6159353
  14.3563574  93.4799690  35.5748129  89.1683180  60.4794522   6.2831089
  89.9732715  60.9628917   6.4690277  88.6389667  61.0858359   5.7651112
   4.6513497  79.4667484  20.8205101   4.4549119  78.5729911  21.1013004
   4.3953167  79.4898559  19.8984787  51.5624285  14.0977168  76.9876719
  51.6194439  15.0050998  76.6882753  52.4179125  13.7224436  76.7789745
  59.5188141  -0.0232851  85.3677464  59.9839306   0.1082137  84.5415497
  60.2094030  -0.0478651  86.0301018  70.8704042   7.1971571  41.3107252
  71.1967182   7.8104740  41.9692039  71.6262484   7.0236111  40.7496405
  57.7145100   9.1134179  84.4466114  57.6836205   8.6468405  85.2818298
  58.4160614   9.7552574  84.5566177  13.8819426 104.3157823  58.2028246
  14.7070616 103.9436097  57.8915405  13.7106818 103.8619144  59.0279961
  11.6767519 107.5239910  61.4247274  11.9818657 107.6509158  62.3230743
  11.1864250 106.7023713  61.4521456   6.2683981 102.6081825  90.1850605
   6.2479037 103.5102106  90.5046844   7.1179693 102.5269050  89.7516346
  55.1606798  12.8442824  89.3697166  56.0820532  12.5992954  89.2843914
  54.8696709  12.9986238  88.4709740  28.0338287   0.3151338  83.2620335
  28.3544183  -0.3792714  82.6864910  28.5784078   0.2467222  84.0462494
  36.7899084   6.8766320  67.0286989  36.6617227   6.1475635  66.4218521
  35.9303641   7.2938055  67.0868587  10.2150696  97.9005010  39.3095326
  10.4784363  97.4095983  38.5311460  10.7275456  97.5153632  40.0203562
  58.1018925  16.8472540  80.6658363  58.3986712  16.2336171  79.9938250
  57.7083778  17.5684500  80.1746559  29.3750882  20.4035234  13.6971402
  29.8849249  19.5955884  13.6376274  28.4737754  20.1089001  13.8277566
  21.7766571   6.7149562  33.6815357  21.7749453   6.2817031  32.8279996
  20.8564520   6.9188905  33.8484645  54.8215961  17.3529649  62.8556919
  54.9478674  17.1979511  63.7917805  54.5949793  18.2809711  62.7950239
  44.3095350  23.6074424  80.4190254  44.4237995  23.0989408  79.6161556
  44.4574261  22.9776406  81.1245155  75.3769827   7.2602087  92.3439503
  75.6326866   7.8620452  91.6449261  75.8059120   6.4348114  92.1181870
  53.8409138  27.3952413  62.1504498  54.1534805  27.9271007  62.8823376
  54.1368246  27.8640628  61.3701439  33.0395579  32.8670025  53.4457541
  33.2053876  33.4508967  54.1858912  33.5093617  32.0624781  53.6654282
  34.0689533 108.3119089  64.7945070  34.9461430 108.1254257  65.1291656
  33.5699766 108.5793058  65.5663538  35.7743090 103.5773433  50.7246256
  35.2599114 103.8504971  51.4842415  35.2183359 102.9408355  50.2752018
  12.2205895  96.5274401  79.5275164  11.9041174  97.2157938  80.1125336
  11.4709347  95.9423060  79.4185829   7.8587836 110.0018312  48.5208607
   8.4194487 110.3850534  49.1954184   8.4389895 109.4209598  48.0287457
  63.4388638  27.9489899  43.1059599  64.0191555  27.2629237  43.4358168
  63.9707613  28.4272122  42.4698591  52.9711645  97.9669018  58.7776852
  52.4856871  97.3732753  58.2048464  52.7286261  98.8424034  58.4761858
  66.8716097  38.7024045  45.1000738  66.1084366  39.2153645  45.3659105
  66.5595627  38.1706548  44.3678856  32.4080062  28.4890866  57.5284481
  31.6267085  28.7199950  57.0259666  32.8139830  27.7811861  57.0281553
   7.5456255 101.8836630  35.1805019   7.8451365 102.5399668  34.5513844
   8.3129042 101.3327677  35.3355074  93.4638214   8.4739780  95.2632332
  93.1448174   8.1432247  94.4235516  94.2954636   8.0199665  95.3991508
  33.9325762   4.9815485  61.6703844  34.2882323   5.8697224  61.6406012
  34.5948458   4.4739556  62.1394062  10.1361287  26.3973784  49.5915890
  10.7562149  27.1186376  49.6988821   9.5524949  26.6856790  48.8898182
  33.8831019  20.8501816  91.8072987  33.0359578  20.5050969  92.0892525
  33.6642528  21.6022873  91.2571430  40.9410000  51.3089705  47.7229261
  40.6535149  50.5264473  47.2525644  40.5263948  52.0346928  47.2563791
 115.0711621  94.9078185  89.8030281 114.4433082  94.4624812  89.2340851
 114.5514978  95.5663926  90.2639675  66.5875966  89.9023987   9.2467567
  66.7840630  89.0329291   8.8979694  65.6370146  89.9827840   9.1682312
  66.7250204   2.5453717  72.6719713  66.8066597   3.4901476  72.5417185
  65.7864141   2.3734222  72.5965834  10.0178450  72.9586382  33.5089040
   9.2898386  72.6936741  32.9467344  10.3594130  73.7536759  33.0996609
  65.8642054   0.9113494  75.9662199  66.6966534   1.3797253  76.0285234
  65.2105713   1.5998489  75.8438778  44.8952007  29.7109652  70.0214338
  45.2444553  29.2948651  69.2333269  44.0797901  30.1217747  69.7340822
   0.7749527  89.2477436  20.8602262   1.1141032  89.9751921  20.3386664
   1.3095158  89.2526431  21.6542339  50.3024817   7.8536075  62.2687435
  50.4635096   7.8650904  61.3252544  49.8372316   7.0313013  62.4223232
  91.4965797 104.8089070  82.6651382  90.7658745 105.2176882  83.1290340
  91.1903180 104.7254003  81.7621136  30.3064554 101.3841326  95.2164936
  31.0822027 100.9245033  95.5377197  29.7341507 100.6894095  94.8908329
 111.6281236 108.4724013  66.0073423 112.4866975 108.1631247  66.2961864
 111.8187250 109.2421977  65.4713249  85.4039860   5.5069530  23.0636692
  85.5788326   4.6077067  22.7861476  84.4953632   5.4924273  23.3643889
  38.4786272   9.2956609  72.3171902  37.5381374   9.1177022  72.3235178
  38.8817763   8.4468585  72.1348810  12.4391144 101.3869853  47.4004030
  12.7334088 101.4104552  46.4898682  13.1725424 101.7477817  47.8985405
  25.5032032 104.7978581  66.5840769  25.4553622 105.7526142  66.5352440
  25.9944742 104.5424141  65.8032846  41.5287989  96.5939970  85.2528572
  41.7500799  97.1096189  84.4773579  40.6760138  96.2097008  85.0496387
  63.6788756  92.8852035  23.9698669  62.9070813  92.3736884  23.7271282
  64.2939646  92.2399189  24.3184444  48.1576079  71.8653602  65.9066963
  48.0943602  72.1583028  64.9976206  47.8778380  70.9502549  65.8834648
  14.1883677 102.5607259  84.2890263  13.3210247 102.5667579  84.6938896
  14.6391552 101.8227852  84.6994781  41.8072432 104.8376996  79.7702789
  41.0654276 104.3715216  79.3847656  41.4629858 105.2034534  80.5851078
  45.7462549  11.7225206  83.8044453  46.5300560  12.2662902  83.7256813
  45.4096842  11.9128776  84.6800709  17.0860737  85.7933564  70.5893421
  16.5249365  85.1458378  70.1626348  17.7832192  85.2768559  70.9936333
  60.9451253  45.7048632  13.6228153  61.4788539  45.5263712  14.3970940
  60.9938437  46.6543807  13.5120270  69.2599964  25.9896326  80.8231354
  68.3243847  25.7933664  80.7746983  69.3010187  26.8699813  81.1966801
  56.2675476  30.4514647  77.0324135  57.1260118  30.1393223  76.7463350
  55.6450081  29.8552799  76.6161919   6.2999934 106.9185717  95.0993824
   6.2570017 106.1891384  94.4810677   5.5993908 107.5090174  94.8223209
  44.7775364  20.0639582  56.9631386  45.0591183  19.6852970  57.7959394
  45.3527355  19.6634281  56.3112545  32.2404885  47.1935558  94.7600269
  32.3410010  48.0219889  95.2288818  31.3187838  46.9629002  94.8761845
  29.7941065  32.1383071  69.3384933  29.5704222  32.1338010  70.2691793
  30.7511640  32.1352339  69.3221664  24.2904425  24.4321465  50.0161648
  23.6267281  25.0242043  49.6623516  24.2568564  24.5727301  50.9623909
  13.8650644   2.2718781  66.1083698  13.9563930   1.4142503  65.6932020
  14.5352745   2.8127763  65.6906652  70.5720711  18.9058721  63.8247442
  70.3662968  18.9704537  64.7573328  69.9416351  19.4872391  63.3995438
  51.1335421  10.8848441  58.3410454  50.2586269  11.0034871  58.7107468
  51.0828495  11.2844336  57.4727201   6.3243996  88.6247756   7.4563286
   5.7013070  88.9451577   6.8041489   6.6189038  87.7815081   7.1122334
 102.1498663  65.5113252  10.0166866 102.7849848  65.6552811  10.7182095
 102.5429517  65.9262385   9.2488644  33.6502171   8.0839211  89.7587109
  32.9817796   7.8762561  90.4116249  33.8796043   8.9967841  89.9327660
  19.9790972 109.5883675  82.7676392  20.5810326 110.3270249  82.8586674
  20.4820555 108.9266346  82.2929001  70.0718164   1.1327108  91.3491917
  69.7913265   0.8120961  92.2063732  69.6496201   0.5441387  90.7234383
  43.6643410  20.7832742  62.9140854  43.7740755  20.9318113  61.9748688
  43.2469511  21.5823507  63.2357931  92.5579357  19.8583758  81.5594959
  92.3939800  20.5844855  80.9577370  92.1401310  19.1040003  81.1440563
  85.1021940  56.4806477  11.0740921  85.6315452  57.2333339  11.3376877
  85.6780607  55.7266429  11.2009213  41.6977930   2.6266155  48.9652729
  42.1943521   2.1257529  49.6124172  41.7628479   2.1105878  48.1617069
  49.3392801   1.6124864  60.7524395  50.0604105   0.9928862  60.6415367
  49.6189976   2.3935178  60.2749681  74.1539041 100.5220623  61.2780380
  74.5435105 101.3240619  60.9298468  73.3950640 100.3613419  60.7171822
  10.1898068 110.6131354  54.2018461  10.7015627 110.4124715  54.9854755
  10.5948036 110.0892591  53.5106468 107.5208980  76.7676117   3.3794281
 108.1726677  76.0935260   3.5718796 107.4571163  76.7733814   2.4243710
   7.3323601  85.2758760  90.4335976   6.5983742  84.7444577  90.1252174
   8.0155628  85.1452465  89.7760296  44.9533796  10.7878613  52.6264143
  44.1490984  10.9427452  52.1310568  45.3613663  10.0385213  52.1925163
  28.6101073 102.9841126  82.8977013  29.2186802 103.0814643  82.1653080
  28.8769739 103.6587084  83.5221481  70.7527304  23.2546496  55.2523851
  70.2856112  23.9244723  55.7517529  71.3156986  22.8249264  55.8963060
  39.7196913   9.8417574  49.0517807  39.7953653   8.8875806  49.0445614
  38.7972212  10.0073981  49.2463064  23.4684866  78.8399835  87.8889370
  23.0913990  79.1154714  88.7244797  23.6288708  79.6574063  87.4174213
  68.4016657  35.7256007  90.0033569  67.9411221  35.5080438  90.8137894
  68.2257318  34.9858642  89.4219208  82.0146656  22.5291586  71.1876583
  82.9428768  22.5313973  70.9538984  81.8859386  23.3487368  71.6651011
  73.2572562  50.2670510   1.4289925  73.7858469  49.9209179   2.1480343
  73.2042128  49.5457865   0.8019421  76.9896364   0.4648112  88.7782574
  77.6503372   0.4914964  88.0861664  77.4897099   0.5485366  89.5901394
  77.8832466  80.6049682  28.7527535  77.5984294  81.2980653  29.3483421
  77.5880105  79.7951628  29.1690228  10.3936308  99.3086572  85.1597309
  11.0241097  98.6286516  85.3970528   9.5982712  99.0754814  85.6385422
  63.1338692  22.8062820  57.7460480  62.3102045  22.8559637  57.2609234
  63.6766052  22.2053528  57.2356081  82.4808199  36.5491749   5.4227230
  81.7283136  36.0277666   5.1432678  82.9351837  36.7690279   4.6094296
  88.0730380 109.6255847  68.9604425  87.9134930 109.1774484  69.7910738
  89.0195228 109.7673003  68.9426899  28.7626600  53.1140471  80.0705719
  29.3214822  53.5971451  79.4618273  28.1303549  53.7621355  80.3810596
  22.7531307  93.3324892  85.7839108  21.9327896  93.8256080  85.7736206
  23.4294766  93.9892681  85.6182957  56.0480070  36.2946177  57.3846006
  55.2511454  36.5845442  56.9405508  56.0788488  36.8165970  58.1863594
  83.1895256  24.9556541  51.6001225  83.2991028  25.8064508  52.0248222
  82.9916573  24.3535852  52.3174715  76.1604357  16.2253726  90.1130581
  76.0608196  16.8993485  90.7854176  75.2684641  16.0556459  89.8100567
  54.1967630  13.4281468  86.7162800  53.5402012  12.9661894  86.1949730
  54.3578625  14.2393219  86.2343311 107.6943244 109.5561976  37.1702743
 108.2018937 109.2471745  37.9206800 107.4109090 108.7564893  36.7271328
  52.3314619  21.8656731  76.8529415  52.4807692  22.5740337  77.4791718
  51.4325047  21.5830159  77.0209026  78.8625574  19.1992712  67.7320004
  79.4211626  19.9558830  67.5538778  78.2072544  19.2158639  67.0344782
 112.6405514 102.9691083  29.2228603 113.5125960 103.0978478  29.5959496
 112.1161903 103.6817784  29.5880699  72.5284940  39.1032685   2.2901318
  73.1697256  39.8050322   2.1779511  71.7128164  39.4668140   1.9455502
  10.4683035  93.8657672  77.8021955   9.7894400  93.5988588  77.1824121
  10.0293654  94.4837077  78.3867645  35.4635024  23.4393406  68.2974625
  35.4237771  23.0626440  67.4183989  35.1578283  22.7379394  68.8726425
  23.0923479 102.9091908  92.7481747  23.0547779 101.9832481  92.9878616
  22.1759718 103.1706132  92.6579475  92.8225422   4.0342164  32.4214196
  93.3090401   4.8451510  32.5695300  93.2861805   3.3782759  32.9420090
  67.1522236   9.3716598  73.3868980  66.8728828  10.2854931  73.4426498
  66.8394947   8.9755672  74.2002535  33.9183634  90.5182190  54.5266962
  33.9971226  90.7585902  53.6035252  33.9785355  89.5629234  54.5314360
  80.8824426  52.0922838   7.0282051  80.2362329  51.3868652   6.9961426
  81.7210371  51.6559003   6.8780109  60.5835533   8.0486929  82.6936626
  60.5561924   7.2090304  83.1524086  60.7850027   7.8194898  81.7864037
   1.6238564  72.3900790  80.6558418   1.9440621  72.4625654  81.5549755
   1.6573637  73.2846017  80.3168106  23.0447214 106.0526730  87.2979736
  22.5582140 106.8641854  87.1531010  23.7643259 106.0890717  86.6678333
  53.7165308   3.0906582  77.8285122  53.7385988   3.4757552  76.9524717
  54.3958044   3.5594064  78.3133793  10.9559983  86.9676514  80.6152630
  10.1453322  86.7874093  80.1392651  11.5487927  87.3227019  79.9528694
  37.7700853  49.7455120  54.2972851  37.9173350  50.2355146  55.1062632
  38.5216594  49.9624872  53.7456608  50.3148794   8.2504976  95.2110195
  49.6693563   7.6354629  94.8627949  49.8549032   9.0894210  95.2403641
  14.4354027  91.9316108  83.4444523  14.9568432  92.4263818  82.8123665
  14.0163630  91.2457533  82.9246044  91.2261868   9.3070495  62.5226164
  91.0607052   9.6651411  61.6504812  92.1618080   9.4491434  62.6663065
  86.1903126  64.7495462   2.5796673  85.5128223  64.6245553   1.9151279
  85.8895475  65.5015321   3.0898544  55.3095961  10.0327253  87.2380733
  55.4061651  10.4144621  86.3656139  56.1260223   9.5541734  87.3818302
  40.4236555  30.9389758  46.8400478  41.0165930  31.1967969  46.1342239
  40.9979010  30.7798862  47.5891542  47.7816248  32.2555852  65.4193878
  48.6309147  32.2018218  64.9811554  47.9096031  32.9049587  66.1108828
  48.1485176   7.3355526  81.4059544  47.6848602   6.8346477  80.7348824
  47.4889946   7.9342765  81.7563629  55.6660891  12.1322799  81.9415474
  55.2891207  12.7713454  81.3368034  56.4485407  12.5619996  82.2870159
  37.3864031  45.6114864  55.5720997  37.5017524  44.6629477  55.6286526
  37.0616055  45.7607460  54.6841478  29.4745367  95.0093813  75.8068848
  30.3103560  94.5853085  75.6124783  29.5492094  95.8781643  75.4120779
  50.5055714  16.0158968  70.8937120  51.0990620  16.4129531  70.2562571
  50.0773287  15.3073430  70.4133081  78.4723043   1.3465025  76.9612265
  78.8172245   1.5666947  76.0959053  78.0902004   0.4756678  76.8522644
  40.0326920  27.2185087  86.1297894  40.5931711  27.8516507  85.6812096
  40.6310415  26.5267944  86.4121723  83.5951519  11.9108212  54.0884590
  83.5930347  10.9929395  53.8169479  84.5021152  12.1933138  53.9707661
  58.6236191  24.8549080  82.9402351  59.0583229  24.0248919  83.1360245
  59.3283844  25.5025482  82.9500580  88.1840801  36.1608791  40.2630520
  88.4947491  36.4050841  41.1348772  88.8822460  36.4432001  39.6722150
  72.4722004  29.0685916  47.5989628  73.2361650  29.0235496  47.0240211
  72.2310877  28.1544781  47.7489471  90.4238510  20.1734996  53.7816620
  89.5997334  20.3679633  54.2280340  91.0203362  19.9121344  54.4831753
  44.9593353  44.0558624  66.0639143  45.2388477  43.2317734  65.6651878
  44.8465776  43.8471365  66.9912481  64.7828388  35.2536917  76.7885733
  64.1211700  34.6281385  76.4934349  64.9538422  35.0100851  77.6983213
  59.1995525  16.5635180  61.7864752  58.2700634  16.3853407  61.6431761
  59.2712593  17.5166965  61.7360687  68.3784151  13.9689088  88.5377979
  67.8785133  13.9952254  87.7219296  68.8228416  14.8159170  88.5738087
 110.2560026  38.3160307   3.1559059 109.5721704  38.9654793   3.3196804
 109.8250753  37.4733068   3.2985661  21.2090367 105.2239032  78.7182474
  21.8654507 104.6834726  79.1578865  21.6021698 106.0958774  78.6816740
  38.9168143  42.1955967  63.3878136  39.2241025  41.2893248  63.4098053
  38.1412745  42.1720028  62.8272676 105.3926945   5.3036022  76.1719751
 104.9982643   5.8918744  76.8158627 106.0667801   5.8326870  75.7454681
  67.4800301  22.9745197  74.7565603  67.6188660  22.7136922  73.8461065
  68.0273628  23.7516737  74.8691940  70.7321119  20.1853800  66.7851877
  70.0088930  20.5827689  67.2702312  71.1705828  20.9233642  66.3616800
  65.8496666  23.3185482  69.1025972  65.0242329  22.8748631  69.2976236
  66.4846277  22.9137254  69.6935034  43.9968204  35.6475759  86.6087055
  44.8394251  35.8061457  87.0342731  43.9014530  36.3710332  85.9892368
  29.4077587  47.8928518  57.6672220  29.1633439  47.4589872  56.8497562
  30.3055525  47.6047564  57.8321505  32.4276781  34.5706201  55.9785366
  32.0951939  35.4636908  55.8884764  32.0490599  34.2557240  56.7993402
  34.6165705  17.1177328  34.3512177  34.3513417  17.7161241  33.6527824
  35.4289031  16.7236435  34.0333462 100.9088135  38.7362576  56.5300322
 101.5980339  38.2563663  56.9892836 100.3940773  38.0572820  56.0938358
  25.6615567  45.6825876  81.3637733  24.8065257  45.6003475  81.7861366
  25.7654405  46.6223097  81.2142467  35.2983761  10.6142449  65.2265787
  35.5759239   9.6984184  65.2050877  36.0088873  11.0692942  65.6786156
  31.8899840 110.9467259  75.7059479  30.9464329 111.0138301  75.5595160
  32.2618836 111.6755513  75.2092218  60.1391315  11.6830134  75.2246952
  60.3093767  11.1245060  74.4661999  60.6546831  12.4727547  75.0611591
  26.5501326 108.7369583  74.0752363  27.2706097 108.4465740  73.5159349
  26.2836188 107.9499454  74.5504379  79.1476351  68.5949387  23.8437721
  78.6475045  68.3674123  24.6275684  78.7125427  69.3752290  23.5001537
  54.6350193  34.2319918  83.4164906  54.8139238  34.9356174  84.0402985
  54.0657091  33.6281085  83.8934040  51.3581467  33.5475993  41.5172672
  50.9065247  33.4097219  40.6846428  50.6734514  33.4537077  42.1795464
  58.2461596   5.2402270  43.8971519  59.2016315   5.2511799  43.8407183
  58.0234575   6.0551381  44.3472099  20.5018395  92.9285247  64.8747158
  20.8212679  92.6900084  65.7449484  19.8208302  93.5805626  65.0399494
  64.7571754  39.5283818  62.4848127  65.0853586  40.4274225  62.5008297
  63.9517450  39.5765591  61.9698429  17.7903193  93.9310951  75.8839369
  17.2944229  94.1620488  75.0984573  18.7023133  94.1053922  75.6512928
  72.1305132  23.1995797  68.8000965  72.7541018  22.8384018  68.1700802
  72.5141716  24.0357637  69.0643644  66.7568541  16.2842023  76.1053038
  66.4137077  15.4252279  76.3515615  67.2432041  16.5776873  76.8757391
  58.0441093  39.7336030  75.4641438  57.9882431  39.1529489  74.7052288
  57.1483564  40.0451136  75.5938339  38.4630990  17.7337372  58.0376768
  37.5269437  17.7595615  57.8397465  38.8651037  18.2853246  57.3665762
  51.3903666  11.7438912  81.8762779  51.9756794  11.2115777  81.3374996
  51.7461252  12.6302361  81.8125820 106.4793998  61.6450496   3.4406826
 107.3738081  61.9720866   3.5371944 105.9972460  62.0498838   4.1617081
  45.6264734  14.3656588  74.4364882  44.8026991  14.5153630  74.9004078
  45.3701448  13.9119780  73.6335516  79.1984129   2.0122796  23.0492067
  78.9092875   2.0695235  23.9598989  79.7410107   2.7903146  22.9208231
  41.7375565   0.4431461  54.5810080  41.4164305   0.7311345  55.4355097
  41.1440420   0.8528091  53.9516020  78.3200359  37.3721766  90.2162933
  77.6155615  37.8391743  89.7670174  77.8728390  36.6949725  90.7238770
  64.5995760  36.9908977  67.8583860  65.0263596  37.8476691  67.8639269
  64.4498730  36.7919064  68.7826300  60.6197691   0.5729276  70.5839825
  60.7217836   0.7111154  71.5256453  59.6728992   0.5681557  70.4437971
  55.9972143   1.2925139  30.5342555  56.1502266   1.8313013  31.3104820
  56.3460302   0.4321453  30.7673359 110.7971603  83.8866164   8.2987473
 110.3336269  83.7140776   9.1182587 110.1034958  83.9731313   7.6448605
  80.1975346  21.8657207  67.2139645  80.4405880  22.7536893  67.4760199
  80.8169174  21.6431141  66.5189505  49.2468977  38.1850863  42.9734993
  50.1607990  37.9211092  42.8670263  48.8150215  37.8802633  42.1755075
  79.6082067  32.4036551  54.4258451  78.6953926  32.1719122  54.5970058
  80.1037502  31.6223717  54.6713400  58.6604834   2.6918787  86.7975616
  58.6660957   2.6322481  87.7528858  59.3983841   3.2647988  86.5890121
  89.5013618  31.6362262  38.8323331  89.1916275  32.5326276  38.7028742
  88.7141895  31.1412883  39.0595412  29.8248976  99.2586894  81.1833572
  30.6199711  99.3305750  81.7114925  29.6452683  98.3191771  81.1475658
  53.4851408  19.7863746  56.0210085  53.5151672  19.2434871  55.2332258
  53.0263996  19.2477453  56.6657305  64.7134256  18.4605587  22.2165370
  64.2641497  17.7913904  22.7328682  65.5474615  18.0573320  21.9756556
  69.9480772  44.9315929  88.2027912  70.4583883  44.4264412  87.5698376
  70.4620361  44.8939371  89.0094280  38.4196210  31.5613723  45.0027323
  38.8208628  32.3412251  44.6192360  39.0639973  31.2479424  45.6373739
  42.2651196  42.3664284  69.8538637  41.6341305  42.8432465  70.3930569
  41.7757225  41.6139984  69.5213413  95.9875107  11.0703659  72.7210379
  95.9018326  10.1225734  72.6181793  96.6821289  11.3157868  72.1098852
  76.1880190 111.3361074   9.3398640  75.3084928 111.2073423   8.9847824
  76.1400682 110.9883739  10.2303764  47.7679968  24.6216178  77.4272108
  48.6423540  24.9839735  77.5701284  47.9243279  23.7827897  76.9934320
  79.6426535   0.0587033  43.4818888  80.2594185   0.7850404  43.3909559
  79.4047880  -0.1675227  42.5827360  97.5223619 103.3812906   2.0160362
  98.0526239 103.7074568   2.7431366  97.3782474 104.1482689   1.4617703
 101.3932705  28.4568858  78.2435465 102.1537685  28.9178157  78.5976744
 101.0107136  28.0103707  78.9988661  90.8860588   6.4904809  77.9213810
  90.0627232   6.5956455  77.4446297  91.5603828   6.5115023  77.2423553
  33.5476041  37.9878712  82.6649189  33.2999086  38.1084609  81.7482185
  34.4950843  37.8538680  82.6413727  61.1101341  30.8541012  67.8149891
  60.3124952  30.7630324  68.3362532  60.9133482  30.4012990  66.9949436
  27.7843731  85.7731147  60.4355240  27.3152226  86.3485784  59.8313951
  28.3649367  86.3585300  60.9218025  30.8808010 110.1663643  72.9586554
  30.5307406 109.3144495  73.2192898  30.1731604 110.7833408  73.1452513
  50.6406641  20.2754641  61.0348940  51.0461521  20.4681969  60.1895142
  50.8926916  19.3709373  61.2207556  41.9175291  32.4375439  71.5483809
  41.6010523  31.8666196  70.8482933  41.3752699  33.2233739  71.4801359
  65.9708118  10.6496441  65.5574942  66.2834024  11.5295494  65.3470516
  66.2028408  10.1236296  64.7921801  45.6374454  30.4253721  40.3099060
  45.2054787  29.5982194  40.0967073  45.4408789  30.5664897  41.2360144
  41.4795923   7.8729796  41.0405445  41.7127132   8.0690104  40.1330948
  41.4968777   6.9172758  41.0911703  76.7496157  22.5869489  93.0293465
  76.1464262  22.0209336  93.5110283  76.6875839  23.4339190  93.4709644
  95.8436680  17.4397099  85.6948280  95.6338882  18.1522143  85.0910473
  94.9987984  17.0340085  85.8893299  83.3839035   4.5939761  44.1459799
  82.8086662   5.3392756  43.9731789  83.3768654   4.5018327  45.0987101
  89.9520206   2.7252194  78.1403255  89.1620445   3.2654786  78.1233454
  90.6241703   3.2954213  78.5135841  74.0387869  14.0654755  79.2460203
  73.8665056  13.4602666  79.9673223  73.8462543  14.9304461  79.6079445
  76.7684221   4.1024065  46.6076851  77.3473358   3.8496631  45.8885145
  75.9046650   4.1824788  46.2030268  30.7946062  25.6991053  56.7458439
  30.2983499  25.0493598  56.2480593  30.1482034  26.3641262  56.9827890
  17.7055138 111.2179655  96.6937256  17.7455586 110.7218916  95.8760834
  16.8233412 111.5892633  96.7056465  55.2208853  22.0176244  88.1533146
  56.1697054  21.8998313  88.1991386  54.9726486  22.3060369  89.0316200
  55.3714466  37.5371313  62.2307634  55.7883835  37.2976804  63.0584478
  55.2874756  38.4897614  62.2716665  53.6850578  99.8594143   2.5641987
  53.1508655  99.7155477   1.7830631  54.5256907  99.4506456   2.3581001
  73.0853510  14.7976005  26.9032764  72.2025585  14.8363936  27.2712541
  73.2681847  15.6947994  26.6242814  58.2821560  21.5580964  38.3532119
  59.2181063  21.6610003  38.5253739  58.2418919  21.0268831  37.5579619
  68.6096573  33.4607196  84.5659542  68.2112122  33.4605646  85.4362869
  69.5220852  33.7054253  84.7203064  57.7711868  28.0790830  91.5500450
  57.3188782  28.9118099  91.4150906  57.2495747  27.6280332  92.2138977
  44.9797964  29.8462939  50.9075451  44.5619059  29.1836476  50.3575420
  45.6945848  29.3809199  51.3419771  18.1105649  43.6914873  89.5758533
  17.3497045  44.0150213  90.0581932  18.8545704  44.1493940  89.9670219
  42.2927141  32.0932341  80.6836319  42.2578526  32.6026583  81.4932632
  41.7883492  31.3027906  80.8761024  61.7337799  13.7183928  70.3880978
  60.9926128  14.2875910  70.5952549  61.5929270  13.4641290  69.4760990
  42.6681137  17.9230881  87.8247261  42.4227953  17.5746477  86.9676113
  41.9753075  18.5488474  88.0361080  23.2795733 103.1197466  66.5156221
  24.0221041 103.6969401  66.6937399  23.3247584 102.9550613  65.5737782
  97.9015827   9.3786460  87.4181557  98.4012508   9.8528683  86.7535686
  98.3621311   8.5450876  87.5146008  71.1515474  36.7290735  52.9616737
  71.8449163  36.0920167  53.1338072  70.4083061  36.2011671  52.6698828
  50.8075476  19.8180270  74.6577978  50.3850651  20.2169180  75.4184723
  51.6786432  19.5721114  74.9691725  64.4002771  11.2649298  80.1343250
  63.9611053  10.9179580  80.9108353  65.3092766  10.9792137  80.2255154
 116.6945076  32.3354769  66.8232918 117.0751190  32.0301938  65.9997845
 117.3702908  32.1615505  67.4785042  48.6852169  26.4910078  52.3173046
  48.9457750  26.5363860  53.2372427  49.4995546  26.3146806  51.8461418
  50.0173109 108.9568840  70.8615398  49.6978968 109.6341662  71.4577723
  50.5096548 108.3571602  71.4220333  39.2948693  92.8501422  57.2314596
  39.0030735  92.4422605  58.0467606  38.6128968  92.6309938  56.5965462
  89.6656227  22.8545737  83.9492130  90.0663662  23.3932352  84.6314716
  90.2323627  22.0856690  83.8873672 117.3295540  20.3102589  78.3395147
 116.7963846  19.8664951  78.9990854 118.2044680  20.3498006  78.7257719
  42.9249859  21.1363387  91.6584301  43.0596495  21.3055110  92.5908852
  41.9738197  21.1277819  91.5514851  43.2784414  25.0902653  62.5696278
  42.8792143  25.1215315  61.7002201  42.9581213  25.8781719  63.0087519
   9.8103935  27.8352332  74.6315241   8.8781506  27.6184368  74.6439171
  10.1743996  27.3705506  75.3850460  62.0977545  12.7591228  88.2173920
  61.8596792  12.3068404  87.4080753  62.9214334  13.2010972  88.0113697
  42.0421696  34.8292732  68.6198235  42.3181581  34.6687508  67.7174425
  41.1293316  34.5424032  68.6457300 102.8877813  59.3413846  23.8291046
 102.7358038  58.8907282  24.6597931 102.6295883  60.2475913  23.9975044
   2.1079462 106.2524469  60.9337473   2.5940340 105.4503233  61.1249208
   1.1879605 105.9959884  60.9976816  83.9736748  10.3294218  73.6978626
  84.9156094  10.2628958  73.5411072  83.9017487  10.7986665  74.5290470
  79.3939400  20.4321599  80.7356548  80.1215935  20.9879780  81.0146236
  78.6112833  20.9507608  80.9220219  61.2380648  33.0330348  11.6359389
  60.5219650  32.5224853  12.0137966  61.5404701  32.5089812  10.8942199
  87.1468145  74.8910703  14.6863720  86.5308935  74.2819978  15.0936768
  87.4610740  75.4334523  15.4097626  55.3795004  23.6499643  56.3060951
  55.5735970  23.0656457  57.0389891  54.8092461  24.3217564  56.6799116
  77.8526306  15.2504909  54.8022890  77.0374966  15.4264784  54.3323755
  77.6741791  15.5238676  55.7020998  76.1638927  16.4635634  65.5559921
  76.9649887  16.0853636  65.1934433  76.4639950  17.2145057  66.0681009
  85.7592487  13.9282846  80.5197811  85.6197071  13.1613743  81.0753155
  84.8947906  14.3331659  80.4489040 110.0328285  43.5081770   5.3993198
 110.6990797  44.1703142   5.5834744 109.9051506  43.5539355   4.4517777
  72.0354605  13.9614046  88.7992859  71.3170767  14.4592893  88.4090614
  72.7698803  14.0901756  88.1990528  88.9597034  17.0982707  94.2356968
  88.3264446  16.3831329  94.1741371  89.5365047  16.8460321  94.9567509
  54.0184832  12.7557147  68.1202745  54.5726919  13.3435917  68.6335850
  54.0614080  13.1031501  67.2293901  49.1636515  18.0655134  50.3869343
  49.5615387  17.2019362  50.4971790  49.3469286  18.5203767  51.2089682
  98.8019657  33.4919524  82.9415035  98.2285881  32.7799964  83.2253742
  98.3407593  33.8913178  82.2039223  79.9948597  12.8371096  46.5148640
  79.2588472  13.2081139  47.0015621  79.6077538  12.5233173  45.6976080
  79.3436384   8.6726618  75.0128651  79.5659208   8.7147677  74.0827847
  78.5830784   8.0927503  75.0513363  59.8975801  34.6365309  34.2507124
  60.7555532  35.0391150  34.1163898  60.0481987  33.7009692  34.1155338
  86.0870361  10.3945768  41.5948153  86.1403465   9.5536339  42.0489120
  85.7099819  10.9920382  42.2406483  35.5757403   4.7942039  65.8927059
  34.7611737   4.3421167  65.6728601  36.1883497   4.5316094  65.2056932
  50.3556555 107.8257127  78.7206364  49.7375696 108.3279036  78.1895971
  51.1821669 108.3018677  78.6406612 116.0646213 109.4205208  95.6584644
 115.2313651 109.0601992  95.9619141 116.0066331 109.3867457  94.7036171
  54.8512602  20.9059620  71.5026712  54.7696543  21.2106109  72.4064159
  55.2443790  21.6434026  71.0359001  49.1579294  25.3624368  62.4917269
  50.0430536  25.1352644  62.2068071  49.2384720  25.5020738  63.4352541
  58.2816505  34.4419265  61.7443419  57.5089884  33.9488530  62.0202017
  58.1266832  34.6321011  60.8191156  22.0954293  98.8584049  95.9059429
  21.2462395  99.2747373  95.7583714  22.5680607  99.4713695  96.4690781
  65.3051853  11.5994048  41.9781351  64.4938421  12.0335329  42.2417545
  65.0214481  10.8945394  41.3959932  82.1966583  92.9382803   9.5659992
  81.8359358  93.1713106  10.4214642  81.4348203  92.6804663   9.0469906
  41.2895250  52.9213953  83.5577106  41.1061144  53.8608360  83.5509872
  42.0405197  52.8281689  84.1438389  81.9632339  22.0178866  78.3390665
  81.9424820  21.8901634  77.3906517  82.7763557  21.5979147  78.6195660
  47.2650719  10.1000845  90.0012684  47.2180128   9.8165470  90.9142971
  48.0672216  10.6201410  89.9530220  50.3968763   6.1578840  59.8634005
  51.3324451   6.3485581  59.7956610  49.9871540   6.7378235  59.2215014
  50.9651470   4.5488375  94.4555569  51.4616394   5.1379102  93.8874722
  50.8582830   5.0370222  95.2719402 100.7009506   5.3516853  80.8915615
 101.4874458   5.7401180  81.2746716 100.0527191   5.3799355  81.5952873
  53.9263725  30.7783604  69.7305775  54.0629387  31.7052817  69.5346308
  54.7921181  30.3823996  69.6308947  67.9332399  12.9313529  69.8629379
  67.6676083  13.8487840  69.9261189  68.6804438  12.8569245  70.4565525
  49.3101120  21.2725449  83.5297203  49.6580124  20.4160547  83.2814693
  49.9780989  21.6446495  84.1055393  90.0849342  35.5663657  64.8923922
  90.9561729  35.4928875  65.2819681  89.7626591  34.6658349  64.8547888
  82.5598270  68.4700479   3.9741776  82.4908573  67.5927772   4.3508312
  81.9663603  69.0045537   4.5017502  59.3916988  15.5908644  64.3085241
  59.8353100  16.2124026  64.8856974  59.3958187  16.0156202  63.4507370
  58.0988216  34.9084926  54.8807096  57.8127432  35.8103561  55.0257349
  58.3740902  34.8889875  53.9641523  97.6129467  73.8839103   2.4419758
  97.4372083  74.0260543   1.5118477  97.3294384  72.9842283   2.6045391
  52.3396730  16.3759696  88.7638760  51.9290638  16.3254452  87.9006958
  53.1411076  16.8788457  88.6188030  40.8160019  34.9965286  72.2070312
  40.1657867  34.6540618  71.5937042  40.4051113  34.9062800  73.0668306
  10.2144848  29.8160769  23.8807175   9.5089470  30.3632786  24.2256996
   9.7677361  29.0557911  23.5084126  45.1430624 109.0258662  80.1593304
  44.5384424 109.5373565  80.6969547  44.9595469 108.1157823  80.3923512
  33.9243668 109.4182679  44.6418047  33.8184565 110.3644755  44.7403193
  33.1878680 109.0432594  45.1246786  78.3953571  25.4499984  64.8451424
  77.7006435  25.8767867  64.3436909  78.0332422  24.5945120  65.0759029
  47.9928827   7.1752501  32.4729490  47.2457600   6.5770298  32.4862528
  47.7063274   7.9278719  32.9903269  86.7693138  67.3774004  32.3207116
  86.6722679  68.3197546  32.1836615  86.6434288  66.9948626  31.4523506
  81.1352921  62.3515654  58.4886885  81.1570454  62.1193314  59.4170380
  81.5037155  63.2343340  58.4539318  86.4175701  62.7300787  67.0182610
  87.0334530  62.3080206  67.6172447  86.6293240  62.3637486  66.1596584
  77.4322557  33.5948515  51.6574383  76.6980648  33.7108898  51.0543394
  77.1950245  34.1135097  52.4261665  80.6404591  87.0347786  69.9089766
  79.7172070  86.7946529  69.9875927  80.9886074  86.4349651  69.2492437
  68.7224388  49.1089916  46.6874790  68.9125776  49.9746275  46.3258743
  69.3678522  48.5318708  46.2793064 110.0411224  66.8427944  59.8664141
 109.3560219  67.5109768  59.8863459 109.5770073  66.0193157  60.0171041
  62.3588610  21.9952869  51.6827297  63.1291103  22.5076747  51.4369535
  61.6292524  22.6108694  51.6123199  77.2021866   8.1225312  21.6575956
  77.0789480   8.9457053  21.1849141  77.7711535   8.3512467  22.3925805
 105.7087708  33.6960983  61.5783358 106.5703964  33.6638546  61.1626625
 105.0895596  33.6253881  60.8518314  49.4744890  23.0838401   1.9306824
  49.4346636  22.2788960   1.4142391  49.4729632  22.7852542   2.8401157
 101.8116474  79.2770815  76.0330009 102.6615334  78.8718796  76.2054920
 101.4064026  79.3603420  76.8961763 103.0992603  91.5283203  63.2984734
 103.0505657  91.5729427  64.2533922 103.7665176  90.8647251  63.1234217
  93.1217670  92.5873470  78.0253601  92.7068996  92.5099754  78.8845062
  93.6567593  93.3785915  78.0881023 101.0620594  56.0331440  84.5604324
 100.6932640  55.7066822  85.3811836 100.8417797  56.9646215  84.5526218
  73.9157581  80.5284977  58.5411787  73.7213802  80.8408546  59.4248533
  73.3420277  81.0432053  57.9735994 101.3757420  74.7601366  89.3842220
 100.5038929  74.7673941  89.7792625 101.4212322  73.9244938  88.9196110
  68.9076822  11.0601193  11.3989708  68.5132235  10.3318078  11.8787643
  69.2070692  10.6713397  10.5771133 113.1853580  87.4094296  80.2112579
 112.2981071  87.7563381  80.1181316 113.3564758  87.4388981  81.1525726
 116.4830589  48.4119701  42.2917604 115.5402946  48.5769272  42.2767496
 116.7428493  48.5891724  43.1958294  75.8078766  91.0688496  55.8385229
  75.0436258  91.3160133  56.3591576  75.4607344  90.4808044  55.1677561
  53.6948239  98.8090469   6.5843555  54.1417538  99.2883875   7.2820065
  52.8129136  99.1806890   6.5653584 106.7720222  99.9539089  78.6926556
 106.1870003 100.6973553  78.8384485 107.6468182 100.3408527  78.6573172
  15.8294539  89.2983723  36.0551882  15.2521281  89.9692726  36.4196348
  15.5589156  88.4886742  36.4881158  72.2066879  55.2382469  47.5613499
  72.6885033  54.6550369  48.1478214  71.2992764  54.9389124  47.6182508
  25.9864764  43.9575815  61.7179775  26.8607573  44.1290474  61.3680172
  25.5446200  44.8060513  61.6849375   6.3067775  84.2787457  65.9546900
   5.8166365  85.1007843  65.9386492   7.1165805  84.4917488  66.4184618
 108.2520580  81.0402870  77.7115345 107.7464485  81.8434525  77.5869608
 109.1540813  81.2919521  77.5133896  65.0231361  99.5011425  75.7863855
  65.5155849  99.1126442  75.0633383  64.4741344  98.7881279  76.1126518
 109.0514946  52.5412416  88.9938641 109.2387772  51.6897154  89.3889046
 109.8526001  52.7674627  88.5213375  96.2911606  90.1773643  66.9336510
  96.9551277  89.6023941  67.3141575  96.7695713  90.9719467  66.6969967
  74.4795513  69.3555927  52.6418495  75.0633812  69.1721344  51.9058323
  73.7083578  68.8131380  52.4768114  86.7624187  75.8386040  95.6916618
  85.9183216  75.4749727  95.9590340  86.5449905  76.6822290  95.2951050
 106.4148712  77.9197454  74.9023199 105.4686356  78.0492544  74.9663305
 106.7426968  78.1103754  75.7811975  47.8100794  12.6212508   4.9438450
  46.9166105  12.9614074   4.9912521  48.3654803  13.3829696   5.1098034
  87.9227066  93.1806183  85.9676266  87.7481079  92.2938633  85.6523514
  88.8375378  93.3412838  85.7363033  81.4131641  81.1077499  91.7109108
  80.9456253  80.4688549  92.2489166  82.1059132  81.4402771  92.2816563
  73.8745802  26.4358289   8.0862114  74.1337126  27.1965653   8.6061642
  74.6620768  26.2020356   7.5948689  38.1171816   2.8968198  12.0601151
  38.6149328   2.3345668  12.6537106  37.5441473   2.2953183  11.5846607
  49.4389647  44.4578225  12.8584168  49.3551081  45.3968007  13.0242798
  49.2853945  44.3660504  11.9180843 113.9113331  75.2307558  71.8238783
 114.6414661  75.8462667  71.7584896 114.3003368  74.3767786  71.6351032
  38.8153761  29.8510224   4.3295261  37.9959219  30.2424294   4.0269920
  38.5493820  29.2384297   5.0152370  18.3818679  44.6069670  85.3120518
  18.9640193  44.9933958  85.9662628  17.9109912  43.9212561  85.7856560
  83.6376095  82.3389530  44.2465782  83.3207798  83.0289745  44.8294306
  84.4923496  82.6505375  43.9489746  83.7595749 102.4433708  61.3114214
  83.0343533 103.0635166  61.2359619  84.2471695 102.5444221  60.4939413
  98.2592964  69.9540663  74.5674896  98.0520630  70.4958725  73.8060904
  99.2006779  69.7948551  74.4990826  83.7766647  69.1882563  57.4528599
  84.4324112  69.4231367  58.1094074  83.9005852  68.2490444  57.3158979
  94.7355366  94.9578381  78.6216736  94.5118046  95.7635117  78.1557703
  94.1828823  94.9716854  79.4030905  93.7313461  63.3328962  79.8072290
  94.2709160  64.1070986  79.6468925  92.9897499  63.6591768  80.3169346
 105.5970955  66.8882465  85.5754852 104.9385643  67.5799370  85.6398392
 105.8295250  66.6936207  86.4834118   5.1148658  52.1398497  66.3126755
   5.2856116  51.2277317  66.0778904   4.1759448  52.2534132  66.1651325
  98.2117367  70.3802156  77.8015327  98.9003563  70.0706005  77.2131729
  97.6410389  70.9097099  77.2446060  82.0620155  75.4529428  39.8143578
  82.6852894  76.0721445  39.4344211  82.5822735  74.6701670  39.9955201
   6.3211207  52.1721458  45.1122332   6.1692862  51.7469406  44.2682076
   5.4441123  52.3389530  45.4575920 116.0024834  92.4149227  92.5618458
 115.8935452  91.7391109  93.2309055 116.8925858  92.2862625  92.2341442
  53.2984465  23.2548291  13.8198444  52.3822706  23.3765752  14.0689251
  53.5017317  22.3579890  14.0855286  79.0300703  68.4067011  61.5512133
  78.9429951  68.8663721  60.7161331  79.2092133  67.4986267  61.3072157
  70.5535460  80.0347900  64.1061783  70.8691406  79.4962931  63.3804655
  71.3494682  80.3583431  64.5281363  90.4627514  63.1621790  49.5862436
  91.3225079  62.8632164  49.2901373  90.0151062  62.3639345  49.8666859
 106.8184662  68.2698250  89.0714169 106.6459751  68.9763784  89.6937180
 105.9562588  68.0399895  88.7249851  57.4154490  14.5894868   0.6941196
  56.7014330  15.2202660   0.6017849  57.5796717  14.5498425   1.6362927
  84.8944586  19.6207721   1.3629601  85.1380366  20.4699857   1.7313835
  84.7535914  19.7949559   0.4323360 111.1795044  84.6113396  71.8324518
 110.5298042  84.6561527  72.5339556 111.3346767  85.5245018  71.5910149
  95.6812096  57.4771833  94.4601536  95.4398918  57.6290846  93.5464191
  96.2614441  56.7164421  94.4313526 106.8001175  56.7891169  73.4821033
 107.0218468  55.8734989  73.6515522 105.8573341  56.8403244  73.6394835
  82.1564770  71.2320662  51.7365646  82.9872513  70.7939482  51.9212246
  82.2941875  72.1359301  52.0199394 107.1334362  38.1663108  82.9770470
 106.3942909  37.5793076  82.8179264 107.6532364  37.7209568  83.6461449
 101.0164261  40.0660706  49.0959930 100.3375435  40.6059980  48.6912251
 101.7587566  40.1238918  48.4944677  90.0964546  63.7969542  59.6311235
  89.5817757  62.9966927  59.7355938  90.0127602  64.2470074  60.4717684
 107.6262665  53.9200068  84.6474171 106.7420197  53.5890341  84.8048687
 107.7970123  54.5069456  85.3840160 111.5817738 108.5309410  77.6697445
 112.3348999 108.9836693  78.0493164 110.9644222 109.2305851  77.4561882
  87.6866627  69.5345831  41.0047722  87.2199249  68.7201548  40.8174324
  88.2009602  69.3410587  41.7885303   3.8612227  45.8073425  91.1311054
   2.9752688  45.5053091  90.9308720   4.4147544  45.0404644  90.9836960
   2.1858363  49.6973085  42.3946428   2.3505454  50.2964067  41.6665030
   1.8443732  50.2565622  43.0924034  62.2199392  88.7300110  88.6292648
  61.8009090  89.1840076  87.8981495  61.7913151  87.8746033  88.6573315
  67.0620840   6.2261302   1.6237614  67.9522532   6.0802657   1.3035366
  66.5208166   6.2278325   0.8342907  80.8250141  64.8024464  66.2322044
  80.1990318  64.2063522  65.8210468  81.2819481  65.2133942  65.4983377
  70.1261568 104.4712639  41.9880724  69.6819735 104.4476223  41.1405039
  70.6264496 103.6558056  42.0191240  42.9610157  71.6127110  71.1298132
  42.5747490  71.0410404  70.4663181  42.9681921  72.4796820  70.7241821
 104.3019581  59.8411512  72.0861244 103.5243702  59.4558907  72.4900579
 104.0357971  60.0299740  71.1862707 101.6731358  49.0886497  40.3222132
 101.0495377  48.3776617  40.4700327 101.4198399  49.7640800  40.9513950
  76.7355728  75.1204205  84.1990566  76.2929869  75.9631920  84.0986347
  77.4635172  75.3015184  84.7936344  90.7721615  84.4700050  72.9061890
  90.2528667  84.9936485  73.5164022  90.5976772  84.8582458  72.0488358
  78.0670357  18.0138338  80.6697083  78.3714056  17.5377238  81.4423084
  78.6545610  18.7667763  80.6055069   3.8635497  95.4664898  86.0717106
   2.9978709  95.0955868  85.9006500   3.6919837  96.2321949  86.6198921
 102.1019363  77.9201269  80.3997898 102.5970745  78.1786060  81.1771393
 101.3658428  77.4131012  80.7423115  90.9580612  83.7894630  48.8237572
  90.4946709  83.0412769  48.4472895  91.4986706  84.1216660  48.1070948
  17.8153662  58.5347986  71.6361427  18.5582404  58.0294037  71.9662094
  17.1437316  58.4425211  72.3118830  80.2775192  77.6333237  52.0290661
  80.5472469  78.4589291  51.6267586  79.4134426  77.4566507  51.6570663
  92.0945930  67.4317551  75.6489182  92.5614262  67.9889250  75.0261307
  91.2509632  67.2596598  75.2307081 101.2304020  88.6344624  76.6310120
 101.0350609  88.5022831  75.7033253 100.5298233  89.2066193  76.9441462
  15.7709079  34.1708684  70.2978039  15.7127147  35.0152421  69.8507309
  16.4526706  33.6951280  69.8233461 102.0363998  38.5082746  60.2978659
 101.0794830  38.5315228  60.2971029 102.2547722  37.6254249  59.9993277
  81.5609741  81.5725803  72.7297544  80.9839249  82.2810173  72.4445248
  82.0278931  81.9328403  73.4837008  26.2888961  55.1523352  67.0751429
  26.2472491  54.4831467  66.3919973  25.4473166  55.0866175  67.5264168
  89.8501396  83.4090424  54.1614532  89.9948597  82.8997707  53.3640003
  89.3920231  82.8084469  54.7493649  95.7171154  63.3764029  55.2430725
  96.4739323  62.9948378  54.7982502  95.6233978  62.8589439  56.0428762
  20.5374180 110.8144619   1.7150662  20.0997197 111.6478922   1.5417358
  21.4198243 111.0605289   1.9926140  78.3820915  76.5913105  91.0992908
  79.3302441  76.4604521  91.1097527  78.2674742  77.5263977  91.2687397
  99.0491199  40.3409195  74.0518427  98.6607742  41.1701584  73.7729311
  98.6321068  40.1518917  74.8924398   4.0961032  72.0622540  81.7873669
   3.9859442  71.4017916  81.1033535   4.5822100  71.6125202  82.4785042
 113.5536385  78.4235907  86.2951279 112.7599430  78.4996414  86.8247509
 114.0246487  79.2422628  86.4505577  35.6179357  72.4102640  70.6470203
  35.6308842  72.9337978  71.4482594  36.3150096  72.7821493  70.1066303
  56.3570612   1.4725072   3.3148262  56.5584963   1.5603120   2.3831818
  56.9942969   0.8358962   3.6386845  88.2096481 102.0241642  53.0799770
  89.0596294 102.3565292  53.3685970  87.7251816 102.8053093  52.8128719
  18.1245570  71.9640732  44.9222803  17.3077922  71.5732336  45.2327347
  17.9085498  72.8848314  44.7746944  76.7609900  14.5586831  25.3135941
  76.5264338  13.7001616  24.9612400  77.6678293  14.6913201  25.0374004
  96.1608696  75.7379866  76.9285536  97.0385838  75.4752254  76.6514301
  96.1295319  75.5227089  77.8607035  90.8019924  74.2780447  80.2543640
  90.5208969  75.0935841  80.6692410  91.7580605  74.3243504  80.2585125
  20.2308898  69.4929028  36.7588782  20.2901606  69.1082573  37.6333880
  19.3115477  69.3891335  36.5133858  85.4619312  90.7150078  28.3354998
  86.2605286  90.5379868  27.8383660  85.3190994  91.6558361  28.2322049
  95.0599861  71.9288301  78.5504627  95.1841927  72.1536493  79.4725609
  95.0688648  70.9718132  78.5339689  87.4219704 101.1610889  70.2715397
  87.3973083 100.4728794  70.9363651  86.8591309 100.8357048  69.5689964
  92.5122643  96.0794830  67.5586605  91.6235828  95.9780025  67.8995180
  92.9062271  96.7525864  68.1135941  62.7791708  23.5125071   8.3737919
  62.3588484  22.6528127   8.3958694  63.6683863  23.3525569   8.6899349
  98.7549305  80.9414864  78.0614471  98.5944748  80.0782204  77.6803303
  99.5665073  80.8369541  78.5580921  71.1197710  79.4449377  56.7207289
  71.4609241  80.3342533  56.8154097  70.8637333  79.1909647  57.6073933
  95.3670120  56.8311834  61.2492752  95.0081253  57.3719406  60.5457067
  94.6310997  56.2893915  61.5340996  86.7923069  70.3697491  72.9245567
  86.5000820  71.2812376  72.9301643  86.1771679  69.9174643  73.5018539
  86.9693947  77.0723915  72.8332758  87.7503777  76.5429449  72.9945040
  87.2344017  77.9645014  73.0572128  82.0450783  69.3938398  61.6549921
  81.7177963  68.8911772  62.4009466  81.3064575  69.4288588  61.0471821
  99.0996170  57.7567196  73.9875937  98.2539463  58.1980801  73.9084196
  99.6330738  58.3535528  74.5124245  94.3724060  81.1909580  68.5426998
  93.5759354  81.3996887  69.0308475  94.0621948  80.9507275  67.6696062
  88.6567211  92.3247719  63.7190104  89.5814896  92.2844601  63.4752798
  88.3088493  93.0623150  63.2177544  98.9806557  54.0210056  90.4350090
  99.0051746  54.7353888  91.0716248  98.0780888  54.0150785  90.1163006
  69.3386745  77.1560907  87.5015354  68.4264946  76.9347572  87.6890755
  69.6471500  77.5931454  88.2952976 101.6851234 103.0413246  36.1527324
 101.9298649 102.8297329  37.0535994 101.5369034 102.1910763  35.7388067
  66.3053465  97.7043724  88.1998634  65.6338024  97.0356178  88.3341312
  66.5620279  97.6053619  87.2830486 101.8883896  81.7033577  57.6050186
 102.2709084  82.5638103  57.4331617 101.8102074  81.2990856  56.7409086
  96.0032177 103.9604092  65.1180601  96.6298485 104.4224072  64.5611715
  96.1600876 103.0335999  64.9373579  45.9295672   1.6592938  32.8523800
  45.0490015   1.3234145  33.0198071  45.9147375   2.5523288  33.1966087
   3.8277392  36.5012622  95.0732517   3.0783705  36.8917131  95.5229378
   3.4557395  35.7728720  94.5759583  95.5041885  83.5663319  69.5032072
  95.1813602  82.9179573  68.8774061  94.7813511  83.6851406  70.1193380
  73.4272242  53.6883593  71.7658901  74.2174959  54.1005850  71.4169312
  73.4283400  53.9169168  72.6954031  77.8980923  88.8815498  63.0440092
  78.6703253  88.3808613  62.7809525  78.2445049  89.5859241  63.5918140
  75.9426230  19.5856292  16.1860821  76.4535921  19.4574220  16.9852707
  75.7510393  18.6993176  15.8795139  64.3886614 110.4064465  85.4764652
  63.6111069 110.4641724  86.0317230  64.0615034 110.5576611  84.5897102
 111.1643887  66.0303736  62.5157928 110.5482292  66.4597082  61.9222832
 111.8048382  65.6160831  61.9374990  85.8399105  59.6265841  71.5942383
  86.2879658  60.3444338  71.1468267  84.9395275  59.6683884  71.2720537
   1.2828498  64.2999840  87.7478218   0.8734755  63.4651566  87.5204277
   0.5488448  64.8772335  87.9581928 101.4999771  44.5585155  58.9347601
 100.6081295  44.6565676  59.2682743 102.0290756  44.3848181  59.7132921
 112.5406170  82.8551388  37.3221946 113.1661034  83.0831909  38.0099416
 112.4017239  81.9139194  37.4272680  83.0320168  73.9038515  31.4850926
  82.6709175  73.1358528  31.9278288  82.5339890  73.9666939  30.6700802
  18.6484961  61.8391705  82.4281979  17.8003649  61.5508795  82.7655411
  18.5643725  62.7893877  82.3491573 111.0371780  30.6726646  81.0750389
 111.3574505  29.7989750  80.8507061 111.5541077  30.9284067  81.8389893
  91.3592529  92.2382259  63.5711145  92.2432995  92.3961449  63.2398176
  91.4923000  91.7661667  64.3931198  77.2836781  67.2179413  55.9690380
  76.9875717  66.9979382  56.8522978  78.2251596  67.0456886  55.9821939
  86.5199280  92.7912235  69.8192739  86.2360096  92.4611092  68.9668417
  86.2127399  92.1349335  70.4446983  10.7435279  26.5785408  96.3171196
   9.8346286  26.7210841  96.0528851  11.1009364  26.0001516  95.6433582
 102.1199036  17.5785184  73.2454777 101.3819504  18.1776392  73.3581972
 102.7422619  18.0642629  72.7042246   4.5786147  83.9714813  54.7411633
   4.2818217  84.8689365  54.5904255   4.8647265  83.6660576  53.8803053
 102.6679611  61.6155148  76.1113787 103.1392574  62.4286079  75.9297419
 102.4369717  61.6745329  77.0384121   1.1497550  67.2282028  78.0149984
   2.0740466  67.4563837  78.1142187   0.6942420  67.7998972  78.6329842
  92.5951576  73.3821678  83.2540989  93.0096626  73.2353878  84.1043186
  91.7644787  73.8093519  83.4631824 102.8774071  35.7666397  60.2269745
 103.4371758  35.0640535  59.8964214 102.0106983  35.3673053  60.3016186
  58.5774439  34.2063577   9.6955082  58.6867922  34.9552495  10.2815506
  59.1442984  34.4014127   8.9492771 103.3796215  46.7659092  61.5967607
 103.8638687  47.3259115  62.2034979 103.3327389  45.9181690  62.0387650
  58.1136530  22.6596124   4.6186993  57.7098196  21.8621117   4.9609634
  58.9984148  22.3922450   4.3697998  17.6192223   3.9104800  70.2007914
  17.1843659   3.4556346  70.9220743  18.5291325   3.6168437  70.2463388
 100.4770756  88.0504417  64.8109055 101.1372662  87.4835682  65.2096987
  99.6912861  87.9116344  65.3395748  13.0294280  82.3585320  86.4193058
  13.3034663  81.8501949  87.1826744  13.7439208  82.9791164  86.2757397
  73.4958380  25.3471810   1.5317986  73.2102030  26.1788041   1.9100067
  74.3979567  25.5073602   1.2547276 106.7761230  77.5607634  49.8794794
 106.7348003  78.4233475  49.4665909 107.4276733  77.6585579  50.5738449
  50.1558417  15.2801234   1.0547134  49.8369807  14.7229630   1.7647335
  49.3650931  15.5462844   0.5855629  89.8118418   0.4535252  19.8576901
  89.3843096   0.0018508  19.1300652  89.9754351   1.3371808  19.5281193
  73.9708710  62.1372318  70.8092880  73.1215763  62.0140505  71.2332582
  74.3713665  62.8664398  71.2826824  70.4788416  24.3637711  10.1476833
  71.0199564  23.5882193  10.2958271  70.8776587  25.0418240  10.6930515
 111.3168716  56.1556673  85.9325790 111.5282631  55.7328033  85.1002789
 112.1368313  56.5655470  86.2080574  96.3728428  74.4389772  61.7031050
  95.5710888  74.8227310  62.0583010  96.4809227  73.6199188  62.1865225
  89.9421406  65.5729723  74.3037033  90.4783344  64.8557520  73.9655733
  89.5417309  65.9602499  73.5253000  89.3421650  64.4095421  88.0177116
  88.8134956  64.8121071  88.7066841  89.5473289  65.1297712  87.4215603
 100.4422951  89.2746162  85.2844048  99.5774460  89.6184731  85.0607586
 101.0489273  89.9721909  85.0361633   8.3549361  36.0943198  73.0712843
   9.0044074  35.8057117  72.4300909   7.8121333  36.7233038  72.5959158
  54.3377733 103.4028721  77.5888109  53.8766432 102.7513027  77.0605564
  53.9148474 103.3587837  78.4463739  89.5360374  60.5318975  54.3785143
  89.3286705  60.9913969  55.1922035  90.2915955  61.0009289  54.0244389
 106.4453793  73.4379530  94.7241211 105.5708981  73.7242603  94.4604301
 107.0348930  73.8658810  94.1031647 108.4856224  33.1519604  70.5556297
 107.6260376  33.3655262  70.1926947 108.3308887  33.0518961  71.4949274
  82.8525162  43.4135580  53.3196497  83.6658859  43.6731863  52.8869247
  82.2511005  44.1397285  53.1547022  99.4413757  55.5673361  76.9152784
 100.2565956  55.9992886  77.1703577  99.5954132  55.2766895  76.0163736
   9.9865107  70.4106998  72.3928308  10.2515464  71.1422062  72.9504061
   9.8901610  70.7960272  71.5219259  99.3472290  67.3814964  71.3911676
  98.5704136  67.8393507  71.7123556  99.7180748  67.9707623  70.7343006
  72.5525522  85.2970695  65.7820797  72.6328373  85.8346748  66.5699720
  72.2972918  84.4334221  66.1064053  33.7054877  40.9910011  96.4087582
  34.3838935  41.6096449  96.6794682  33.6639170  41.0825491  95.4568577
 104.7596169  37.0579672  62.1916389 103.8398361  37.2664690  62.0280600
 104.8681736  36.1700392  61.8510056 114.7156811  90.4071140  67.6425171
 114.4183350  89.9231720  68.4129858 115.4218102  89.8714542  67.2810173
 101.1979580  60.2653694  78.8200426 102.0446968  60.4770803  79.2130423
 101.4179802  59.7931147  78.0170488  98.0296326  85.8129025  77.2972012
  98.5231018  85.1145077  76.8671370  98.6604786  86.2222290  77.8894138
 103.7514114  69.6299982  86.3741016 103.8778496  68.9860296  87.0709133
 104.1394520  70.4345274  86.7181969  80.2129173  73.0115032  36.8564081
  80.6250858  73.8126135  36.5330243  79.9195290  73.2330275  37.7401948
  98.9222527  39.7204661  60.2022982  99.2313480  40.2981901  59.5044994
  98.9125347  40.2729177  60.9839249  19.8690657  52.7340364  78.9830303
  19.1041999  53.3002663  78.8801098  19.8374419  52.1488571  78.2261944
  93.5671043  86.2109566  58.8360167  93.5183430  86.4347363  57.9066181
  93.3306694  87.0198822  59.2898655   7.8087954  47.7751589  84.4866085
   8.4034114  48.1667614  83.8468361   7.1657424  47.3025799  83.9580345
 111.1046696  65.1337719  73.7081861 111.7298317  64.7074270  74.2943859
 110.4678345  65.5431032  74.2939568 114.7486496  65.3509665  84.9977112
 113.9432621  65.4951668  85.4944992 115.3686619  65.0075865  85.6410599
  93.5053444  60.0663137  69.4147062  93.8336086  60.2454472  68.5335779
  92.8565502  59.3732738  69.2922926  78.8896799 105.4285717  66.4616442
  79.1198969 104.5068455  66.3448572  78.7566662 105.5245972  67.4046803
  72.2652912  88.4185600  75.9096050  71.3656330  88.0923653  75.8884335
  72.1896601  89.3448544  75.6805182 117.0620632  65.8661366  86.9454765
 116.4503002  65.1597071  87.1526718 117.6058865  65.5131865  86.2412643
 109.4161034  69.8460579  93.1753445 109.9289513  70.4714918  92.6634312
 109.6503639  68.9913511  92.8136444  94.4337273  99.6461201  84.9945641
  95.2777290  99.4498539  84.5878983  93.9675999 100.1661301  84.3399334
  88.2120514  73.7045336  82.4616814  89.0404034  74.1813135  82.4092960
  87.8512955  73.7531853  81.5764046 110.0240612  77.2519112  55.5639029
 109.6045494  76.3982344  55.4567146 109.4843674  77.7042723  56.2122345
   9.0571360 107.8224564  81.2381840   8.7773185 107.0702934  81.7599010
   9.9145369 108.0553341  81.5943527  60.4754066 103.3281422  67.8717661
  60.4807329 104.2671585  67.6861286  59.5600605 103.0684948  67.7671242
 109.9987793  63.2138205  53.3335733 109.3624401  62.9731989  52.6602125
 109.8735619  64.1548538  53.4561014  25.8102452  15.7324081  78.7884569
  26.6849362  15.8647018  78.4228897  25.2205884  16.1331611  78.1497478
  84.6983147  73.9438725  71.4373446  85.2701378  73.2683516  71.0727501
  83.8150978  73.6677217  71.1926031  96.5849304  49.4245815  57.2314119
  95.8829308  48.7770414  57.1673107  96.6295338  49.8166084  56.3593102
  86.0492039  64.8507547  68.8380337  85.3492260  64.3231392  68.4534883
  86.6332626  65.0447464  68.1049013  91.2998867  80.1257133  68.2203388
  91.5762997  79.2212152  68.0729914  91.5616322  80.3122902  69.1219521
 118.1032467  40.1126575  60.8122587 118.1978321  40.9667730  61.2338877
 117.4829292  40.2648687  60.0993252 106.6283131  48.6648035  58.4765148
 105.7485104  48.2885647  58.4513664 106.8170071  48.8937283  57.5664520
  65.9281557   5.0450427  17.4925301  66.8573302   5.0737244  17.7206776
  65.6259649   5.9462840  17.6051018  95.5593204  60.7543087  56.8121147
  96.0097027  60.8124924  57.6547337  94.9072266  60.0646687  56.9362020
 115.0774193  74.9936390  77.1526003 115.1453876  74.8684931  78.0991459
 114.2621708  75.4808426  77.0333481  93.2336712  77.9320288  51.5578985
  92.5563717  78.5050774  51.1985731  93.4081936  78.2852411  52.4302578
  85.0549316  73.4211349  43.3510828  84.4479275  73.3762741  42.6123238
  85.2914524  74.3467236  43.4108686   2.0262294  79.9434948  85.2744865
   1.2858348  79.7115469  84.7139072   2.5278048  79.1323805  85.3565979
  90.7880020  99.0081787  73.8749266  91.0953426  98.2774544  74.4114017
  90.7426548  98.6515617  72.9877996 108.9016819  76.9227791  64.9923277
 108.4877491  76.1772633  65.4271841 109.3887997  77.3652792  65.6874132
  94.3033028  62.2241879  84.2667961  94.1214943  61.3698339  84.6582794
  93.4527016  62.6625013  84.2426777  22.0761351  91.7552757  50.9375238
  21.1388831  91.9155407  50.8274221  22.2079043  91.7467213  51.8855715
  81.2643069  21.3190944  11.9303009  82.0035761  21.9170720  11.8201420
  81.4174765  20.9025723  12.7784035  74.4790476  24.3351037   5.6205627
  73.9643210  23.6735827   6.0828182  74.6309107  23.9579732   4.7539970
  86.8727875  68.3791256  59.2507744  87.0636368  68.1463432  58.3421373
  87.4965382  67.8668833  59.7653294  36.0183178   6.1171966  86.6864300
  36.4545475   5.6636195  85.9651756  35.2179562   5.6141048  86.8366051
   4.2720752  75.7090187  60.8608007   5.2005152  75.9237242  60.7706261
   4.0221553  76.0777521  61.7080355  17.9200892  92.5126266  45.9292316
  18.7043624  92.9689503  45.6244183  17.2075801  92.8903484  45.4135895
  66.0706234  70.7885838  56.2096453  66.1831379  71.4348507  56.9067240
  65.2405214  71.0248423  55.7957077  76.6811579  24.6329648  14.9247810
  77.3219031  25.0740392  14.3669865  76.2061327  24.0519149  14.3306801
  68.1721926  53.2490778  25.1791358  67.4768591  52.7268457  24.7791123
  67.8554916  54.1507769  25.1255798  74.9717379  80.8745861  67.8987455
  75.8700037  81.0935497  68.1465435  74.7691154  80.0871658  68.4038591
  45.7347107  92.4061680  88.5432911  45.5748224  92.7880764  87.6802635
  45.5366278  93.1124783  89.1582012  80.7442015  30.9806592   1.1585590
  81.6474646  30.7244546   0.9722874  80.3165644  30.1690919   1.4319298
  91.7976475  78.3569908  61.8453932  91.3339138  77.5567532  61.5988016
  91.1647415  79.0580988  61.6900826 111.2487125  69.9836302  69.3125725
 110.9519386  69.5693016  70.1228094 111.9503593  69.4148207  68.9957476
  85.5290127  68.0035543  61.9389677  85.1331043  68.8197279  62.2444963
  85.6648731  68.1395817  61.0012722   0.9451823  96.9963074  69.0094233
   0.6364302  97.8600121  68.7357140   0.5226187  96.3877392  68.4033489
  13.9858584  67.5730848  58.3765745  14.9274783  67.7379799  58.3277750
  13.9162497  66.6803885  58.7149286   2.9249816  87.4546528  92.1943569
   3.2131438  87.1624088  93.0591106   3.7366156  87.6118183  91.7118931
  10.2626662 101.7615032  49.1709137  10.6462149 101.5102959  48.3306646
  10.5668978 102.6575947  49.3147373   2.4847274 100.2393341  56.9706011
   1.9086032 100.7213974  57.5638390   2.6930289 100.8657360  56.2774420
 100.6035614  55.4863691  67.1039438 100.8082199  54.9537945  66.3353634
 100.8672714  56.3730574  66.8580437 115.6884575  95.0170517  93.4759140
 115.9688568  94.1733551  93.1212521 116.3634682  95.2443027  94.1154099
   8.6093097  86.2463951  84.3335342   8.8270335  86.7572498  85.1131916
   8.6902098  86.8676376  83.6098385  15.6935935  90.6279945  77.5024605
  15.1267485  90.7020283  78.2702065  15.2756552  91.1805725  76.8419886
  31.6652697  15.4519326  17.8665039  31.6393536  16.4029176  17.9722855
  32.1446532  15.3148038  17.0494244  73.6091727  31.6498334  15.7414028
  74.2188853  30.9739358  16.0374424  73.1257838  31.8981034  16.5293953
  28.2471340  62.6188332   0.3020165  27.4150055  62.6310307  -0.1708916
  28.3837097  61.6974885   0.5227253  57.5252646  21.1579234   1.7574760
  57.0037668  21.9535405   1.8636009  56.8787115  20.4566581   1.6773388
  62.6540106   1.8601901  26.1039612  61.9584959   1.7537457  26.7529270
  63.4601324   1.6686017  26.5832207  83.6510485  12.1907479  12.6168129
  82.7335184  12.2246987  12.8873798  83.6392611  11.7086036  11.7899868
  85.9254473  31.5583665   2.0370075  85.5520075  32.2143704   2.6255867
  86.7219942  31.2652833   2.4795410 111.6762161  70.4876328  35.0849843
 112.0359612  69.6255398  34.8761392 112.3701572  71.1014462  34.8443413
  19.0377383  81.7080498  47.9984093  19.6709685  81.9140148  47.3107767
  18.9528708  80.7550907  47.9682159 109.6512032  44.8990870  52.2906828
 110.0942230  44.1605616  52.7084684 109.8382473  44.7940016  51.3578367
  81.4390755  61.7556953  51.0288286  81.7181015  62.5661039  51.4549923
  80.4919720  61.7275000  51.1645985 103.2398987  58.9152002  76.2296057
 103.3884525  59.8536062  76.1131811 103.1380653  58.5766554  75.3400850
  10.5150561 106.4897823  48.2082748  10.3026728 107.1409130  48.8769674
  11.4203219 106.2411213  48.3950663 105.3357506  70.8490992  79.6464825
 106.2690544  70.6886292  79.5071602 105.2911377  71.2751245  80.5024910
  72.2514343  69.8791552  33.1956863  72.8921843  69.1697931  33.2454300
  72.7676678  70.6527710  32.9692960   6.6847472 111.3665771  63.6599112
   6.5257315 110.4994011  64.0326834   7.2058825 111.8201733  64.3224049
  86.1007690  91.5210724  51.5595055  86.6506290  91.1327362  52.2400093
  86.2961388  92.4572849  51.5990114 101.7343616  96.5077686  72.5801706
 102.6308537  96.7721176  72.3736620 101.3642883  97.2584152  73.0447197
  84.6505451  86.8455029  79.8025656  85.1361752  87.6310730  79.5510387
  83.7320423  87.1138573  79.7788286  15.7375006  95.7265186  59.3588924
  15.6853156  95.2815437  58.5130167  15.6533389  96.6559792  59.1461706
   0.2232699  67.6246214  83.2941437   0.7479529  68.2145691  82.7529430
   0.8631663  67.0415211  83.7025070  23.5328995 106.8725635  41.2859985
  24.1711365 106.3569214  40.7930443  24.0618454 107.3978330  41.8864510
 107.2093868  93.4005451  87.6015759 107.7313900  93.7362766  86.8728542
 106.3180161  93.3533859  87.2559357  80.8944416  72.9272127  60.7398129
  80.8611584  73.8838053  60.7470703  80.5866718  72.6702499  61.6089964
  12.2086577  83.6966324  53.6567402  11.9528823  83.8213348  52.7428150
  11.8751673  82.8282642  53.8824415 103.7141705  70.3980637  64.1449594
 103.3790684  69.6056461  64.5644951 103.6609077  71.0698223  64.8247671
 111.6804695  85.8897018  68.4982967 112.3458862  85.2409077  68.7274694
 112.1421242  86.7276287  68.5296679  76.5311098  97.1374893  50.4145813
  77.4506950  96.9418335  50.5943584  76.1881971  97.4624825  51.2470579
  75.8852482  75.9106779  51.4279079  75.8677673  74.9583340  51.3332081
  76.1398506  76.0561275  52.3390913  88.5923862  76.4506197  66.5304470
  88.0833244  76.3629293  67.3363018  88.3227825  75.7047653  65.9944868
   9.6242575  62.8165483  77.5802279  10.4535441  62.6566648  78.0307436
   9.4838481  63.7596369  77.6645041 100.0623989  76.5283012  70.4701471
 100.4642296  77.3881912  70.3462553  99.1287899  76.7127800  70.5729389
 107.3226166  36.5859413  68.4021091 106.9956112  36.9094157  67.5626707
 106.7620277  35.8370781  68.6050320  66.8945711   6.2786443  31.9399616
  67.1878832   6.6596228  31.1122868  67.7003782   6.1339671  32.4359200
  98.3298492  69.6707869  48.5589552  98.5461903  70.1229000  49.3744421
  98.4247971  70.3402710  47.8814554  93.1983662  23.6416221  62.7201700
  93.0838108  24.2988539  63.4065819  93.7183094  24.0841031  62.0492744
 102.4891949  71.4157820  50.1667976 103.2348251  71.1201286  49.6444368
 102.8592777  72.0619917  50.7681990  33.5105931   0.6836276  72.4315739
  33.7617909   0.2981334  73.2709360  34.2337739   0.4676776  71.8428326
  42.8141897  44.8856026  16.9624493  43.6467093  44.8430402  16.4919827
  43.0512636  45.1767785  17.8429291  78.0174732  86.5086555  70.1416779
  77.3654842  85.9128380  69.7727108  77.6452303  86.7814732  70.9802675
  81.4013611   4.3517451  41.5691662  81.1091649   4.9645953  40.8944273
  82.3508584   4.4679504  41.6033030   1.6918503   3.8524013  78.2266045
   1.8119084   3.5153823  79.1144371   1.0162388   3.2908397  77.8465700
 115.1042175 106.4815998  82.6296711 115.0267982 106.6394138  81.6887474
 115.9322071 106.0111332  82.7262878 118.0197048  91.5207005  78.5366249
 118.4061909  91.8828106  79.3339586 117.1434689  91.9041920  78.4996510
 115.5459023  56.2722778  75.6853962 115.7872200  55.5109644  76.2130308
 115.6187344  57.0133448  76.2868500  69.1206408  79.3734598  37.2548294
  69.2691326  78.8658667  38.0526590  68.6220312  80.1368999  37.5459886
  99.4201851  64.5383167  71.6697073  98.6467743  64.3463612  71.1394072
  99.5272636  65.4871225  71.6024208   1.3340812  83.0173588  64.5979834
   1.5632872  82.5873375  63.7741089   2.0994620  83.5515022  64.8103905
   4.1760974  61.0421896  67.4056482   3.3507972  61.1284018  66.9284916
   4.0684180  60.2478886  67.9288340  59.1477013  77.7672911  41.6699314
  59.8713493  78.1685925  41.1887646  58.9897108  76.9386053  41.2176561
 104.8125935  81.4137936  65.0041151 103.9128685  81.4737988  64.6829605
 104.7959042  80.6891823  65.6293297 107.9058075  78.6945105  46.0848475
 107.0666790  79.1239262  45.9184408 107.8288937  77.8433037  45.6538391
   5.2685313  88.8621712  75.8325481   5.1654868  88.4087467  76.6692257
   5.1737361  88.1740570  75.1739502  11.2307887  96.6559982  36.8850994
  11.8672137  95.9453106  36.9633842  10.4371505  96.2319183  36.5587163
 105.6360626  47.5000048  67.7366114 105.8091927  47.0007229  68.5347223
 106.4881516  47.5654602  67.3054647  27.0432715  51.4590263  64.5745325
  26.9160228  52.4067020  64.6187401  26.7097144  51.2125635  63.7118435
  73.5075998  94.3033123  24.3324375  72.8182316  94.8227406  24.7461987
  74.2689657  94.4196796  24.9007821 117.4627399  72.6901197  61.3540506
 117.4190998  72.9398298  60.4310274 118.3433247  72.9447269  61.6296864
  22.1498411  36.5153367   3.5491440  22.0777577  35.6195409   3.8786575
  22.0504635  36.4304692   2.6009056 103.4027386  92.3180008  56.1972857
 102.8774357  92.0975494  55.4280758 102.9913616  91.8356991  56.9144964
 111.4795113  94.3919468  86.1769581 110.8712101  95.1100254  86.0021496
 111.4041042  93.8224220  85.4113293  82.1559715  66.4475012  64.6939611
  81.6541290  66.7566204  63.9397478  82.5972557  67.2297764  65.0249338
 107.0327091  70.4947805  67.9963732 107.7080727  70.4413414  68.6725760
 106.2161160  70.6108856  68.4820938   6.2836509 108.8362789  87.9407501
   5.3907351 108.7111855  88.2621193   6.1760859 109.0651703  87.0175648
 113.6826801  71.6495275  56.2951279 114.0455627  72.3521948  56.8343973
 113.8645267  70.8501387  56.7892361 112.5817013  61.8221188  80.7409668
 112.5885868  62.6151323  80.2049446 111.6587448  61.6856098  80.9548473
  89.5400906  93.9918900  42.6904631  89.8605347  94.4198513  41.8964911
  88.7005806  94.4157410  42.8688383  10.5620627  76.6460800  53.4481287
   9.7692256  77.0812035  53.1345797  10.3004889  76.2370205  54.2730379
 116.8085766  83.5669994  84.5724297 116.1553478  84.2665958  84.5628262
 116.9435692  83.3780956  85.5010414  75.5495596  99.4212627  74.2047405
  76.0555267  99.9696255  74.8043489  74.9074984 100.0172997  73.8190842
  95.7032967  60.3824043  78.2246256  95.8869362  61.2623930  77.8957987
  95.5422974  60.5050707  79.1601801  89.1333580  93.8029957  77.0766020
  89.3330002  93.9005852  78.0076504  89.1341305  94.6977139  76.7364216
  63.9591044  32.0195920  18.3772823  64.7119826  32.6097543  18.4107563
  64.2751902  31.2056310  18.7694428  41.3257426  51.9040639  15.8286831
  40.5352753  51.7020089  15.3281090  41.7307680  51.0520989  15.9909985
  98.6359960   2.0869212  30.4112720  99.2491276   1.8281131  29.7232890
  98.2135040   2.8756766  30.0712705  98.5935307  77.8521061  78.9425707
  99.2595291  77.3086023  79.3636131  98.4939384  77.4747849  78.0685329
   3.9635043  79.8184681  64.8152256   4.4282870  79.2184973  64.2319298
   4.6530871  80.3558064  65.2050591  74.4663382  71.3541603  67.5915194
  73.6631107  71.6996908  67.9809713  74.1662788  70.6787872  66.9831848
 106.2636757  81.6875744  46.5031052 106.5693378  81.9573498  45.6370640
 105.8376884  80.8433723  46.3545036   6.8861823  66.2590933  72.0852852
   7.4277930  65.7344770  72.6749134   7.2762160  67.1327019  72.1154690
  99.5001030  50.7523060  88.1979942  99.9417877  50.3234577  87.4650383
  99.5359516  50.1109457  88.9076519  80.3345888  44.0310532   2.0445606
  80.0373381  43.2447297   2.5023529  79.6938341  44.1574246   1.3447830
  75.1311445  77.0128250  94.0869236  74.7815514  76.1914825  94.4324780
  75.0433969  76.9298077  93.1373692   5.7814078  76.1707497  33.1258845
   4.9351077  76.1544991  33.5728192   5.7308059  75.4560709  32.4911332
  58.9232844  43.6393983  37.5482151  59.6915358  43.3382470  37.0631001
  58.8455218  44.5662934  37.3222611   4.5274501  94.8552227  71.0942936
   4.1640811  94.0120792  71.3650322   3.8110022  95.4769707  71.2221956
  84.5598412  68.2306623  44.4500399  83.6695957  68.0340147  44.1584587
  84.8747063  68.8892126  43.8308430   9.7000460 100.8801079  83.2574081
  10.4297213 101.4993954  83.2404041   9.9041610 100.2893162  83.9823532
  86.4790249  85.0391006  59.7177553  86.7578506  85.2723217  60.6032467
  86.5554047  84.0854836  59.6859694  83.1407452  67.1918726  59.7451448
  82.8610229  67.8118706  60.4186344  82.4108696  67.1648502  59.1264582
 118.0790901 104.5135784  80.3188610 117.3312283 104.1569042  79.8395777
 117.7136135 104.7961617  81.1571980 115.5977440 105.3408813  56.3487625
 115.4921913 106.2703419  56.1458254 114.9957275 104.8956585  55.7524538
  95.7310295  94.2379284  62.5047302  96.4895630  93.6622238  62.4075699
  95.7672977  94.8129368  61.7403507 110.7543564  90.4862213  86.6444874
 111.6744709  90.2879620  86.4704037 110.4175091  90.8121204  85.8098793
 117.4696445 101.2369633  87.9236507 117.3231697 100.7320118  87.1237755
 116.7018890 101.0551834  88.4656334 105.8504105  62.2301722  57.6199102
 106.2572861  62.9196692  58.1445789 105.7129955  62.6316452  56.7619085
 115.5212116 106.7913342  79.7621775 115.5471325 106.1896515  79.0181780
 116.0230923 107.5529575  79.4718647   6.3943629  56.8246889  65.5668736
   6.5606646  56.5288210  66.4618778   6.0842471  56.0428762  65.1098919
  21.4688336   3.2964664  65.0281572  22.0257699   2.8245788  65.6473351
  21.5721642   2.8219466  64.2033052  82.3689764  31.4439351  12.9704449
  83.0917567  30.8170945  13.0004284  81.6329210  30.9440762  12.6174423
 114.9583626  62.1416903  56.3821125 115.0152969  63.0141973  56.7716217
 115.0870132  62.2888422  55.4450846 111.2954235  67.2160625  64.9710226
 111.0822105  66.7982721  64.1366243 110.6213951  66.9034958  65.5745220
  57.2213000  36.2927968   6.8748352  56.5038794  35.6782681   6.7202541
  58.0059260  35.8194787   6.5981266 110.4327011  78.1922436  87.1722126
 110.2246571  79.0776968  87.4704075 110.3003502  78.2213354  86.2246513
 101.8134975  78.9051437  61.0231066 102.3351479  79.6984816  60.9017849
 100.9493065  79.2241764  61.2831736 100.7833862  76.5346861  92.8835583
 100.6645298  77.3667336  92.4255180 100.0061703  76.4523458  93.4361839
  75.8967543  83.4189320  93.4374619  76.8192530  83.2402039  93.6198902
  75.8077765  84.3644524  93.5570049 112.5884438  65.1253414  54.0884066
 112.4462318  64.1839266  53.9896822 111.8531990  65.4237938  54.6237326
  92.1081448  75.4464722  54.5736933  91.8395519  75.8626842  53.7546349
  93.0632591  75.4101372  54.5219278  93.7879848  72.3110771  46.4620781
  92.9165077  71.9784260  46.6767931  93.9384270  73.0140734  47.0940542
  64.5614850   2.1296458  64.0131283  65.0069176   1.4586787  64.5304489
  65.0470578   2.1580844  63.1887293  99.6464920  83.0483341  64.5699930
  99.0346718  83.5100269  63.9966249  99.0974426  82.6908398  65.2678299
  12.4623351 107.0454693  64.7600603  13.1629329 106.5815544  64.3016005
  12.7440600 107.0612049  65.6747246 105.7091331  68.0564070  70.5227518
 105.7958603  67.1031904  70.5322456 106.5755653  68.3782387  70.7716274
 110.3545094  88.1599522  56.6353798 109.8760986  88.1991005  57.4635315
 110.8101368  89.0000629  56.5820360 114.8758316  88.0490303  78.2285023
 115.6480408  87.5713634  78.5314274 114.1350460  87.5446224  78.5647011
 101.2575150  63.2886457  20.0978231 100.7363415  62.8239870  20.7525706
 102.1649551  63.1342316  20.3604007   1.7123275  68.5293961  93.7268066
   0.9173350  68.5818434  93.1962776   1.5625243  69.1450405  94.4442844
  12.1650080  74.9994087  74.8343372  12.7468161  75.4285479  75.4616928
  11.6774230  75.7171202  74.4301367 103.1797695  81.0383129  96.5839863
 102.3506737  80.8307076  96.1530304 103.1409168  81.9826031  96.7358112
 104.3729401  53.1882191  78.1278896 104.8046207  52.5355768  78.6791945
 104.9149036  53.9722919  78.2158709   3.8482337  96.0155201  54.9830723
   4.0117125  96.8076801  55.4949141   3.9906745  96.2833214  54.0752029
  56.8882483  17.8386123   3.1217548  56.7367762  18.4305579   2.3849461
  56.6204851  18.3407933   3.8913986  78.0242270  78.9858109   8.8929436
  77.7887457  78.4426076   8.1407997  77.2351282  78.9999921   9.4345638
  37.9756802  15.1919467  12.9785320  37.7783840  15.2266747  13.9145348
  38.4290522  16.0155446  12.7986023  53.0036484   1.0110335  82.1069527
  52.8657280   0.1521545  81.7075253  53.0413090   0.8347278  83.0470181
  69.2716789  55.2588892  64.9925518  69.6439362  54.3998146  65.1916647
  69.7382450  55.8620358  65.5711317 108.4296227 106.2215424  63.8073587
 108.5614967 106.4188385  64.7346735 107.5363922 105.8808327  63.7596416
  22.7532058  79.6926451  76.0918379  22.3010783  79.4214201  76.8907452
  23.6825232  79.6554375  76.3181686  24.0838866  61.4434004  82.5950527
  23.4538798  60.7536221  82.8036880  24.9254088  60.9905577  82.5401402
 108.1035137  97.5926113  79.1345358 107.5375366  98.3308697  78.9089727
 108.0917072  97.0352840  78.3564138   4.0109973  44.6618366  94.2248535
   4.5745139  43.9497948  94.5276546   4.6044116  45.4037523  94.1080189
  14.3888335  48.9005089  83.3059978  13.8640265  48.2173014  82.8888321
  15.2951388  48.6321354  83.1549454 113.6938858  97.0485497  91.2155914
 113.4490013  97.8809166  90.8113194 112.9652214  96.4612198  91.0148048
 105.6986809  67.0818996  59.9941683 106.0995388  67.2800970  59.1478491
 105.2822399  66.2293005  59.8681402  24.8546176  92.3278713  92.7808952
  25.3916793  93.0105019  93.1831646  24.5750193  92.7038670  91.9462109
  27.4589383   3.3881049  62.6352406  28.1072651   2.8715472  63.1138420
  27.8163659   3.4605746  61.7502403 112.1269894 104.5042133  65.3565216
 111.5771389 105.2876759  65.3472948 112.6471424 104.5672131  64.5554590
 113.6661911  75.5602741  89.1338634 113.1347179  74.8396873  89.4722843
 113.0508518  76.2871552  89.0377903  76.0749674  66.2185097  66.7625856
  76.1031055  67.0539904  67.2288609  75.9112358  66.4586115  65.8505678
  96.8749619  78.7901402  92.5457478  97.2345734  79.3330669  93.2472801
  96.0947990  79.2617273  92.2538948   9.5951514  95.0132847  82.3758793
  10.4654650  94.8082733  82.7175808   9.1834979  94.1596699  82.2412872
 101.6853523  55.9699917  23.7168574 101.6443539  56.3313437  24.6022820
 100.7935429  55.6715202  23.5384464 109.9887085  66.9865370  28.1852198
 110.4186821  66.3215256  27.6475310 110.5550385  67.0779037  28.9514780
  39.3767773  12.2471385  37.9491711  39.9682271  12.9133945  38.2992148
  39.4248425  12.3591857  36.9997668  94.0419674 100.3839493  67.8529644
  93.2657433 100.5587864  67.3208570  93.7157631  99.8676586  68.5900307
  99.8798275  94.8152637  24.8387218  99.6109867  93.9743328  25.2085686
  99.1073895  95.3736401  24.9269438  54.9239557  44.4946439   9.6259758
  55.3431433  43.8026101   9.1145012  55.1356524  44.2823178  10.5349991
 115.8931923  58.2267857  77.5340796 116.7621803  58.5564280  77.3050976
 115.3424740  59.0088177  77.5711107  28.4066044 109.3763210  32.1700260
  28.0151879 109.7841264  32.9425022  28.9103734 110.0782062  31.7579624
 101.4156055 110.9917736  90.6732273 101.7988396 110.3829575  90.0417900
 102.1663761 111.3490295  91.1475086   6.6381316  60.6716061  94.1298008
   6.3445811  59.7638607  94.2076492   5.8373980  61.1899567  94.2096233
  23.0273204  45.6620359  48.2629061  23.8710551  45.7898378  48.6965036
  22.5814681  45.0036526  48.7958002  18.7013583  90.1527023  51.7009974
  18.4846835  89.7325706  50.8686638  19.0275435  91.0182381  51.4546347
  71.7106724  54.1639805  57.3058319  71.1012316  53.4362173  57.4290180
  72.2779846  53.8824415  56.5881109  66.3668268   7.4027259  38.5272762
  65.5513495   6.9020850  38.5512611  67.0498865   6.7424447  38.4102890
 104.3609905 105.6373119  55.7961798 104.0462875 105.8966827  56.6621590
 105.2330589 106.0266304  55.7317495  65.0846815  84.3622684  64.9137783
  65.2322960  85.0902939  64.3101120  65.9534979  84.1580772  65.2597570
  16.9543605  88.1514454  53.3585405  16.3415580  88.0006981  52.6388264
  17.7897506  88.3326626  52.9278326 104.0017128  64.8304367  66.2775469
 104.0999413  65.7378864  66.5658522 103.3387852  64.8685884  65.5881214
 100.6922358  41.1947591  15.9839031 101.3428133  41.1449773  15.2835438
  99.9883097  40.6121690  15.6987736 107.7088070  86.0715294  80.2815723
 107.2499847  86.0448647  81.1212158 107.4998760  86.9335556  79.9217319
 104.8948097  92.3878574  87.0541859 104.7507668  91.8207359  86.2966537
 104.4767094  91.9268513  87.7814484  97.6896191  89.3589783  74.9827528
  97.0768452  90.0276661  74.6768379  97.1499062  88.5782051  75.1066160
   6.6474013  70.4810953  50.0625372   6.6816096  69.5432281  49.8742104
   7.1886878  70.8818674  49.3823719 117.9034901  89.3906212  85.0326824
 117.9523182  90.2266502  84.5691013 117.7412415  88.7446594  84.3451977
  12.0956950  52.6941347  83.5892868  11.6950469  53.0413914  84.3862343
  12.9228167  52.3127270  83.8836288 114.8947906  65.7868195  32.8311324
 114.7636604  66.4428282  32.1465230 114.0841198  65.8060646  33.3397317
  15.7776694  85.0884914  82.2058773  16.2811522  84.6552372  81.5166473
  15.5316596  85.9328461  81.8280220   3.0047946 104.7764397  90.0016499
   3.2460360 104.1239929  90.6591702   3.2408767 104.3732166  89.1662407
  18.4900908  55.7936716  51.4538383  19.0205245  56.0886574  50.7136679
  19.0676265  55.8808088  52.2121906 101.9865894  74.6332598  95.8502197
 101.3177299  74.2097712  96.3882828 101.9157887  75.5627394  96.0676765
  75.3908205 102.9276752  71.1604929  74.7139168 103.3875561  71.6570187
  74.9981594 102.7801609  70.3000879   5.0027137 106.9387341  59.6993828
   4.2544799 106.9541168  60.2961636   5.3556590 107.8277779  59.7348309
  83.0558491  87.5161552  65.9205437  83.3089638  86.6065693  65.7630539
  82.2766399  87.6450157  65.3797340  60.5746304  96.3253452  16.7623970
  60.1923787  97.1163561  16.3823769  59.8732983  95.6754066  16.7182896
 110.9360027  81.7508888  77.2667551 111.4548111  82.1470833  77.9668283
 111.1625290  80.8213806  77.2974443  93.5392761  83.8794041  66.4374876
  93.0415630  84.0195942  67.2430038  92.8881741  83.9457989  65.7390022
 106.9856930  60.7160282  87.1204376 106.9722462  61.3416910  87.8447247
 107.8753281  60.7724237  86.7717075   0.5824332  85.5243301  84.0782738
   0.2590327  84.7121525  84.4681644   1.2002520  85.8699036  84.7225666
 106.4735222  58.6965656  58.3618259 105.8277225  59.1410875  58.9109898
 107.2259998  59.2880678  58.3504486  20.8649306  93.4254265  67.4502420
  20.7284789  93.3172607  68.3914709  20.0604396  93.8392830  67.1375942
  46.4348368  97.1554184  38.8075972  45.9993319  97.9888916  38.9861655
  47.0626597  97.3570442  38.1137538  28.2622771 101.9094563  76.1497641
  29.2007403 102.0214272  75.9981155  27.9392104 102.7949905  76.3161516
 107.7654284   1.7217786   1.4297745 108.6926287   1.4897067   1.3779995
 107.7617472   2.6746470   1.5206787  21.4604508   5.1072364  43.9153433
  20.8436142   4.3797450  43.8346767  21.1278569   5.6229167  44.6499777
  16.6560130  99.8062611  65.4000235  16.4086108  99.0557003  65.9401131
  15.8311038 100.1124382  65.0231695   8.6694102  68.5007381  94.7595119
   8.4384875  68.8151836  93.8854218   7.8278785  68.3566141  95.1922798
  17.3502688  85.3654385  77.3692656  16.5010409  85.7955742  77.2692013
  17.1453624  84.4304943  77.3804808   6.0421042 100.0713825  51.3554096
   6.1489348 100.1511097  52.3032808   6.9358687 100.0718307  51.0127640
  68.7025868  21.3257270  63.3193684  68.8383709  22.0554404  63.9237833
  67.7678238  21.3544898  63.1153393  -0.2551521   6.5284591  78.1015158
   0.6737458   6.6205840  78.3134079  -0.2697958   6.3504462  77.1611309
  59.2896401   4.2766147  47.8678608  58.8605153   3.6637740  48.4649420
  58.5904442   4.8671870  47.5875425  17.1027999  71.8805075  39.6616864
  16.3555865  71.2932682  39.7759628  17.2913890  72.2024727  40.5431604
  21.4041173   1.2454181  74.8958158  20.8573567   0.4920058  75.1186514
  21.6447674   1.1042552  73.9801788  77.9934901  33.8169820   5.4243347
  77.9854315  33.0050141   4.9175045  77.1379774  34.2123277   5.2569267
  80.7126158  55.8522565  10.3274700  81.3075369  56.5951402  10.2253506
  80.3332537  55.9672124  11.1987278  59.3336504  27.5777966   3.7027523
  59.7786921  26.9268662   3.1601116  60.0402182  28.1174237   4.0574142
  28.8696515  35.3303866  44.5875692  29.1621529  34.4808345  44.9176073
  28.2036625  35.6142192  45.2137804 110.1742744 107.6614571  61.9071245
 109.9685478 108.5898685  61.7977715 109.4333553 107.3083496  62.3996544
  26.8881642   5.8560233  63.5843992  25.9959733   5.7029204  63.8955212
  27.1510827   5.0235610  63.1918335 101.4404297  72.1903133  92.7623749
 101.1826038  73.0908871  92.9591370 101.6313171  71.8036699  93.6169529
  83.4017944 102.3616600  78.6231327  84.2234612 102.8444195  78.7128353
  83.5620403 101.5308666  79.0707302  56.4772545   1.0722022  68.8906002
  56.1404072   1.9218116  68.6061001  57.1391236   0.8459621  68.2371712
  38.1334990  54.6668870   8.2588551  38.6787337  53.8983495   8.0906174
  37.9474848  55.0233800   7.3902103  65.2909964  48.8982446   9.0170261
  64.5459097  48.5704953   9.5206711  64.9790209  49.7180039   8.6337635
  84.4423294  88.9922333  67.5639009  84.2617035  88.2438278  66.9951296
  83.6704731  89.0574932  68.1262302  16.0823779  95.5745411  85.3781509
  15.3160147  95.6315136  85.9488297  16.3607173  94.6608925  85.4414177
  63.7799965   5.3673415  83.0477047  64.3212067   6.1443763  83.1874752
  64.4089543   4.6576743  82.9172802  34.6053189  47.8111321   2.7823612
  34.8283308  48.6655385   3.1517956  33.6620730  47.8566129   2.6259872
 102.9873180 103.4255409  95.8161545 103.6102295 103.7245464  96.4785862
 102.8050423 104.2041302  95.2900314  40.3565346  10.3471999  41.0235834
  40.6850277   9.4581084  40.8900642  39.5836102  10.4038482  40.4617882
  78.4496117  62.8450871  62.2019672  77.8658533  62.1150160  61.9959211
  77.8730822  63.6079788  62.2449160 104.1883659  74.0487099  70.5540228
 105.1259232  74.1987896  70.4328060 104.0998173  73.8219500  71.4797544
   7.7582412  75.2409601  62.6898575   7.6230578  74.6367979  63.4198904
   7.5067000  76.0966349  63.0373764   9.5755534 105.2658749  68.4320831
  10.2656131 105.0122356  67.8191233   9.5477824 106.2212181  68.3795214
  40.7335906 101.1900616  43.6811066  40.8724551 100.3675365  43.2116461
  41.1969714 101.8450069  43.1590271  40.2114617   0.7144790  85.0398445
  40.2472054  -0.2335973  85.1667118  39.8238026   1.0498576  85.8482170
  31.4206652  97.9622459  63.0938864  31.3783793  97.0190907  63.2516623
  31.7836051  98.3242798  63.9022446  77.3405170  99.6613407  77.8108215
  76.4881182  99.8741913  78.1907558  77.3164558  98.7127781  77.6848221
   1.9127040 110.7273388  65.1422262   2.1727233 110.0018883  64.5744753
   2.4042277 111.4788818  64.8108482  21.1863475  70.2651691  77.5737906
  20.3084521  69.9939775  77.8420877  21.4344268  70.9364080  78.2095003
  11.6750293  78.5738754  75.7847452  11.0966353  79.2992496  76.0203886
  12.5240283  78.8142538  76.1557579   8.4600310  92.9937267  66.0427809
   8.6807589  93.9250660  66.0530663   8.9589362  92.6212978  66.7698479
  43.7360798   9.1168265  59.7258997  43.5516297   8.8345103  60.6217337
  43.4654652  10.0346999  59.7035217  23.5316233 100.1546764  56.6605997
  23.7600188  99.2556286  56.8967772  24.3213801 100.5012226  56.2453508
   2.2583251  74.2966509  66.6231394   2.9696517  74.2014933  67.2565365
   2.1327166  73.4159184  66.2699270  98.0137157 104.2995358  84.5567322
  98.2297707 105.1170444  84.1081333  98.2038212 104.4746113  85.4783916
  25.0689845  88.2200813  42.8003883  25.8857112  87.9867077  43.2416582
  24.9838691  87.5757790  42.0976305  14.4912009  91.9660854  90.8729649
  14.6875911  91.3842964  90.1386642  15.0492530  91.6510773  91.5840149
  75.6292486  76.6524601  91.2291336  76.5734959  76.6451550  91.0723877
  75.2419138  76.7105627  90.3557301 117.9946041  82.8958416  96.2888432
 117.5215626  82.0657158  96.2308598 117.4906254  83.4154606  96.9151211
  36.4769988 107.5961590  66.0408497  36.8509440 108.2632828  66.6164684
  37.0689826 107.5692749  65.2891445  18.6726813  94.5415688  35.9362650
  18.6910014  94.1437626  36.8066978  18.2301860  93.8947964  35.3866124
  28.1850689  63.4276063   5.3857300  28.5940617  64.1152818   4.8603127
  27.6914185  62.9049641   4.7537586  78.3358860  80.7082176  79.4803619
  78.1806898  79.7637796  79.4666529  79.0013647  80.8513737  78.8073969
  81.8979645 102.9354477  71.9432354  81.2597179 102.2223759  71.9230652
  81.9230938 103.2085228  72.8603125   6.6852908 103.1973743  57.5577831
   6.1496596 103.9592743  57.3367739   6.9640784 102.8470421  56.7117500
  99.5177286  -0.0489419   2.6785061 100.0193995   0.7652242   2.7195808
  99.4203394  -0.2232879   1.7423698 117.3723125  57.2451353  80.2915955
 117.6729488  56.5587521  79.6960068 117.9069614  58.0070639  80.0683212
  91.8858337 111.3964653  84.0121174  91.9804859 111.2488365  84.9531174
  90.9923077 111.7241287  83.9097691  90.3253954  37.0605523   0.8488915
  91.1134833  37.0923764   0.3065464  90.5938643  36.5827901   1.6336891
  85.6002903  95.4228878  69.7888660  85.5540085  94.4736099  69.9027109
  85.9362221  95.5414677  68.9004278 107.6200771  82.8222656  74.3403053
 108.0465698  83.3363628  75.0258970 107.5380707  83.4273720  73.6031818
 106.3006210  84.2825127  49.3034124 106.7063522  83.4169579  49.3527412
 106.4172745  84.6519566  50.1787043 106.6002274  84.7116470  71.7282915
 106.9022083  83.9106655  71.2999630 107.1532631  85.4019928  71.3624907
   6.1677127  80.1072884  69.8503113   6.7326598  80.0555611  69.0793467
   5.2845816  80.2040958  69.4940472  39.3789058  87.8343010  64.2444658
  39.9372630  88.5840607  64.4502068  39.8402934  87.0827675  64.6166945
  23.3147673  93.4456635  78.0416727  22.8825335  93.7119389  78.8531542
  22.6925330  92.8509903  77.6228428   0.1439624 108.8256359  55.9838820
   0.6699424 108.1764030  56.4508772   0.6579165 109.0339565  55.2037001
   9.2221694  87.9984951  63.0036259   9.3626456  87.2836590  63.6245203
   9.7481208  88.7207890  63.3469772 110.6247902  65.4717827  82.6065159
 109.8485661  65.9858227  82.8289700 110.8437347  65.7422829  81.7148209
   4.7068934  83.4600067  82.3288536   4.2346053  82.7182579  82.7069950
   5.6024794  83.1414509  82.2162533  18.7821423   1.7025046  92.4852943
  18.7379872   2.6287036  92.2477341  18.8855874   1.7039828  93.4368896
  30.2112345  79.4407654  88.9818573  29.9614672  80.3615379  89.0594292
  29.4072966  78.9576054  89.1728115  75.9796559   7.5958209  61.7921019
  76.2527119   8.1787162  62.5005531  76.2721764   8.0356650  60.9938574
   4.5837168 101.1937332  75.1957083   5.4249244 100.7370472  75.2008533
   4.6849208 101.8894958  75.8452511   8.9897876  93.1562042  34.4700146
   9.7875075  93.1152058  34.9974561   8.3932261  92.5361729  34.8894215
 103.9546394  77.7842093  77.9850674 104.7733402  77.4468517  78.3485889
 103.3221626  77.6974106  78.6982822  91.7545223 108.4567451  96.2582684
  92.6701164 108.4416771  95.9795284  91.6882133 109.2280483  96.8212318
  45.7271576 105.4380417  85.4485893  45.1139259 104.9185944  85.9685421
  46.5706539 105.3211784  85.8857346  93.8117426  55.6058747   0.3474781
  93.5216826  55.6672627  -0.5626419  93.4416598  56.3811547   0.7696220
 104.7479343 104.6464443  80.2061558 103.9232063 104.9708366  79.8444462
 104.6904755 104.8375034  81.1423302  37.5502717   2.3573737  79.3306732
  38.3302247   1.8047195  79.2810202  37.8872429   3.2520442  79.2832470
  35.5601822  21.4242320  61.0053015  34.9958073  21.4080863  60.2323484
  35.0322758  21.0231547  61.6957283 116.9934750  78.4571218  74.9156380
 117.8963280  78.6949205  74.7045946 116.5623379  79.2919970  75.0982285
  93.6714458  97.3785210  57.0291090  94.3202972  97.2990608  56.3298798
  92.9328537  96.8470764  56.7320013 100.1717854 103.2192421  79.8068619
 100.9344578 103.4467602  80.3386402  99.8075771 102.4420452  80.2305889
  29.9135911   7.2583823  77.3898125  28.9853417   7.0417647  77.4773026
  30.0988518   7.1462493  76.4574289   5.9214930  79.6802950  76.2908649
   5.0012450  79.7090816  76.5526772   6.2078624  78.7958860  76.5189838
  13.1048237   3.3324199  73.5523987  13.3324276   2.4599700  73.8737202
  12.3896348   3.6179977  74.1208982  11.7226271  98.2040691  81.9932079
  11.9652228  99.1278839  82.0560169  11.1518149  98.0545521  82.7468967
  48.5144919  51.2005097  34.8699925  48.9950388  51.8399770  35.3957150
  49.0444105  51.0931546  34.0801212  98.3738518  82.1474552  41.7173433
  97.5972939  82.0395756  42.2664833  98.0266476  82.3504448  40.8487368
   6.6432814  98.0057049  92.7425957   6.2891249  97.2514534  92.2715092
   6.4857631  98.7480164  92.1591663  66.6619908   0.3495650  55.7715559
  65.7593571   0.6647544  55.7253456  66.7498051  -0.2365441  55.0198889
 113.5835361  80.3516579  92.9494572 113.3262920  79.5621252  93.4255791
 114.4706631  80.5382919  93.2567310 105.3559225  70.8158070  10.8356449
 105.7697409  71.1353165  10.0338432 104.7650259  71.5217072  11.0979054
  81.1436671  33.0835301   8.6204979  81.3333815  33.8985497   9.0852329
  81.7075270  32.4326665   9.0384361  36.8413292   1.4405589  83.3132172
  36.1438214   1.8881087  82.8342533  36.3948857   1.0174232  84.0466309
   0.9702830  94.3317890  61.3894558   1.6167502  93.7760162  61.8247032
   0.4210048  93.7207794  60.8983421  17.5441603  84.5987415  47.7751875
  17.3785929  84.7989464  46.8539143  17.2567992  83.6915588  47.8785419
 101.2893200  67.8120995  27.1261072 101.8552208  68.2965803  27.7271581
 101.5852165  68.0746317  26.2544680  34.8029345  97.3915441  69.9740410
  35.7420462  97.2412414  69.8658514  34.6365135  97.2110875  70.8992290
  64.9119043   4.6457919  64.2999458  64.7846317   3.6995131  64.2321968
  65.8394575   4.7773743  64.1035700 115.4897583 107.6721431  42.1328497
 115.0913728 107.1073623  42.7950764 115.2279938 107.2838489  41.2980223
 109.7213680  41.0328163  13.3816597 110.0524837  41.0821201  12.4849102
 109.8156244  41.9228496  13.7210533  53.2420397  31.4990592  54.5817995
  52.6472092  30.8767438  55.0002861  53.3242655  32.2135925  55.2133942
  46.1403513   1.4936988  46.2639284  47.0202494   1.1212507  46.3212824
  45.5731869   0.8296940  46.6559172   7.4450367 102.5624372  76.2909555
   8.1572264 103.1573309  76.0561800   6.6749924 103.1266470  76.3611841
  69.6330929  25.4722905  56.6798401  69.6372890  25.3424430  57.6281834
  69.7446918  26.4162230  56.5668392   2.9959696  92.0988650  59.8563051
   3.5431641  92.0812495  59.0711308   2.5044888  92.9173608  59.7874117
  48.7223357 103.2759054  45.9260273  48.0880469 102.9001267  46.5365171
  48.7473505 104.2063851  46.1492157  35.2590340  82.4320478  63.0942392
  35.3223246  83.2346840  63.6119223  34.5361489  81.9468422  63.4920359
  23.4698933 103.8430710  30.2104306  22.8317374 103.3757437  30.7494974
  24.3122357 103.4532357  30.4443598  91.1388237  41.2860073  12.3969051
  91.0572702  41.0181977  11.4815495  92.0491773  41.5688218  12.4835083
   4.1720169  99.2070205  53.7514639   4.0261238  98.5545392  53.0664730
   5.1011675  99.1250105  53.9663792  41.1838930 107.4851925  94.3387032
  41.7831534 107.8441764  94.9931145  41.5108889 107.8216351  93.5043716
  47.6086998  25.7894564  38.2709408  48.3923149  26.0082722  38.7752247
  47.9439020  25.3825831  37.4719882  95.2590370   1.2783277  77.2024918
  94.8800087   0.4214460  77.3982525  95.1006794   1.7962380  77.9917479
  30.7546252  89.0858836  57.3682499  29.9077290  89.0787668  57.8142834
  30.5514448  89.3562527  56.4727879  42.9258299  17.4522138  40.9635210
  43.2549620  18.3355689  40.7974195  42.0287228  17.5845587  41.2699842
  47.8174799  98.8928003  66.5399265  48.4274405  99.6206016  66.4195633
  48.3479803  98.1975443  66.9290543  32.9097336  86.8414040  36.6010714
  32.0285147  86.6623111  36.9291234  33.4672230  86.8018670  37.3781657
  22.8225153 110.8173783  78.2579041  22.0957058 111.2157558  78.7367344
  22.5739878 110.8955431  77.3368406  94.7118282  10.5275190  69.0506554
  94.8454952  10.5779016  69.9971342  95.4985428  10.9238887  68.6762238
  65.3480101  24.9967980  56.7091560  65.4496813  25.8513546  56.2900734
  64.4148302  24.7997546  56.6280174  67.0873213  49.0286493  10.9900010
  66.6178799  49.0685987  10.1567781  67.4973392  48.1637096  10.9926760
  89.6465492   4.0032282  36.4557457  88.8306427   4.2429075  36.0163355
  90.2747536   3.8804173  35.7440495  71.5434170  12.9478157  28.4684658
  70.7236147  12.4570525  28.4110093  72.1860075  12.3933601  28.0258679
  23.1646794 107.8913529  45.5040598  22.5771635 107.4541981  44.8876572
  23.5905808 107.1764399  45.9770679  45.6200123  45.4241371  51.6147566
  44.7510767  45.8108091  51.5067530  46.0358191  45.9553146  52.2938585
  74.0515423  10.4681087  59.0640736  73.8153791  10.5804157  59.9848604
  73.5447264   9.7082359  58.7777805  31.2666004 104.9105574  92.6795387
  30.5450505 105.5182726  92.5174332  31.8253821 105.3649403  93.3100414
  67.4767017  20.4606509  47.4045658  66.7385101  20.3172588  46.8123293
  67.0862675  20.4598641  48.2785225  76.7758608  17.3464203  36.4416265
  77.0806265  18.2455862  36.5634894  77.5611210  16.8590653  36.1924529
  71.4550638   9.4336617  84.0178299  70.6888676   9.0714431  84.4627666
  71.8501425   8.6840284  83.5726357  21.7102354  91.6191370  31.6784358
  22.0120972  91.1796422  32.4733901  21.1057823  92.2920473  31.9915867
  85.0781441   6.4189905  87.4354553  85.2383614   5.8363461  86.6931057
  85.8034801   6.2469202  88.0358791  55.2575159  23.3019829  81.4544678
  55.9444857  23.5510111  80.8361721  55.2884150  23.9776850  82.1317482
  21.3429761   4.8968473  13.2730544  20.9120250   4.2689669  12.6931572
  21.5148497   4.4033402  14.0750158  57.8148460   0.6655324  80.8261299
  57.1106863   1.0616778  81.3394070  58.2683659   0.0922445  81.4441013
  25.4200530  10.3993428  70.1227140  24.6710515  10.9075594  70.4340696
  25.4217696  10.5315661  69.1746902  54.1474819  18.2982194  46.7799711
  54.3389273  17.6502120  47.4579620  54.9287415  18.8504004  46.7489815
  23.2399863  91.2997169  94.7775364  23.7013310  91.4499254  93.9524078
  22.7789849  92.1212585  94.9471855  31.5685051 101.0954745  66.3606024
  31.6166704 100.1513750  66.2103081  32.2148865 101.4668662  65.7601929
  70.3068692  67.7775540   9.9165031  70.6081611  68.2333638  10.7024357
  71.1012823  67.6383783   9.4009754  29.7749728 110.4279764  58.9570427
  29.2970103 109.9167010  59.6100235  30.6670588 110.0823776  58.9883232
  14.3634384 110.4492093  32.3768854  13.9175576 110.6232550  31.5479541
  15.2360791 110.1502062  32.1212888  50.6516188 105.0818087  55.4266453
  50.1612013 104.2624963  55.3599215  50.0031393 105.7639785  55.2524519
  63.6587524  25.5130911  38.1893802  62.8544903  25.9897780  37.9840398
  64.0044928  25.9506011  38.9673781  15.9053200  90.6979628  65.3251505
  15.4194802  89.8757691  65.2604008  16.4594048  90.5885286  66.0979652
  55.0355959  14.9523020  69.5129204  55.9872150  14.8930109  69.4284725
  54.8970222  15.4307926  70.3302813  72.7366590   5.4757297  56.0737324
  72.6630163   6.4074403  55.8670330  72.2177458   5.0388288  55.3983974
  75.2440023   7.6174670  15.8316314  74.3213987   7.5231260  16.0685611
  75.3365660   8.5394353  15.5915499  11.5919560 108.5397811  52.7058077
  11.6656273 107.9757805  53.4756851  12.4414843 108.4641103  52.2712898
  90.9355141  98.0528183  63.3357906  90.0015176  97.8645880  63.4277248
  90.9813667  99.0058441  63.2591581  73.5509062  19.9750733  40.8332920
  74.4560862  20.0689507  41.1300468  73.6028814  20.0450039  39.8800683
  61.0165804  95.2855427  54.9187088  61.6255492  95.2305574  55.6551695
  60.3435534  94.6339066  55.1152706  29.3459392  34.7685575  82.6488495
  29.6467853  34.1791296  81.9572544  29.9548340  35.5064082  82.6163578
  34.3139141  95.5492396  72.0979881  33.5473555  95.9728761  71.7117882
  34.6328276  94.9610801  71.4134502 115.5174268 107.3841314  51.8920803
 116.1665166 107.1013100  52.5362301 114.6739019 107.2074879  52.3086071
  60.3073215  10.1254892  72.8224564  60.0396109   9.2073578  72.7824974
  60.8010149  10.2664006  72.0145893   7.1983784 103.5963620  70.1047182
   6.7714327 102.7862210  70.3833246   7.3086613 103.4960664  69.1591978
  91.0542393  18.6157215  65.2763987  90.3326988  19.1017675  64.8771858
  90.7234001  18.3601451  66.1374760  13.0129259  85.5712790  69.0402317
  12.6498526  85.8317656  69.8867273  12.4944561  86.0558696  68.3978987
  54.7804546  34.2912507  73.3200359  55.3875542  33.9732885  73.9882898
  55.0733852  33.8715744  72.5111532  59.9970388   3.6241552  73.8889837
  59.4434500   3.2548237  73.2009697  59.8935223   3.0241579  74.6275759
  50.9057188  33.0869913  76.1011267  50.3483105  33.2904148  75.3500319
  50.2951956  32.8107667  76.7846394  19.5638960  85.3818841  50.6196117
  18.8273972  85.8972592  50.9485340  20.2439278  86.0287804  50.4316950
  10.6267803  85.1658912  60.7193470  11.4469069  84.7706218  60.4237270
  10.8278101  86.0976548  60.8067226   0.9785097 102.2227425  77.0482445
   1.1041420 101.6231240  77.7837086   0.9896248 103.0938495  77.4448299
  13.5353869 104.0803553  65.8499432  13.1053227 104.7846813  66.3349199
  14.3113678 103.8707752  66.3697100  66.7784119   5.3669679  79.5355558
  66.0764408   4.7180319  79.4870520  66.4570284   6.1064577  79.0197039
  47.0795202  37.1247482  71.7528725  47.3325634  37.6579452  72.5064659
  46.8981791  36.2601066  72.1213055  98.1230403  95.4797537  68.2055044
  97.3397268  94.9750824  68.4245014  98.3380486  95.9498889  69.0110970
  26.4577549  95.1699145  47.5126171  25.7387799  94.6490056  47.8703260
  26.6422098  95.8205898  48.1899881  59.9609232   8.3679062  63.9965200
  59.9056005   8.2120925  63.0537081  59.1958761   8.9077133  64.1953659
  80.9149456   8.3320963  44.2335033  81.5858936   8.6663687  43.6382437
  80.0955009   8.4261268  43.7478161  25.1743150   1.2360475  37.5415611
  24.6067286   0.5362356  37.2185421  25.9132481   0.7789639  37.9431605
  69.2444515   5.8245039  65.9926224  70.0296354   5.4752862  65.5710030
  69.4557190   6.7409438  66.1707687  57.4818659  25.1278329  40.6234455
  56.9575262  25.9262586  40.5616474  57.8488111  25.0138140  39.7467589
  21.7569178  93.7400920  16.2250865  22.6662558  93.7013967  16.5214670
  21.6584700  92.9781563  15.6541288  95.5247766  13.0138733   1.6641018
  94.7343475  12.7258636   1.2074825  96.0494119  13.4423162   0.9877655
  23.1912392 101.9096632  82.0745277  23.7463539 101.3462622  82.6136589
  22.8977650 101.3439829  81.3603115  58.0330181  30.0481963  46.9185400
  58.8045931  30.5067468  47.2511530  58.1805563  29.9844289  45.9749317
  23.5666977  88.7894513   6.8412468  23.2604348  88.3524419   6.0465977
  24.3426358  88.2939436   7.1032021  69.9438381  10.9616876  68.5898924
  69.3192673  11.4649332  68.0675077  69.4801378  10.7788968  69.4070816
  60.9401131  20.1123214  58.2746410  61.7931223  20.2791739  58.6755991
  61.1453009  19.8346257  57.3818874 116.4838685 104.2741091  73.6851168
 116.5185441 103.3187802  73.6363745 117.2144474 104.5114733  74.2562056
  63.2439041  16.2841189  82.1217442  63.7193108  16.0996747  82.9318047
  63.2545805  15.4549301  81.6436577  47.8243780   8.4659302  71.0703087
  48.2436800   8.1398904  71.8666220  46.9302464   8.1270927  71.1144829
  38.2018441 107.1919308  61.6901493  37.6514691 107.0238100  60.9252596
  37.7838772 107.9336740  62.1275902  53.1443214   4.7121337  45.7091427
  53.9268208   5.2577716  45.7879114  53.2564259   4.2512146  44.8777437
  52.2604322  19.5314348  58.5671282  52.8807735  20.1392841  58.9695311
  52.3110628  18.7439394  59.1089010  29.4817894 104.7201551  85.5549049
  29.3131703 104.2305822  86.3599586  28.8033598 105.3952069  85.5385399
  48.8539219  22.7666569  48.3240366  48.6431885  22.1682000  49.0407467
  48.2061243  23.4673738  48.3987856  66.1432934   1.4058825  93.7411404
  66.4033175   1.9779804  93.0191135  66.3635540   1.9009164  94.5302200
  13.5761135 100.6672330  71.5858078  12.7104204 101.0028393  71.8185520
  13.4225815  99.7527618  71.3483143  15.9483736 106.0634256  71.3835239
  16.1532992 105.6587757  72.2264338  16.5582102 105.6566532  70.7679987
  75.9310150  33.7499166  49.2345762  75.1242113  34.2006350  49.4838905
  75.7493210  33.3980465  48.3631372  64.0096664  21.4558554  73.3886719
  64.7021770  21.1927414  73.9948320  64.2587852  21.0594511  72.5537825
   2.0110755  11.9874108  82.1976376   2.9073195  11.9595742  82.5326061
   2.1084742  12.2056258  81.2707424  52.6915407   1.1809717  74.2210579
  51.9620752   0.5719635  74.3360424  53.4580135   0.6184190  74.1102219
  78.9564276  22.5926709  75.6115532  79.2249632  23.4479594  75.9471083
  78.0352736  22.7057743  75.3772116 109.9518472  55.6728423   8.1243393
 109.9891311  56.6143196   7.9556343 109.1805488  55.3736032   7.6428959
  40.6324404  77.4497409  96.4335442  40.1899975  77.6670618  95.6130314
  40.5822914  76.4953632  96.4872265  20.6894844 102.5183571  17.0787418
  20.5219620 103.1850542  17.7448356  21.4542883 102.0427502  17.4029434
  16.9172543  97.3607714  45.5440378  16.0996931  97.7991135  45.3080559
  17.4086445  98.0188925  46.0356092  75.6312180  44.3611240  23.1691170
  75.5817223  45.1926470  22.6975822  75.2456188  44.5478535  24.0250826
  69.2026520  30.4018736  43.4832287  69.9430943  30.3819299  44.0895128
  68.4797287  30.7580590  43.9997005  63.5089588  43.4873867  21.4222360
  64.3030024  43.6705446  20.9200621  63.3467388  44.2914772  21.9155407
  40.2924746 100.9615583  83.1054115  40.8744257 100.5786927  82.4489212
  39.5598954 101.3136811  82.5998783  61.3973570  18.1945181  25.5233026
  62.3483181  18.1401396  25.4287124  61.2202740  19.1291928  25.6293917
  46.1537600   6.1336380  71.1937618  46.6823626   5.9777188  71.9763851
  46.3934183   5.4241395  70.5976009  14.9094880  14.4751203  65.9123421
  15.8186257  14.1884148  65.8257437  14.6889567  14.2991853  66.8270254
  23.4621733 102.8168924  63.6073971  23.0157536 102.6318569  62.7811384
  23.9979237 103.5882999  63.4226513   3.1827706 102.1535660  54.0660238
   3.9304369 102.5508363  53.6194754   3.5116738 101.3116975  54.3811560
  53.0503130  28.0164862  74.3985748  53.3882427  27.8326869  73.5220766
  52.7191973  28.9129615  74.3444920  15.3671568  93.8559039  64.2724562
  15.2732676  94.5130236  63.5828114  15.8874958  93.1599982  63.8709641
  89.1279793  19.2817211  39.5519924  89.2756844  18.7027991  40.2998304
  89.6564293  18.9042091  38.8488150  37.5621908  97.8370447  69.3726778
  38.0704277  98.5623343  69.7358274  37.4379462  98.0688341  68.4523106
  51.1812830   9.4856435  66.1228418  51.4610243   9.4239557  65.2095127
  51.9257307   9.8825401  66.5750647  90.6852150   7.2714335  58.8870382
  89.7709656   7.2924393  58.6042833  91.1047649   7.9762542  58.3936453
   8.1113213  90.2174110  83.8909721   8.6931055  89.5128341  83.6057854
   7.3543518  89.7664018  84.2648888  46.3819140 104.7338642  69.2877197
  46.0651320 104.2255146  68.5410833  47.1635931 105.1787717  68.9602041
  78.4677696  22.8256440  40.4123497  79.1252041  23.4961843  40.5977964
  77.6479483  23.1975794  40.7376003  46.8679857  21.6431212  80.7534122
  46.1247826  21.7458534  81.3478279  46.7717981  20.7586408  80.4003239
  81.5598679   8.2424742  85.1314926  81.6974545   7.6588756  85.8776283
  80.6651592   8.0585170  84.8453331  72.3471022  10.5854225  39.7781062
  72.8109598  10.0260842  39.1550422  71.4286852  10.3299356  39.6916771
  56.4919090  48.4203911  35.5616736  56.0637951  48.0906916  34.7715807
  57.0268822  47.6879692  35.8676052  97.8914165  22.4865317  76.6739559
  98.3644009  23.2719469  76.9489956  97.6354027  22.6656461  75.7691860
  50.9366720 108.4492983  48.9830685  51.6785162 108.2006330  49.5344973
  50.6538027 109.2955890  49.3294907  55.4384821 108.6496864  86.7060089
  55.4335421 107.7035720  86.5608311  54.9766749 109.0105395  85.9492016
  69.2912483   7.6695275  51.2653255  69.1784191   6.7203879  51.2139940
  68.4066629   8.0088568  51.4016771  77.7359438  31.1983013  88.6616802
  77.0287895  31.8338013  88.5507679  78.1492090  31.1469936  87.7998161
  85.9393597  11.0356987  47.1842384  85.6531525  11.8771100  47.5396824
  85.4698658  10.9542179  46.3540745  58.5852951  76.1708730  87.6078853
  58.8099498  75.2553659  87.4417212  59.0631944  76.6601103  86.9381913
  15.0705069 102.8978861  30.8463073  14.9176472 103.4256745  30.0625300
  15.0060290 101.9926931  30.5418396  58.3086300  15.4046714  85.7314110
  57.6158476  15.4986596  85.0776100  58.0895901  14.5982444  86.1982346
  82.1869183   6.4635962  49.6741581  82.7762794   6.7653549  48.9829111
  82.0277405   5.5425090  49.4680166  75.7958412   9.9873620  73.5116863
  75.5975676  10.0238097  72.5759554  75.7660437  10.9000766  73.7985611
  95.3993034   8.1158781  86.8684959  96.0994816   8.6542559  87.2374439
  95.8357430   7.5715047  86.2131977  99.2285473  62.5051452   1.7661926
  99.4543773  62.0156278   0.9752438  98.3626396  62.8697492   1.5831730
  11.0519080  20.5087757  49.3500185  10.2626757  21.0503888  49.3472242
  11.7710452  21.1338687  49.4413280  92.3287296  32.6286197  27.0079732
  91.5435600  32.1052814  26.8472028  92.0125961  33.5315895  27.0385981
  77.8953457  13.6165392  61.8485546  77.6090717  12.7463388  61.5710068
  77.2001839  14.2035294  61.5511990  65.1855373  17.8786683  92.7991676
  65.3874016  17.3672676  93.5827255  66.0300350  18.2321668  92.5197315
  59.3679285   1.7033680  63.9426994  59.2477608   2.5440720  64.3842983
  60.2536726   1.7465356  63.5823870 101.5541172   3.7931770  51.6219473
 101.9683743   4.1267896  52.4177694 102.0950508   4.1338113  50.9094954
  72.1495581  17.7206063  67.1627998  71.3022280  17.3099959  66.9905663
  71.9638777  18.6596048  67.1687794  57.4904650 107.6262964  72.3695898
  56.9618815 106.8301268  72.4239159  57.1613234 108.1810234  73.0768204
  68.6074924  31.9104028  35.1902032  68.1093216  31.9704652  34.3750668
  68.3389330  32.6798344  35.6922817  57.0628071  14.7365570  33.4480882
  56.7925978  15.6547654  33.4587860  58.0038500  14.7658134  33.2754159
 106.5448093   9.3556827  63.9104605 106.6573620   8.8042516  63.1361914
 105.7978535   9.9157035  63.6991262 101.1560822  34.0532565  63.9785480
 101.0697079  34.7650027  64.6127319 102.0758343  33.7938714  64.0334177
 109.7736359  30.0503206  90.2980614 109.7102451  30.3822851  91.1936188
 110.1520824  29.1762328  90.3928566  94.1368580  29.4015551  61.3341188
  93.3011436  29.7397351  61.6557455  94.7951031  29.9697495  61.7342424
  28.3382386  99.0061660  20.4743195  27.7907151  99.1926939  19.7116542
  29.2118758  99.3037851  20.2205276  12.4084442 104.8104544  34.4902539
  12.7442473 105.7040663  34.4200683  13.0782812 104.3412526  34.9876428
  24.0685879  54.0646838   5.9620926  23.6793839  53.3974220   6.5273449
  24.0823304  53.6639544   5.0929234  67.4842262  23.3811450  57.3665667
  66.8156624  23.6758637  56.7481899  68.1430149  24.0754962  57.3559856
 101.7983723  32.5186992  84.6384144 101.7310333  33.2714581  84.0510082
 101.6835594  32.8873467  85.5142879  52.7324200  23.3272362  61.9009829
  51.8591118  23.1035399  62.2227383  52.6972437  24.2717385  61.7496300
  80.6186485  13.7491596  58.8539648  79.7450352  13.5518813  58.5161543
  81.0823631  14.1325474  58.1095123  88.3707905  12.3657048  54.0671349
  89.0230560  12.9096937  54.5085621  88.5579872  11.4762604  54.3672705
  75.6131840  30.0371814  16.6908193  75.6531096  30.1523495  17.6402259
  75.3046274  29.1389966  16.5712726  74.3102503  29.0915465  30.3504992
  73.8061190  28.2792258  30.3034115  74.2733908  29.4480991  29.4629502
  59.9962538 105.6256158  52.1785069  60.4297465 105.1668049  52.8981018
  60.6860560 106.1601241  51.7851734  89.9913502   7.8718239  65.4183626
  90.9412861   7.9776353  65.3667688  89.8647976   7.1293402  66.0090685
  76.0950899  11.5303230  48.6199951  76.5637684  11.0371673  49.2933178
  75.2931786  11.0294056  48.4708071  85.1934147   8.4821904  59.5611286
  84.9544144   9.0020382  58.7937498  86.1237717   8.6642838  59.6934843
  78.7041378  29.3420386  43.4293318  78.0250645  30.0038362  43.2985163
  79.4010782  29.5907354  42.8221607  93.4430981   4.5239666  81.1789227
  93.6983204   5.3997868  80.8890438  93.5788822   4.5362133  82.1263695
  48.7646580  39.5357442  48.7939739  47.9552841  39.8808861  49.1708326
  49.1173172  40.2611971  48.2786274  29.5843363   3.5732430  28.4644437
  29.1456532   3.9948085  29.2034101  29.8747349   4.2992902  27.9123950
 105.8983738  50.4038192   2.8854534 105.2002603  50.7722248   3.4268829
 105.4407770  49.8753710   2.2315571  87.5228405   1.1244012  54.1305590
  86.9104195   1.6656020  54.6288300  86.9830132   0.7091545  53.4579659
  84.3270588  29.0060401  82.6804066  84.3123722  28.5373235  81.8459415
  83.5020733  29.4911695  82.6971722  71.6389561  35.8384919  48.5670662
  71.0354233  35.2499723  49.0205288  71.5545845  35.6027198  47.6432037
  46.9831848  12.8277814  79.9357271  47.8534412  13.2062364  80.0608730
  46.4845991  13.5147750  79.4933701  47.5534487  23.4124160  82.6874447
  47.5796413  23.1059146  81.7810249  48.1304502  22.8123808  83.1599426
  25.3327006  96.0455091  43.7981367  24.6053475  96.4564009  44.2654228
  25.2338379  96.3416047  42.8932667  51.8172026  27.5990796  77.6617241
  51.8179893  28.5551858  77.7074623  52.4846458  27.3285818  78.2922649
  62.0622683  11.3215828  56.6869926  63.0179214  11.3189459  56.6326809
  61.8581676  12.0431828  57.2818613   4.5223748  56.9036004   6.5548679
   3.5897385  56.7641902   6.7191288   4.5706784  57.1309056   5.6263039
  41.0672968 104.7256542  41.5059805  41.7598265 105.1752509  41.0217333
  41.1728972 103.8030506  41.2738514  67.3806047   5.1314366  62.8897572
  67.6998043   6.0337096  62.8741169  68.1041241   4.6152186  62.5344133
  45.2591246  85.9672851  73.0131388  44.7890490  85.4781408  72.3378658
  46.0039442  85.4097075  73.2380438  17.0041531 110.6718175  48.2899284
  16.2585991 110.3130938  48.7712812  16.8442934 110.4219664  47.3798466
  65.8796167   2.4223129  85.1946831  65.7157326   2.5666451  84.2627239
  65.7227135   3.2749942  85.6003284 103.4974766  40.6500626  34.4571233
 103.6514664  41.1234522  35.2746940 103.4913158  39.7274590  34.7120738
  38.1458920  90.9795065  46.2537956  37.6805704  91.7272169  45.8787823
  37.5630968  90.6543679  46.9399977  28.5637444  81.4771933  66.8461752
  29.3304890  80.9923835  67.1516180  28.3382576  82.0535297  67.5763988
  32.2582358 108.3720786  46.5457153  33.0318087 107.9388488  46.9064426
  31.7853611 108.6954261  47.3125696  21.4426440  95.8651097  42.8196716
  21.3196152  96.2550051  41.9541788  20.7532089  95.2043087  42.8848791
  79.7635460   9.2298198   5.8746356  80.1932049   8.4998643   6.3204890
  79.1593170   8.8130033   5.2603006 100.0929165  13.0462158  58.8286352
 100.5757332  13.8538253  58.6528683  99.8427582  12.7234769  57.9628992
  39.8360682  15.9725320  51.3213921  40.0722599  16.8855631  51.4851570
  39.7690296  15.9096730  50.3686094  66.2936211  12.7738273  74.2242098
  66.6858435  13.5060263  73.7485218  66.1804914  13.1010699  75.1165915
  26.7149466 103.2642497  47.5235748  27.6220911 103.0021937  47.3665667
  26.5786284 104.0141518  46.9445276  43.3245897  24.5870137  56.4205265
  42.3755789  24.6948242  56.4837170  43.6830187  25.3610849  56.8547726
  89.5561886   5.6590837  41.5302134  90.3280640   5.8538473  42.0617247
  89.4205379   4.7180086  41.6407108  75.0750494   5.5986679  41.6816378
  75.2185297   6.5168482  41.9109631  75.8546209   5.3513706  41.1843014
  38.6127281   0.5486925  41.0284472  37.8970456   1.1165724  40.7428885
  38.5994244  -0.1824014  40.4107475  52.6449030 104.1516782  46.0054684
  52.5948351 104.3004973  46.9497013  53.5688895 104.2806597  45.7913399
  27.5940388 104.8806382  28.3074021  27.9006403 105.1621760  27.4454498
  28.3595341 104.4730676  28.7125468  64.4637823   3.6166766  52.0744896
  64.1184807   3.9089593  52.9180336  64.1161871   2.7312958  51.9672012
  93.0520058  18.2658815  53.7226009  93.5435867  18.9661908  54.1517258
  92.7407837  17.7162576  54.4418240  90.6195385  31.2704732  16.7214748
  91.0642320  31.7373158  16.0139916  89.8123247  31.7646934  16.8642685
  45.1113241 103.7892122  40.8833027  45.6787318 103.7622846  41.6537285
  44.7087878 102.9213382  40.8518553  67.8453779  12.0727777  76.8048239
  67.4872923  11.8025351  75.9592628  68.5018015  12.7343583  76.5865278
  84.9042606  27.0762515  60.0859642  85.1223278  27.9411435  59.7386265
  84.1492558  27.2296548  60.6539965  68.5040712   1.1120610  57.5072479
  67.7682829   0.9334651  56.9216251  68.6626577   0.2800754  57.9532099
  76.5017843   8.2812172  88.2369804  77.2504902   8.0538714  88.7883282
  75.7690859   7.7956045  88.6158848  42.8630447  19.9639487  40.7224369
  42.2133398  20.6629324  40.7968426  43.6768341  20.4160738  40.4998159
  40.2666443  95.7712276  51.2467957  40.2071255  95.3649218  50.3821516
  39.3710297  96.0447009  51.4450836  38.3911633   9.2848873  91.6749668
  38.8515806   8.5453147  91.2783813  38.2320571   9.0113968  92.5783634
  33.4379547 104.6243281  58.1007004  33.0150812 104.1983361  58.8463116
  33.6618489 105.4985959  58.4196997  51.3528651 100.7768507  69.7920895
  50.6498163 100.4358764  70.3449821  50.9509867 100.8789523  68.9293671
  70.1523113   5.2310789  43.0684996  70.4680347   5.8754820  42.4350262
  69.3222237   5.5901504  43.3819580  59.7608232  23.1925011  50.5366325
  59.5482683  23.8637829  49.8882198  59.4007063  22.3842692  50.1715136
  63.7193298  10.6700742  90.3446388  64.1368246  10.1449299  91.0273933
  62.8174400  10.3508019  90.3147793  77.4289036   8.1696206  26.9116449
  76.7814732   7.6142079  27.3459077  78.2730103   7.7934229  27.1610212
  48.5467196  13.1101990  26.8218637  48.3981657  13.6057210  27.6272345
  47.9620743  13.5143459  26.1807013  46.8535757  49.7981691  56.5232563
  46.5336370  49.9828196  57.4063063  47.1481085  50.6468916  56.1928701
  36.6671770 102.7271147  83.1959057  37.3245304 102.3465462  82.6134205
  36.4792603 103.5855992  82.8165340  58.8588858  12.9266047  56.3035536
  59.3099499  12.6888883  57.1136570  58.5850382  12.0900297  55.9275436
  52.5050276 102.2687746  66.8255806  52.0619410 103.1147565  66.7606354
  51.8605059 101.6358901  66.5089130  43.1474417 106.8440194  58.6326218
  43.9776247 106.8962152  58.1590223  42.7621191 107.7150325  58.5372543
  91.7021275  34.9410629  36.9411421  91.7352390  33.9995670  37.1106100
  91.2199306  35.0194478  36.1179924  81.3290691  29.2082572  41.9179106
  82.0687199  29.0929461  41.3213778  81.6749477  29.7514963  42.6260757
  81.8852234  18.4614325  62.9968739  82.4499893  19.2325473  62.9453850
  82.4907589  17.7276850  63.1025839  37.4753308  44.4937420  71.4064598
  36.5431666  44.2775059  71.3831949  37.5020981  45.4083681  71.6874790
  49.2321127 105.8562435  40.8150578  48.9256686 106.0684473  41.6966963
  49.0242594 104.9282546  40.7061291 109.6318054  18.2389140  63.2433176
 110.0977039  17.6176596  63.8029623 109.6837521  17.8574455  62.3669529
  55.5259054 104.3708480  48.9658928  56.3989275 104.7078968  49.1670561
  55.2618807 104.8450823  48.1774616  22.1146679  14.4304597  23.8757086
  22.4448013  15.3100109  24.0591025  22.2431397  14.3179631  22.9338646
  91.1030197  22.8374982  14.2352414  91.0712910  21.9225669  14.5147562
  90.6070137  23.3096051  14.9040651  75.8088112  18.4704483  85.3645992
  76.6263247  18.4673810  84.8667145  76.0822153  18.3555436  86.2747002
  61.0706139  41.4707756  28.4204388  60.2718019  41.8610382  28.0657101
  61.4908600  41.0578156  27.6660609  98.7849617  20.4669142  26.4850402
  97.9016972  20.3477955  26.1359072  98.8106346  21.3820457  26.7645121
 101.4728165   5.8881515  78.3646488 101.2271690   5.7673132  79.2818689
 101.4982986   5.0015670  78.0047178  64.3662596  38.9869857  65.2414799
  64.6396589  39.1326571  64.3357944  63.4194708  39.1274285  65.2313948
 100.4198933   2.9250327  55.0440741 100.3163433   3.0377755  55.9889555
 101.2334442   3.3843747  54.8357964  96.6154194  13.9604473  46.6200066
  96.2638569  14.8506951  46.6104412  97.3509407  13.9868116  46.0080051
  36.0234373  94.6238894  67.3342323  35.4900664  95.3863079  67.1095943
  36.2610977  94.2406745  66.4899015  55.7326317  22.6468110  48.0270290
  56.1443281  23.0306745  48.8012266  55.9440660  23.2536340  47.3175955
  31.7187041 101.5674300  57.4305916  32.3952168 101.5809722  58.1076288
  31.9856661 100.8636398  56.8392849   9.5816188  32.3598719  31.0358953
   8.6679797  32.5740242  31.2246323   9.8681025  31.8460631  31.7909884
  44.0649986  19.8947668  47.5144768  43.2724380  19.7005463  48.0148315
  44.7510338  19.9809384  48.1764126 104.0055752  37.6994395  73.9267492
 104.8450756  37.4744344  73.5257053 103.5686016  38.2484484  73.2756853
  62.3354578  24.3922710  65.0800419  62.1108532  23.5333562  65.4378843
  63.1318092  24.6454477  65.5468988  37.5127047 106.2225969  68.4810257
  38.4635084 106.3114662  68.4154034  37.1932524 106.4087022  67.5981045
  76.1326456  26.0659838  69.6815586  76.8276978  25.4822946  69.3775129
  76.5906477  26.8589091  69.9603748 103.0748081  30.0804830  73.5834742
 102.4349308  30.7731462  73.4191370 102.5782204  29.2678738  73.4870481
  48.7021845 111.0029395  72.2387266  47.8793066 110.6706896  71.8799639
  48.6451739 111.9521696  72.1294403  60.0882578  31.2549257  70.6065893
  60.0298262  31.3487864  71.5573835  60.5075026  32.0632243  70.3114319
  60.3624392  19.9676919  71.5266848  60.6495237  19.3247390  72.1750879
  60.2941561  19.4712937  70.7111120  57.8372019  86.7506690  55.6873655
  58.2033747  86.3667579  56.4840841  57.3513239  86.0347576  55.2779436
  65.2561665  20.6897235  57.1036577  64.6369410  20.5416989  56.3888979
  65.5517197  19.8132229  57.3498821  92.6122475  17.7166116  45.5473375
  92.1734810  17.6873255  44.6971273  93.4622955  17.3046982  45.3924942
  49.0505236 107.1182794  43.4641886  49.7054499 106.8135102  44.0922213
  49.5176142 107.7518273  42.9195023  90.4987049   8.8978863  21.2227869
  90.6380081   9.8398864  21.3200569  91.0489845   8.5032719  21.8993211
  85.9586048   3.2460564  46.1121988  86.4348221   3.8993233  46.6247320
  85.0382042   3.4907639  46.2081814  74.7556734  17.2183526  76.5872240
  74.8309469  18.0869019  76.1920214  75.4794168  17.1760654  77.2122431
  65.5700159  15.8004153  50.5140734  66.4589262  15.4667652  50.3926611
  65.4468250  16.4207864  49.7956038  54.3874121  12.5524557  72.0331001
  53.5154343  12.8505051  71.7741585  54.9771595  13.2401645  71.7240906
  63.7197828  13.0243921  27.5899124  64.4699478  12.9878259  26.9964910
  63.8359213  12.2714818  28.1694555 112.3765863  98.9533801  35.0290823
 112.3258222  99.5048518  34.2483568 111.6377200  98.3506794  34.9450517
  55.7745665  98.4841175  79.4345617  56.3878363  97.7995307  79.7019196
  56.1233919  98.8070114  78.6037207  44.0520477  40.1180553  50.8807993
  43.1603146  40.0250721  51.2160492  44.3225384  39.2247128  50.6686592
 116.3634491  32.0927191  57.6538610 116.1327553  32.9696941  57.3473930
 116.1217213  31.5147901  56.9301271  90.1078701  33.2954645  66.6377115
  90.4710770  34.0288782  67.1341228  90.8345699  32.6777196  66.5568686
  91.2674332  20.3249550  37.5291562  91.5834045  20.9930944  36.9208956
  90.9348583  19.6262169  36.9657826 108.6623669  14.8247182  52.5729895
 108.6050510  13.8785970  52.7064085 108.5697269  15.1963508  53.4502268
  63.5513115  15.1577187  85.6153965  62.6537418  15.4052520  85.3932953
  64.0822601  15.5207324  84.9064922  29.5254534  82.2421522  83.7308788
  30.4259699  82.0325274  83.9785767  29.5754450  83.1289430  83.3740330
  24.1669720  98.0730946  66.7307854  24.4307392  97.6481850  65.9146309
  24.0475624  98.9928861  66.4942360  75.3343773  11.4222252  57.0053339
  75.5638552  10.5261421  56.7591476  74.7276306  11.3212013  57.7387381
  63.4930992  25.5469489  78.1423378  62.7839661  25.6426287  78.7781143
  64.2777920  25.8241320  78.6152601  90.1895046   7.0010734  55.1841068
  89.8024559   7.4198091  55.9529209  89.8345470   6.1121505  55.1913548
  87.2589302   4.0792871  64.1901398  87.2701168   3.1667823  63.9012814
  87.9254436   4.1216382  64.8758459  30.0267285 103.8879229  57.6222849
  30.5463427 103.0842907  57.6426077  30.3269738 104.3475057  56.8381500
  63.3089876   1.1061476  51.6921568  63.2970715   0.2630994  52.1453238
  62.6781273   1.0039543  50.9795475  65.2324677  11.8690109  85.2351189
  65.0860167  11.7139125  86.1682510  65.2404261  10.9947884  84.8453712
  51.4710348 103.4438772  51.3559580  50.7608813 103.9668573  50.9839249
  52.1443003 104.0839268  51.5867615  42.4465769 102.9179175  93.3022308
  41.6242140 102.5170685  93.0206680  42.6871031 102.4392123  94.0954590
  43.7728071   1.6377324  70.2819824  43.7305355   0.6959975  70.4480553
  42.8664064   1.9355159  70.3594017  97.5258446  26.1669397  65.7945871
  96.8207932  25.9709978  65.1775360  97.9007912  26.9883442  65.4768753
  82.4201107  34.6272826  37.3232126  82.9875469  34.6646857  38.0931783
  81.5533829  34.8649406  37.6526570  65.8346462  50.4436255   2.5053063
  64.9316883  50.6279039   2.7640420  66.1398888  51.2576246   2.1047296
 104.4034004  33.5916114  59.0636444 104.1516113  33.8426685  58.1749344
 104.8409462  32.7467275  58.9589787  82.0484352   7.8168255  41.8897438
  82.2476196   7.1552575  41.2272596  82.6605320   7.6338577  42.6025534
  65.4390907  30.7512593  82.0163345  66.3549948  30.8099484  81.7444801
  64.9410248  30.9717298  81.2292194  65.2173567  44.6037626  38.8421893
  65.6667423  44.5007086  38.0033398  64.7412634  45.4299784  38.7589383
  13.3138817  81.7549438  49.6739435  13.4159058  81.4162440  50.5633831
  14.1635578  81.6020937  49.2605209  40.7319659 107.7673889  56.0671711
  40.4754275 106.8671535  56.2671709  41.4043158 107.6803420  55.3914547
   1.0130059  36.0910620   4.9253819   1.2782036  37.0103254   4.9545929
   1.8304764  35.6027319   5.0229141  52.8613997  16.8960130  68.7457800
  53.6508083  16.6269207  69.2155218  52.7939320  17.8366160  68.9099312
  56.0454988   0.1674151  78.6018181  56.5070152   0.6255698  79.3041897
  56.2382555   0.6781943  77.8155708 116.9606400  40.3458881  75.5221796
 117.1924114  39.9008656  76.3373232 117.5685310  39.9902606  74.8739290
  56.5653706   3.3734238  44.9304438  57.1759844   3.9545161  44.4768858
  56.1494970   2.8697497  44.2307329  33.7033057  22.6829505  50.2551794
  33.5149074  21.7484093  50.3410196  33.0071783  23.0166221  49.6892309
  70.8800793  29.4206882  29.0869761  70.6716347  28.8381004  29.8172998
  70.4227018  30.2359486  29.2928600   7.2846955 105.4516585  37.0884728
   6.9082993 106.0466702  37.7369475   8.0290430 105.0493903  37.5360847
  61.5167731  78.5819263  52.9457712  61.0089606  77.8292866  52.6426220
  61.4782637  78.5279031  53.9006710 105.3607941  15.0578928  60.3785944
 104.9098969  15.6309319  59.7584772 105.7433033  15.6547832  61.0217476
  47.1585798  13.9130616  65.8233452  46.8018341  13.4399462  66.5750933
  46.4799166  13.8426673  65.1520109  68.7350750   1.6327660  78.0599356
  69.6862888   1.7067574  77.9827547  68.3957386   2.1011102  77.2972202
  49.1781378  17.4971521  55.8622408  49.9105310  16.8811846  55.8825970
  48.4282827  16.9687283  55.5888987  64.8179007   7.6679593  32.8098965
  65.5177450   7.0708847  32.5454140  64.9336529   7.7691007  33.7546730
  63.5984087  12.4598622  73.6525774  63.5699081  12.2692668  74.5901775
  64.5307970  12.5459719  73.4539032  76.8162584  27.1397376  89.2641735
  77.2813511  26.4516354  88.7883282  77.0043468  26.9626641  90.1858616
  13.0545986   3.3640054  42.5037622  13.1556892   3.1707856  43.4357882
  13.1713235   4.3120298  42.4416542 102.2760309  95.6131549  92.0225430
 101.8857206  94.7682924  91.7987251 103.1732238  95.5571468  91.6936970
  93.0917072  32.4817324  67.8395367  92.3896694  32.7322531  68.4400415
  92.6964569  31.8203330  67.2715950  55.9558535   7.2953135  38.6861873
  55.5324268   7.3774225  39.5407057  56.3641977   6.4297545  38.7034059
  81.4073944   0.4024141  57.8269196  80.6924629  -0.1531919  58.1374121
  82.1593761  -0.1866844  57.7658653  27.6754826  77.6038785  75.9267855
  27.5903099  77.4594922  74.9843788  27.5224369  76.7427964  76.3158178
  30.4621458  28.5742736  52.4630880  31.1352038  27.8944397  52.4306488
  30.8118653  29.2834759  51.9236803  83.1334400   6.9880122  52.4247885
  83.7726307   6.3667428  52.7736187  82.8995991   6.6345489  51.5665245
  35.1559847 100.4725535  52.2299767  35.1112097  99.5210774  52.1355247
  34.4120711 100.7987757  51.7236137 101.0758209   5.1401907  42.6660395
 101.3025475   6.0224652  42.9600096 100.1789093   5.2190810  42.3411560
  47.3528784  94.5070679  90.8578682  46.4328593  94.4384272  90.6027508
  47.4299639  95.3796465  91.2437344  64.2818594  37.4915028  50.1372671
  63.5232639  37.0440841  49.7623205  63.9107084  38.2347488  50.6127262
 104.9541855  15.6006122  27.3602867 104.7041798  14.7879493  27.7999544
 104.3479252  15.6702554  26.6228366 106.8637943   5.0777680  59.3256712
 106.3180828   5.7465774  58.9120054 106.5601063   5.0483394  60.2329397
  38.3110642  46.3840628  39.8138762  38.5661864  46.6844320  38.9415669
  38.2425141  47.1855736  40.3326368  56.5099192  16.8938041  30.1438642
  57.2478533  17.3361433  30.5634117  56.4248753  16.0670352  30.6186819
  96.9990158  19.3624127  74.7912455  97.6015663  18.7390685  74.3855333
  96.9145870  19.0600526  75.6955051  50.3116512  16.3930476  78.6182308
  49.4914865  16.0487580  78.2646418  50.4898643  17.1734285  78.0933714
  80.4653835  25.2290606  72.7399158  80.3523254  25.4354906  73.6677265
  79.5754290  25.0938797  72.4144506  56.6629648  25.6596828  70.6173801
  56.8738842  25.9555483  69.7318268  57.5020313  25.6653070  71.0780001
  82.8112030  13.1171584  80.9179688  82.3418713  13.5281956  81.6439152
  82.1904182  13.1369019  80.1896381  90.9642124  41.4702225  39.5242214
  91.6904449  41.8445587  40.0228977  91.3647461  40.7736111  39.0040922
  45.1784628 111.2848466  43.5368204  44.8133677 111.0756321  42.6770735
  44.4805926 111.0639583  44.1535950 116.4157009   4.0529904   4.3633264
 116.7093945   4.6635252   5.0395077 116.8851852   3.2408422   4.5536530
  90.8187008  35.5154228  68.0376148  91.5630627  36.0172725  67.7054977
  90.3683853  36.1181378  68.6293793  72.4710482  98.6364348  51.3637209
  73.2734411  98.9899154  51.7477083  72.4944037  97.7035136  51.5766668
  81.3367367   3.9171213  77.8334188  80.7594681   4.6367773  77.5782824
  81.2967205   3.3057350  77.0980024 113.2657051   8.2126904  61.7460537
 114.0922832   8.4595507  61.3312483 112.8917217   9.0410107  62.0464802
  62.2475719  33.0256128  59.5848942  62.3829269  32.2682381  60.1543617
  62.5860643  32.7486229  58.7334633 114.1734982  45.4065037  86.7864609
 113.6637878  46.1164379  87.1768665 113.8549805  45.3502941  85.8855629
 104.7512150   9.4698507  71.6372442 104.6224785  10.2258563  71.0644293
 105.6616592   9.2121094  71.4926910  83.3991814   1.0594920  49.9669600
  83.4054756   0.1504518  49.6672344  82.4727154   1.2994513  49.9846268
  74.4304848  26.6582608  77.7781725  73.8775921  25.9953785  78.1918478
  74.4443512  26.4148951  76.8525314  97.6019478  36.5595937  43.5301495
  98.2447815  35.9545898  43.1600523  96.8305111  36.0176301  43.6956310
  89.9555969  46.7323542  43.6961842  90.7030392  46.1350393  43.7239838
  90.2435112  47.4994898  44.1909885  97.5544548  32.6243806  49.1608620
  97.3248005  33.5104799  49.4407225  96.8521881  32.3731208  48.5609293
  94.2825985  42.4319744  81.0615253  93.6412907  42.2195625  80.3834152
  94.6363926  41.5842247  81.3305664  55.0843000   3.3588409  38.2930827
  54.6293497   3.1662214  37.4732375  55.2228069   2.5022191  38.6971235
  66.3778496  10.2196097  54.8359013  65.8368587  10.3004789  55.6214094
  65.8515501  10.6148219  54.1408825 100.9391022  50.8111858  42.7550554
 100.3452301  51.5364981  42.9486227 101.4360046  50.6861830  43.5635710
 104.9993229  43.2054234  43.6917973 104.8849678  42.6461363  42.9234505
 105.1344681  44.0820551  43.3319569  76.4173508  23.3724737  76.1397505
  76.0260534  24.2288637  75.9673786  75.9191227  22.7666855  75.5911016
 111.8516445  14.5812750  63.2737780 111.8128395  14.8163486  62.3467064
 111.4871025  15.3404033  63.7288237  88.9938164  36.2150788  80.7096291
  88.6545658  35.8572245  81.5300369  88.3727455  35.9189510  80.0441837
  47.1043223  92.8286011  66.8588591  47.4946802  92.2009201  66.2506914
  47.6548975  93.6080892  66.7847252 100.9217358  28.6092234   8.5972917
 101.5514660  29.3298364   8.6169314 100.4056931  28.7202764   9.3957889
  99.0143681  40.1820183  66.6403627  99.6942139  39.8440385  67.2232962
  98.6554050  39.4036007  66.2143946  75.3018332  34.4014215  41.1413193
  76.2536192  34.3434072  41.2248087  75.0179529  33.4977126  41.0036421
   4.1633944   1.7215690  42.5030708   3.8627963   2.6278991  42.4364233
   3.6825042   1.2586696  41.8169975  80.3194809   9.1942436  40.2775955
  80.6529045  10.0914323  40.2669430  81.0023499   8.6901933  40.7201576
  96.2332726  31.2499452  41.5633583  95.4145145  31.4170885  42.0301914
  96.1280823  31.7016888  40.7260418  55.7814550  14.3130946  44.1981602
  56.1092806  13.9684093  43.3675241  55.0416994  13.7465501  44.4173002
  57.2886771  74.8173804  70.0616074  57.2854250  74.3655558  69.2177629
  57.7835005  75.6208939  69.9011564  69.8241186  44.4864559  58.9308596
  70.3330803  44.1651583  59.6751404  70.3202772  45.2388048  58.6083221
  79.3197107  20.4183340  73.8969469  79.2718124  20.7416320  72.9972696
  79.2510796  21.2049055  74.4380808  72.6690501  92.7456982  65.8158016
  72.3128336  92.0367081  65.2803802  73.6182040  92.6589687  65.7273722
 106.0165787  29.7485662  45.9971189 105.6805038  29.4907498  45.1387405
 106.8075180  29.2219830  46.1126947   5.4366147  54.8941550   7.9309723
   5.3987347  55.7046159   7.4230835   4.5321213  54.5815575   7.9510090
  88.1099528  96.9066317  47.6039839  88.7547987  96.3894100  48.0865717
  87.2736376  96.4788980  47.7879858  91.3933468  24.4445372  60.1579666
  92.0331478  24.2397976  59.4760799  91.3815022  23.6672473  60.7164574
  48.6823177  47.3178530  55.2501154  47.8586531  47.5962400  54.8497343
  48.6446285  46.3615084  55.2353096  71.8450182  99.3837793  57.1436167
  72.6361292  98.8485379  57.2060776  72.0539397 100.0437565  56.4825439
  93.6900902  14.4726658  19.4880414  93.7824249  15.3962731  19.7218287
  93.7746239  14.0055907  20.3192616  73.3256435  16.9466138  22.7098250
  74.1426849  17.4443483  22.6791620  73.6029577  16.0304785  22.7047229
  78.5420752   3.3892500  70.5464602  78.7442064   4.0154469  71.2416220
  78.5587168   2.5361639  70.9802771  75.5581570   3.2098445  56.5183544
  74.7698784   2.7186203  56.7497540  75.7988119   2.8821653  55.6517839
 102.6388359  27.7839899  46.0084295 102.1202755  27.7686071  46.8128490
 103.3875751  27.2176766  46.1952639  41.7083853 108.4520252  80.0060368
  42.3730582 107.9215155  80.4453564  41.5575712 108.0053640  79.1729784
  87.9121971   8.8243532  75.4613304  87.6438522   9.5113969  74.8512506
  87.4125004   9.0029126  76.2579870  66.2795591  47.0974159  27.9707861
  65.3647518  46.9497061  28.2106519  66.4730215  46.4123058  27.3309207
 101.6152763  46.3811207  68.6650705 101.7191124  46.5971518  69.5917749
 101.9853878  45.5023766  68.5810566 111.5749741  18.9666152  38.9708757
 110.7101822  18.7081587  39.2895675 111.5231705  19.9183428  38.8827658
  97.6138878  23.9728117  32.8273129  96.9764328  23.6141109  33.4447360
  98.4387398  23.9818716  33.3128715  95.4117012  20.4872966  66.9029713
  95.1782513  20.7135677  67.8032637  94.6145916  20.6536555  66.3998079
  64.5940733  21.8695998  65.0107431  63.7551403  21.6229415  64.6214104
  64.4285250  22.7201152  65.4174995 107.8474903  35.6496215  45.7704067
 108.7771988  35.8722854  45.8181572 107.5885677  35.5058622  46.6806412
  84.9598789  35.2032661  50.7252741  84.8556805  34.2542148  50.6568813
  84.3401146  35.4637766  51.4066410  62.7647114  17.7320898  43.5052299
  63.3685017  18.1544447  42.8942585  62.1065187  17.3203182  42.9453564
  85.4562759   5.9872943  70.9829569  85.7467175   6.8770975  71.1832714
  85.7699871   5.8276325  70.0928307  66.5479469  15.5456710  35.9453487
  66.8752337  16.3115001  36.4171720  67.2427130  15.3333831  35.3220773
  52.5019758 108.7533937  83.8148212  52.1546477 109.3780045  83.1780624
  51.7600458 108.5568679  84.3867874 102.1382236  23.6183953  62.9160690
 101.2895775  24.0212250  62.7323246 102.5430870  23.5096979  62.0555449
  72.1421194   7.9374880  86.8600082  72.2061872   7.4933892  86.0144901
  72.5640011   8.7848914  86.7180347 104.2433071  17.3149228  59.0932894
 104.2428875  18.2305920  58.8143969 104.2034626  16.8160164  58.2773638
  38.6589074  18.9250946  63.7133121  39.5540190  19.1022754  64.0024710
  38.3867669  19.7288370  63.2703972 109.3444347  42.5827980  78.3452749
 108.7769985  43.2706356  77.9972410 110.0552940  43.0551720  78.7785959
 106.1048603  35.7578397  81.8169498 105.1885319  35.9688759  81.6379642
 106.1054134  35.4394698  82.7196503  74.7930050  19.8900771  56.5242004
  74.6721983  19.3797386  55.7234573  75.2132607  20.6988072  56.2316799
 102.8359032   5.8560669  62.4366570 103.3719635   5.2596819  61.9139814
 103.3048153   5.9338111  63.2675028  81.1873627   8.4371305  53.6308670
  80.9393406   7.6984918  54.1868639  81.9441223   8.1215990  53.1369162
 103.4861946  23.0293775  78.2470179 102.6609230  23.5074687  78.3281755
 104.1552639  23.7124252  78.2019567 110.5717564  18.0183017  72.4487209
 111.0249519  18.8414478  72.2662926 110.5042171  17.9884791  73.4030724
  60.0148392  27.5868034  47.1474981  60.3452301  27.9035783  46.3068295
  59.1499424  27.9882050  47.2315502  35.9651791  83.3775903  23.5605690
  35.6103169  83.0740072  22.7250168  35.9855877  82.5945903  24.1107723
   5.1908545  87.4722481  64.1257858   4.8734717  87.4395847  65.0282478
   5.9580855  88.0434322  64.1622400   1.0707526  12.4135578  70.8933496
   1.8112330  12.5460255  70.3014326   1.2486987  12.9942107  71.6332245
  66.9418287   4.1736153  41.7124939  67.0874023   4.0423864  40.7755756
  67.2281265   5.0722772  41.8758059   3.8205199  34.7273374  21.1005211
   3.6681609  34.0030050  20.4935956   3.0259471  35.2581048  21.0442972
 114.6548462   8.9496529  83.1787777 114.7243595   9.4841582  83.9697933
 115.5484390   8.6489159  83.0136299  92.9302025  49.0419245  36.6105390
  93.1567478  48.3478594  35.9915233  93.1198788  48.6670685  37.4706221
  86.6195965  25.0821328  59.0772057  86.0201073  25.7903218  59.3123817
  87.4735355  25.3758788  59.3945885 106.5966320  37.6500797  50.2530098
 106.4516830  38.5949016  50.2026749 105.7346344  37.2859192  50.4544497
  78.2378340  23.8196802  20.9736490  77.8413963  24.1383457  20.1627707
  77.5384808  23.8849378  21.6239381  69.0761393 100.5429692  35.1571894
  68.8475531  99.6548433  34.8829484  68.2837790 101.0550291  34.9953437
  98.5984230  42.3525524  65.0110245  98.6026096  41.6277409  65.6362152
  99.2037964  42.9936504  65.3835154  95.9373093  12.6695442  59.0485859
  95.1824284  12.3955095  59.5694494  96.6928291  12.3129654  59.5157862
 109.4037724   8.1433129  62.4460554 109.7421455   7.8493530  61.6002893
 109.3472481   9.0952814  62.3636389  69.0430546  10.3298151  59.2153025
  69.4363642  10.4013145  60.0850296  69.5913935   9.6937126  58.7560272
  53.4034204  19.2425656  76.6255426  54.3312740  19.4666970  76.5542555
  52.9753447  20.0661755  76.8593073 105.7065773  27.4615479  73.8836288
 104.8015118  27.4563909  73.5720730 105.6593132  27.8655505  74.7501040
 100.3979492  23.8372731  23.4572864 100.8905125  24.4055867  24.0494275
 100.5815697  22.9507875  23.7681794  95.4923916  32.4783993  31.2749624
  94.9199867  33.1712580  30.9455109  96.0013294  32.2050571  30.5117488
  59.8552895  12.2902441  58.7058926  60.0350952  11.4069176  59.0278196
  59.2080069  12.6409817  59.3176460   8.1440310  34.0875387  54.5278120
   8.2107882  34.3326950  53.6049509   9.0276580  33.8065863  54.7655201
  83.0562973  31.6444778  56.8889570  82.2614574  32.1777248  56.8995428
  83.7555027  32.2519565  57.1304321  86.8041134   0.3738051  59.9107409
  86.2715435   0.8542911  59.2769146  87.6710987   0.3261936  59.5078707
  55.9203053  23.0692577  17.5530982  56.6803980  23.3538318  18.0605495
  56.0761642  23.4147215  16.6741240  17.8687989  46.8160661   2.1599552
  17.1297013  46.9822164   1.5748283  18.5358368  46.4225187   1.5974590
  61.1259413  11.9832349  48.2140112  62.0070696  11.8108034  48.5458469
  61.1966276  12.8315187  47.7762318  80.9407330   9.1102427  57.5106716
  81.3414574   9.8152149  57.0020771  81.1735821   9.3072414  58.4179783
   5.0654940  19.9511516  72.1254444   5.6453089  19.5855474  71.4573288
   4.2697577  19.4223213  72.0674038  71.9027233   6.2330741  74.4539356
  72.0053959   5.8931869  73.5650206  72.4576521   7.0126361  74.4778633
  86.5621758  30.3794956  44.6539736  86.1896324  30.0118518  43.8525486
  87.1732235  31.0499382  44.3484354  97.8840637  26.3007069  90.8170986
  96.9343472  26.4200282  90.8111191  98.2161999  26.9943810  90.2472401
  84.4749069  27.9802012  79.9544573  85.3011990  28.4090996  79.7319365
  84.5061970  27.1441269  79.4894457 105.7296467   7.0763928  55.9982634
 104.9450970   7.2718704  55.4859066 105.4136658   6.9937122  56.8980169
  86.1249352  34.2668533  22.3139048  86.6514587  35.0306320  22.0779991
  86.3020325  33.6306047  21.6210437  97.1141243  48.5361338  45.4725122
  96.7434597  49.4186544  45.4711008  97.5402832  48.4539795  44.6193647
  84.8506832  34.0640855  25.2514601  84.0876484  34.3853354  24.7710419
  85.2586174  33.4328675  24.6586776  62.5121229  12.5915868   1.5681717
  62.5348871  12.1335131   2.4083397  61.5869921  12.7959449   1.4317867
  99.5120144  53.7318039  49.5671082  98.6174679  54.0587902  49.4716930
  99.4225788  52.9413176  50.0994301   2.7977501  60.9358259  17.9236958
   3.2794129  60.6943758  17.1325371   1.9807755  60.4402347  17.8673431
  37.8578115   4.4364333  28.7491679  37.6883531   5.1909935  28.1851172
  37.5219488   3.6882204  28.2556057  99.5960140  32.5386500  55.9391451
  98.8244629  33.0846024  55.7879257  99.5543480  32.3175359  56.8695259
 100.0946236   2.1535441  61.7436552 100.3444576   3.0392760  61.4804173
  99.6348763   1.7983092  60.9829521 107.4984932   6.5040010  31.2053061
 107.0729733   6.6503936  32.0501304 108.2166195   7.1365845  31.1860251
  36.5724486 108.7827016  62.9685783  35.8677119 109.3238695  63.3245420
  37.3611801 109.0941290  63.4125948   9.3276726  37.6433541  18.0595085
   8.9134156  37.6809265  17.1974155   9.5049511  36.7132236  18.1997177
  76.6680193  21.5842533  60.8297777  76.4532900  20.9231210  60.1717281
  76.8100405  22.3859239  60.3263998 106.1918831  31.8263125  87.5076771
 105.5716705  31.4882326  86.8617058 105.8288860  31.5577388  88.3516693
  86.5941715  15.1232970  62.3184204  87.3253727  15.2118683  61.7070818
  87.0044804  14.8844254  63.1495810 102.9110909  61.4697886  64.0030813
 102.1860409  61.1354876  63.4750891 102.4966431  62.0591021  64.6332979
  89.9151499  91.8321325   0.3430244  89.3269903  91.1998083  -0.0698498
  89.4197065  92.1677376   1.0901043  48.0918217  19.5136309  39.8149872
  48.6452055  19.0326774  39.1996169  48.3336401  19.1687727  40.6745386
   6.2474494  91.1052799  55.2694273   5.5621581  91.7241764  55.0172710
   6.3094001  91.1910439  56.2207603  69.6562815  20.5296135  79.0905237
  69.9320412  21.4391398  78.9767265  68.7979364  20.5902481  79.5098114
  94.8615170   8.8502866  82.5595474  95.5849838   8.2582867  82.7653599
  94.6927929   9.3161017  83.3785534  84.7235012  17.5900841  39.7596979
  85.4176903  17.1181154  40.2196741  85.1054287  17.8092980  38.9098096
  84.6905994  26.1105490  36.0312080  85.6167793  25.8933640  35.9251142
  84.3422127  25.4106784  36.5835118 102.0851707   7.3447555  70.6276751
 101.2328434   6.9835007  70.3842068 101.9701576   8.2929528  70.5650091
  23.1755214  12.6788533  79.8940992  24.1299777  12.7284575  79.8413610
  22.9073100  13.5447252  80.2016068   8.7286334  49.4337606  41.1846876
   8.4553675  49.0719175  42.0276737   7.9115538  49.6950150  40.7600021
  41.9408053 104.6791119  69.3160152  42.4440211 105.0429613  70.0444508
  41.0299986 104.8824150  69.5289421  73.5215807   2.1475570  82.7524281
  74.3557501   2.2231600  82.2890949  72.8858709   2.5643966  82.1707535
  21.1851155  98.8396590  81.6855553  20.8942067  99.3868392  82.4150780
  22.1126496  98.6805623  81.8604889   6.0283236  31.4499497  64.4292116
   6.7721228  30.8516169  64.4998980   5.2588897  30.8847904  64.4984007
  72.6849955 105.9063775  41.8579626  72.1612376 105.3111679  42.3942852
  72.3084563 105.8327002  40.9810209 105.8345604  19.7560573  63.0448151
 105.7628250  20.7060289  62.9518604 104.9449539  19.4674897  63.2486868
  84.9460142 105.8014269  91.0188389  85.2605360 105.1378513  90.4048634
  85.1786631 106.6352088  90.6102943  89.1739464  12.0436609  43.4499311
  88.9982033  12.0510721  44.3908310  89.2176533  11.1150849  43.2217455
 107.2165012  24.3596840  60.5952740 107.4332523  25.2757668  60.7686043
 106.8387890  24.3651986  59.7157669 103.7492085  43.6087179  60.3343105
 103.9818764  42.7178812  60.0725746 103.8808918  43.6219311  61.2823153
  95.4178619  41.7227364  72.7267551  95.6242085  41.0609961  72.0666361
  96.2700939  42.0617628  73.0005932  84.2851162  69.4034433  51.7544460
  84.9116802  69.2466688  52.4608946  84.8008156  69.8225975  51.0655403
  54.9089766   7.7918309  56.6882467  54.2428923   8.4455836  56.4757061
  55.7064915   8.3008856  56.8333721  64.7585791 101.5092207  31.5978289
  64.9440211 102.0390750  30.8225226  64.2930907 102.1023412  32.1875429
  91.7121315  31.0404420  65.6093121  91.6272831  31.3714767  64.7151947
  91.8702698  30.1023555  65.5034065  83.6943817   7.6272029  47.5797081
  83.7805271   8.4564406  48.0500031  84.4606400   7.5960016  47.0068932
  65.5760002  20.3069115  71.4074373  66.4556408  20.5489278  71.1177969
  65.7022381  19.5019388  71.9097471 103.1578445  56.3268995  64.7574854
 103.9630508  56.1603594  65.2475357 103.3564854  57.0971441  64.2250347
 102.3777676  50.2091837  86.4261627 101.7255211  49.5134735  86.3437080
 102.0471764  50.9145737  85.8699512  78.3338642  42.9072189  47.7190113
  78.6391258  43.0732298  46.8271112  79.0961170  42.5431395  48.1691790
  81.2578678  67.5723934  43.7208652  81.4663792  68.4988976  43.8406467
  80.4050255  67.4625206  44.1413546  -0.3545709  39.2270422  52.7408171
   0.1516013  38.9815474  51.9663763   0.2451186  39.7642779  53.2584953
 109.6730328  30.9069705  69.1539621 109.3299484  31.5619373  69.7618628
 110.5573082  30.7249355  69.4720173 117.0651340  34.0830064  62.5840569
 117.9262257  33.6857438  62.4539375 117.2136593  35.0210762  62.4649048
 116.6045475  44.7777605  61.8639088 116.0545826  44.7149801  61.0829926
 116.0270691  44.5256472  62.5844526 115.4047108  29.7987652  66.6739464
 114.6241760  29.8954463  66.1283779 115.7528591  30.6868553  66.7534590
 104.1485691  49.3110943  50.0967789 104.2909241  48.8843489  50.9416771
 104.3387318  50.2349091  50.2599955  93.1596756  46.2393284  52.4827909
  93.7704945  46.8229961  52.0328283  93.5670948  45.3751373  52.4243879
  84.9765778   4.2101154  49.0369940  84.3402958   4.1073433  48.3293104
  84.8432159   3.4420305  49.5924091  34.0749281 106.4095015  84.5311546
  33.9517515 107.2702242  84.9314213  34.6345967 105.9367533  85.1471901
   2.1188121  68.7639666  47.9468346   2.5892310  68.9621687  48.7565565
   2.4449401  67.9029751  47.6849794  83.9349651  62.0473051  41.3874006
  83.2886314  62.7505207  41.4503860  84.4427967  62.1156263  42.1959019
 109.0845585  44.8621893  35.8205438 109.2591572  45.6020308  35.2388430
 108.3196545  44.4321632  35.4381466  80.1817036  67.6580095  47.5573349
  79.9736452  67.4815607  48.4748363  80.7091045  68.4564638  47.5806141
 108.2776928  15.7222092  55.1949787 108.2436943  15.0444281  55.8700275
 109.1983128  15.9823298  55.1628971 111.0862923  18.4966147  75.3297901
 111.7238998  17.8569698  75.6468725 111.5842628  19.0558445  74.7335339
  99.2740917  68.7255573  66.4251709  98.7580204  69.1471624  67.1123028
  99.1531372  69.2846012  65.6576633  95.1251602  55.3180885  57.7415466
  94.2582130  55.3984737  58.1392574  95.6293678  54.7999859  58.3689022
 116.7091370  25.8647728  43.1154490 116.7406940  25.5218935  44.0085745
 116.8967533  25.1071882  42.5612831  83.8816452  20.7814407  53.6323118
  83.4487534  20.0313091  54.0399170  84.5303631  21.0631776  54.2773056
  89.6781462  93.4295566  27.9039955  89.2618101  94.1793222  27.4788499
  89.5881766  92.7157886  27.2725916  80.6632710  33.2907271  49.7117138
  80.1779842  33.8140059  49.0738297  80.0208759  32.6651287  50.0466490
  13.1092982  55.7573748  28.7356734  13.6575560  55.2391434  28.1465316
  12.5640063  56.2856197  28.1527066  85.4318333  67.7861214  67.6323986
  86.2970257  67.4868298  67.3529387  85.4508114  67.7158356  68.5868263
 116.1339951  50.8095217  57.8029537 115.3812027  51.3779497  57.6404142
 115.7501030  49.9724007  58.0638885  98.7059975  69.0311527  38.6606908
  98.6166573  69.3849993  37.7757931  98.8345623  68.0915260  38.5310650
 106.3602161  26.3989353  56.5132761 107.3005295  26.4783025  56.6736794
 106.1948490  26.9761157  55.7677889  78.7760878  37.7815413  29.4428229
  77.8585386  37.5394988  29.3173170  78.9679766  37.5325155  30.3469229
  99.4484806  79.6872044  85.9027004  98.6858749  79.8175049  85.3390598
  99.5711422  80.5305958  86.3384533   0.2098613  37.7236891  30.5169368
   0.2097277  38.3150554  29.7642612   1.1183505  37.4317360  30.5919886
  68.5960054  40.8713436  43.2542372  69.1044950  41.3169622  43.9317989
  68.7979889  41.3493538  42.4499130  97.1839333  34.1071320  56.1303997
  96.9713211  34.4336748  57.0046997  96.6613007  33.3104706  56.0386324
  85.3039360  17.5294948  36.8439555  85.9484673  16.9984221  36.3762283
  84.6598053  16.8977857  37.1637654  87.7012634  62.1562624  64.6704102
  88.4801102  61.8834591  65.1553917  87.6413059  61.5351200  63.9445877
  97.6883316  26.5312767  87.8108311  97.8455639  27.4652004  87.6719379
  96.7407799  26.4316440  87.7188778 106.0638142  30.5080676  69.6958447
 106.8284702  30.0543666  70.0503683 105.5814266  30.8037066  70.4679441
  94.0043354  58.1785631  57.3057747  93.4149075  58.1283331  56.5532589
  94.5924282  57.4308157  57.1997070  98.0041981  36.3223195  53.2311964
  97.1848583  35.8283806  53.2618332  97.7546120  37.2152376  53.4691811
  97.2640324  65.0708866  45.6640816  97.6459503  65.9019852  45.3818750
  96.7738628  65.2894163  46.4566755  98.8972759  18.1507444  28.0531693
  99.2494297  18.8954329  27.5656724  98.5303211  17.5764275  27.3810554
 105.3678894  60.1565647  47.1640444 105.6659031  59.3653631  47.6128435
 105.4149818  59.9363470  46.2337112 106.5672874  60.0925875  66.2626934
 106.2174797  59.6983051  65.4636860 105.9700584  60.8156729  66.4542723
  93.2509995  41.0373735  62.9607916  93.6995697  40.7835722  62.1541977
  92.3229790  40.8965302  62.7732420  97.0897102  39.0561128  56.3884068
  97.4049950  38.7727761  55.5301857  96.1668968  39.2672944  56.2468052
  80.2743340  43.0381155  58.4231138  79.6508265  43.0835295  59.1479635
  80.1149273  42.1831560  58.0232763 113.4724808  20.1934290  30.7740045
 112.5276375  20.1058865  30.6481671 113.5639286  20.5628681  31.6522884
 101.4420891  44.2106724  53.8235140 101.5967655  43.9839506  54.7405243
 101.2376404  45.1456547  53.8391542  95.1374626   9.5352423  -0.0363901
  94.9923515   8.6309344   0.2418239  96.0756016   9.6771246   0.0900414
 110.6293011  36.2753630  43.3158064 110.8749294  36.0977221  44.2237377
 110.7705879  35.4442477  42.8624630  98.9755440  42.2353220  39.6696663
  98.2297802  42.6780415  39.2646050  98.6676788  41.9995785  40.5448055
 103.8975143  52.2412348  36.3542938 103.7972832  52.1628332  37.3029971
 104.6431637  51.6787291  36.1449337  93.8962841  13.7595332  62.8756523
  93.5523987  14.5738816  63.2428265  93.7432384  13.1057823  63.5578680
  90.9529400  42.4836349  86.8715954  91.6736984  43.0884886  87.0473099
  91.0995007  42.1912909  85.9719849 106.7921066  23.1330967  68.4802961
 106.6363525  22.3900461  67.8973293 106.8659878  22.7428651  69.3512106
  92.0131207  65.1447630  63.5852385  92.3194981  65.1454401  62.6783991
  92.4635029  64.4032621  63.9896631  37.9790644  28.8720846  27.7234340
  37.1287207  29.1784668  27.4083424  38.6155944  29.3067837  27.1559024
   6.9745497  69.0136528  80.8767033   6.7150836  69.4562435  81.6847992
   7.8751998  68.7317228  81.0365868 116.6610622  77.6669407  87.6525402
 117.1290970  77.3689318  88.4325218 115.9085751  78.1496429  87.9945755
  95.5703926  19.3513978  70.2625036  96.1201000  20.0048375  70.6950188
  95.5417061  18.6179888  70.8769321 115.4185581  21.8192387  36.3790894
 115.3060246  22.7122092  36.7049241 116.3383389  21.7736697  36.1180258
 105.2098370  50.2139807  29.9966764 105.8172607  49.5794535  29.6163559
 104.8379707  50.6713390  29.2425060  -0.0089212   8.5767138  60.8614397
   0.9349780   8.7126058  60.7787848  -0.1767965   7.7647758  60.3831053
  92.6118565  51.7676115  38.1274199  91.8246555  52.0889044  37.6877475
  92.8317451  50.9592104  37.6644158  89.6411133  30.0060844  64.0285110
  90.1292324  30.3948665  64.7543335  88.7415791  29.9454379  64.3500710
  98.5238075  56.6417217  57.8037548  98.3423424  56.1250639  58.5888433
  99.2585182  57.2032118  58.0510664  97.2819233  30.0262141  66.8851519
  97.7192593  29.4192696  66.2880087  97.9930496  30.5408955  67.2667742
  84.0232658  56.3953495  49.2371893  83.9144039  55.8378839  48.4667253
  83.1299877  56.5802956  49.5271444  90.3531361  48.3272457  54.5362997
  90.3319168  47.7372742  53.7828302  91.2281609  48.7145519  54.5126677
  90.4622459  60.5298710  61.8698215  90.1774406  59.7287226  62.3094559
  89.7227097  60.7733917  61.3130331  77.4347067  56.2266588  52.5521040
  78.1472778  56.2386990  53.1911039  77.8477383  55.9383059  51.7381668
  94.4513416  39.5258999  75.8514786  94.7261524  40.4342508  75.9763813
  93.5476398  39.5036387  76.1662149 108.4450912  70.8136654  48.7519360
 108.7964058  71.7040443  48.7578630 108.7669373  70.4237795  49.5647335
 108.6933804  44.5262623  68.0270576 109.0647125  45.1099873  68.6885786
 109.1818237  43.7091875  68.1272936   4.1781001  36.2199092  63.5018253
   4.2576556  36.1805010  62.5487518   3.4002452  36.7562294  63.6552668
  66.0745144   3.2706636  57.4517536  65.6632710   3.4470370  58.2979250
  66.5496397   2.4501012  57.5827646 100.2930832  28.0046773  38.5048032
  99.9681950  27.1330261  38.7304115 100.8980942  28.2254744  39.2129278
 118.3139229  37.2469926  57.8226376 117.5532722  37.5683999  58.3067274
 118.3735847  36.3209987  58.0576038  71.9110489  59.5483398  63.3830833
  71.6152143  59.8292351  62.5171661  71.4937162  60.1606178  63.9890385
  15.2363318 110.4055124  74.4534636  15.0456208 109.5044276  74.1928720
  14.8325175 110.4957879  75.3166056 116.5610981  20.9505653  67.2160816
 115.8154774  20.4663134  67.5707388 116.2241268  21.3587213  66.4185238
  96.6887283  60.2876854  59.2105579  96.3549995  59.6624184  59.8539066
  96.2006760  61.0927582  59.3834829  10.4224448  46.5367603  28.6907196
  10.2755503  46.1673307  29.5614505  11.0503154  45.9417343  28.2808924
  95.4292393  51.2138462  59.0762615  95.8873367  51.8391752  59.6378136
  96.1223793  50.8046150  58.5582685  79.4544029  25.5578971  50.9000444
  79.9978161  26.2363935  51.3007593  78.5658264  25.7577538  51.1945248
  76.2458134  45.0481939  46.9909334  77.1898031  44.8910809  46.9701576
  76.1283875  45.7119894  47.6705074  82.4976254  71.3363123  34.7612739
  81.7903233  71.5379190  34.1486478  83.2989216  71.4828491  34.2585921
 107.6599216  47.2448206  31.8772030 106.7066765  47.2312689  31.9630718
 107.8142929  47.4085140  30.9468246  61.8410986  92.7103026  64.9507618
  61.9925707  93.5732515  65.3362560  61.0103148  92.7990992  64.4837093
  95.7106686  45.7825899  26.7563248  96.1076450  46.3482189  27.4186754
  96.4546394  45.3905582  26.2990904  81.6614723   9.8173434  51.3621283
  82.3886776   9.3720025  50.9272957  81.6981506   9.5082307  52.2672987
  79.0792894  25.0749516  55.3811359  79.9949932  24.9531674  55.6319094
  78.9525652  26.0236812  55.3903866 110.8733559  66.7311621  68.8581944
 110.9309292  65.9283018  68.3401871 110.9202480  66.4338207  69.7668314
 108.5569477  24.3020153  35.2335238 109.3414021  23.7709022  35.3705478
 108.6996269  25.0825357  35.7689357  91.7020226  53.8624430  54.5477247
  92.5923729  53.8746548  54.8989534  91.1392879  53.9287949  55.3191900
 112.3591805  20.5745530  48.8375807 111.4926815  20.1859999  48.9577293
 112.5724983  20.9526753  49.6906662  89.4849396  53.5937977  29.4266629
  90.0571632  52.8565884  29.2137885  88.7294292  53.4851408  28.8490558
   9.3153624  18.5092175  68.1131792   9.2193084  18.7000179  69.0462399
  10.2259974  18.7288117  67.9163122  96.0849094  59.5377827  51.2412786
  95.6479836  60.3844881  51.1495304  96.1539268  59.4050837  52.1867228
  91.7345238  35.6426716  47.8058815  92.0962524  34.7610736  47.8962851
  91.7010307  35.9807444  48.7007666  97.3327541  42.1636009  44.9277353
  97.8812981  41.5069628  45.3568745  96.4426899  41.9542980  45.2109575
  93.0634975  61.5799522  55.6204510  93.9591026  61.6029263  55.2834082
  92.9964828  60.7348824  56.0649681  95.6297112  39.6096325   8.9087898
  96.0294914  39.6995783   8.0437332  96.3561821  39.3715167   9.4847846
  92.5093937  55.1984739  59.3295050  92.5107384  56.1333799  59.5348835
  91.5824699  54.9696398  59.2609835 101.3961029  68.7364054  69.6794844
 101.9167328  67.9331779  69.6783733 101.9290066  69.3665743  70.1643896
   6.1981158  18.2736576  51.7838907   5.8066706  17.4043345  51.8692017
   7.1184974  18.1032908  51.5836143 110.8486080  86.2433243  77.6310444
 110.3268814  86.8119717  77.0647621 111.6284561  86.0409546  77.1142006
  94.2799568  38.9804697  59.3676138  95.1536942  38.7221980  59.0741682
  94.2507172  39.9270844  59.2286968 112.3606014  20.5580139  73.8742352
 113.1919861  20.9985518  74.0501690 111.6948032  21.1649919  74.1975355
  99.0339279  26.7620897  62.1114063  98.3374500  27.2347307  62.5672102
  99.5925808  26.4248967  62.8117180  89.0429974   7.5392097  62.1038103
  88.5993385   7.6938999  62.9377604  89.9153996   7.9144925  62.2234058
  77.6293182  52.0169210  35.6119490  78.0849028  51.3877916  35.0526023
  77.3995256  52.7370358  35.0247002  43.8761252  94.9157090  52.5145340
  44.4380492  94.3990357  53.0920410  44.4831770  95.4637785  52.0172024
  83.4525108  41.2184954  50.6142187  83.7769699  41.6102362  49.8033571
  84.0355206  41.5569544  51.2937593  91.3057327  23.8308907  55.6466961
  90.6200409  23.1632900  55.6275415  92.1097565  23.3544183  55.4399395
  15.5098300  35.0127912  25.2842999  14.8022132  34.4982004  25.6725121
  15.2110533  35.1973939  24.3938589   9.1028552  14.7466695  37.5356817
   8.5957675  14.1160905  37.0243478   9.8899703  14.2673993  37.7944946
  91.6580200  38.6873817  73.5636187  90.8802795  38.2890677  73.9543819
  91.4450169  39.6185517  73.5021210  95.6669903  49.4361115  42.5262690
  96.2914658  50.1614380  42.5391197  94.8307514  49.8439837  42.3013830
  30.4625468  53.1070900  58.6614227  30.4696517  54.0350723  58.4268379
  30.5240397  52.6478386  57.8238440 112.4753857  41.1265087  36.9591761
 112.3001289  41.5285444  36.1083651 112.5080776  41.8628740  37.5698590
   4.3209319  70.7354879  46.9945335   3.4573035  70.9119701  46.6213894
   4.9040084  71.3513470  46.5507078  39.1401725  13.1427491  57.9499865
  38.2017951  12.9797912  58.0455399  39.2023330  13.7685680  57.2283792
  88.9678764   3.9189550  66.4451218  89.3571091   4.7031304  66.8321657
  89.6971893   3.4813285  66.0060120 108.7952805  33.2447577  39.1576242
 108.8320541  32.4025893  38.7041545 109.5259762  33.7447500  38.7938809
  93.5576820  32.8117752  54.4526863  93.6389256  32.1576834  53.7585688
  94.0556049  33.5639453  54.1324568   5.3678374  55.4018831  31.4552426
   4.8618369  55.4299355  30.6432033   4.8634391  54.8282099  32.0320535
 102.7380943  22.3488283  60.3563547 101.9877434  21.8913388  59.9770069
 103.4934425  21.8145442  60.1109600 111.0915089  61.6293001  35.0492764
 110.1373005  61.6960144  35.0137353 111.4008141  62.2823095  34.4214702
  98.1404495  23.0747008  27.4899292  97.2151947  23.2877541  27.6113129
  98.5820007  23.4961200  28.2272720  68.6258078  20.6841183  56.5555048
  69.2639351  20.3782201  57.2000599  68.1596375  21.3934422  56.9979763
 106.9936943  56.9052267  28.9068389 107.3843384  57.6332712  28.4235382
 106.0530567  57.0813370  28.8861918  94.4753933  41.5474272  58.5173130
  94.0139103  42.1817398  59.0658665  95.4019070  41.6978884  58.7048483
  82.5485802  18.2623088  16.6209257  82.8152370  17.5020027  16.1041451
  81.8794441  17.9245317  17.2162366 106.9657516  39.1799283  73.4941578
 107.0530224  38.3031487  73.8681555 106.5563011  39.6966672  74.1881084
  82.6828575  47.5355196  34.8766756  83.0343533  47.1916866  34.0554190
  81.8246651  47.8879166  34.6409917  84.0997505  34.7131038  44.1314983
  83.3733463  35.2118492  44.5054293  84.6861458  35.3780460  43.7706375
  75.2634525  45.6134462  51.8714523  75.4404640  45.8002901  52.7934027
  75.5678654  44.7145796  51.7465067  24.3966025  98.5528011   8.7609076
  25.1454609  97.9660697   8.6551523  24.4075506  99.0991695   7.9750365
  98.8038158  65.9992409  24.0480280  98.5201263  66.8919086  23.8507986
  99.6041107  65.8835745  23.5358047  97.9577637  49.2787266  39.0236878
  97.4000168  48.8108158  39.6451449  97.4809742  49.2361164  38.1947827
  83.7009239  59.4107771  69.7835112  83.1454086  58.7679434  70.2244282
  83.4599686  59.3419933  68.8596916 106.2785435  79.1660833  42.2704601
 106.5973759  79.5710182  41.4638615 106.6169453  78.2712460  42.2392273
 104.4944668  47.0589590  58.3669567 104.3989182  46.4323568  57.6496887
 104.8783875  46.5494347  59.0805578  72.7931118  50.9120178  27.1154714
  73.5096550  51.2888241  26.6047692  71.9996691  51.2537003  26.7032409
  91.8466473  42.4469757  34.7675562  90.9631824  42.5763893  34.4226146
  91.8502617  42.9192877  35.6001091  97.0058155  42.4242353  24.9104762
  97.2965717  43.2819939  25.2202225  96.0526943  42.4976969  24.8615813
 112.8558826  21.8687725  51.1307955 113.2927513  22.5457621  51.6475773
 112.5875378  21.2124491  51.7738056   2.7946906  40.3601837  63.2733488
   3.2612853  40.8576345  62.6017380   2.5280146  39.5537043  62.8320932
  46.7546116  97.9550459   3.2968304  47.1618973  97.7911426   4.1474030
  46.9715916  98.8660909   3.0989525 106.3603115  60.2737713  76.3536644
 106.9418144  60.6296349  77.0255661 106.7943382  59.4722748  76.0613298
  98.9179611  56.6362762  51.9923449  99.7956848  56.4747667  51.6463184
  99.0625095  56.8859625  52.9050303  70.3962994  24.3770289  40.4962063
  70.8047485  24.5259905  39.6434379  69.4563198  24.4348288  40.3249216
  95.8829117  56.2918377  65.0870466  95.6072044  56.0488939  65.9708977
  96.8225193  56.1098862  65.0707388  10.7136206  43.0059481  58.5525036
  10.5439715  43.9393234  58.4249926  11.5814357  42.8662872  58.1735373
  63.6157339   8.3563144   1.0993263  63.9213675   7.5319392   0.7208702
  64.4155520   8.8052136   1.3732025 115.7183266   6.0813391  67.6660919
 114.7644615   6.0032374  67.6494122 116.0343170   5.1983607  67.4744511
  15.5111937  48.4121323  78.7861443  14.6615748  48.1990623  79.1721296
  16.1242442  48.3734083  79.5202398   5.2316432  84.4203186  88.5911560
   5.5991702  84.7641563  87.7769470   4.6557669  83.7084484  88.3121586
  92.2244358  16.7494559  28.6587477  93.1138229  16.5869308  28.9731026
  91.7616272  17.0996845  29.4199157   5.3328089  42.5370312  83.2903481
   5.0461726  43.3395243  82.8543663   5.6502299  41.9789934  82.5803757
  77.6990175  81.2849236  68.7065220  77.8042364  81.1792850  69.6520376
  78.5903406  81.2425613  68.3601284  13.4995417  66.7632914  64.2324495
  13.9697699  67.5317574  64.5558262  14.1890769  66.1492872  63.9799309
  93.2658577  85.0187683  71.1549425  93.3806038  84.6954060  72.0485306
  93.6520481  85.8945465  71.1657047   1.7810111  94.8336506  18.1554365
   1.6078524  94.1406441  17.5182569   1.6157965  94.4246674  19.0049481
  25.5389933  88.0789280  65.7640886  25.0901847  87.4084854  65.2490091
  25.3625064  88.8965511  65.2987146   0.3250842  72.2282982  78.1338835
   0.7382636  72.1797371  78.9959478  -0.5596490  71.8904543  78.2729483
   5.9059958  25.2717543  53.3952856   5.4901461  26.1280298  53.4957552
   6.6848044  25.4443169  52.8662300   9.1364913  59.9344397  52.9021692
   9.4814448  60.0209427  53.7908554   9.2523341  60.8020401  52.5147724
  69.0105772  62.7894974  30.5205536  69.7914267  62.3287010  30.8274317
  68.4349489  62.8205013  31.2847018  93.4815884  71.1421728  64.0718842
  93.8305187  70.3996468  63.5787964  94.1768074  71.3669968  64.6902418
  59.8773306   9.1834695  11.8613312  59.4162863   9.2765242  11.0276672
  59.8849505   8.2407290  12.0268986  97.2979450  95.2989101  91.2180805
  98.1557369  95.0967407  91.5916443  97.4730492  95.9842396  90.5731773
   7.3405127  64.6066999  56.4399290   8.2872920  64.5378971  56.5628147
   7.1917300  64.2962837  55.5467701   5.9146266  66.5065479  81.1794567
   6.6454940  65.8917189  81.2431145   6.2927871  67.2870064  80.7743359
  75.9076452  73.9979267  48.3222437  75.0254965  74.3694592  48.3263540
  75.9963560  73.6010790  47.4557161   6.6108088  61.8164110  89.6589565
   5.9334903  61.5668583  89.0303040   7.0654731  60.9980917  89.8586273
 104.7213936  56.4253378  37.0702338 105.0806141  57.3082352  36.9825578
 105.3196526  55.8723497  36.5677214   9.5065741  43.2598543  69.9806786
   9.3368964  43.1890965  69.0412998   8.8781504  43.9127016  70.2890682
  22.4269442  18.1155145  86.7135906  22.1853404  17.2611666  87.0712948
  21.7357402  18.7053347  87.0145607   8.9929824  38.8614845  51.0843945
   8.8534694  39.3936515  51.8676996   9.8119216  39.1906381  50.7139540
   6.5667014  18.9125693  70.1018381   7.2598128  19.5285678  69.8644161
   6.1581950  18.6787832  69.2683506 115.1278305  49.8792124  76.0364771
 115.8920097  49.3725109  75.7616711 115.2882004  50.7588482  75.6947899
   6.7499499  88.8010693  71.0329723   7.6374964  89.0392876  70.7651281
   6.2203936  88.9262199  70.2454853 101.3607121  49.5554209  62.5352240
 101.9109631  50.2955675  62.2790241 100.7290554  49.9281693  63.1502867
  90.0367737  61.0502148  66.0334778  90.0772190  60.1013422  66.1528158
  89.4355488  61.3518524  66.7144918  79.2410755  73.3965921  76.6309452
  79.7946548  73.1382418  75.8940363  78.5004854  73.8489962  76.2270975
  67.4604750  93.5966969  57.0513821  66.8202114  93.7564373  57.7447605
  67.6485682  92.6600075  57.1102285  58.9441794   8.6027057   3.7585327
  58.4678953   9.1595036   4.3744537  59.8526114   8.6364753   4.0582535
  91.8664742  57.9243565  68.7623787  91.7519665  58.4217644  67.9526186
  91.5403843  57.0489073  68.5538530  96.3922119  41.0264254  37.9159880
  97.2546482  40.6133890  37.8732491  96.2140274  41.1125278  38.8525081
 110.0355911  81.8529701  21.2603879 110.8361435  81.4157963  21.5506315
 109.7524071  81.3512897  20.4959536  91.1862183  34.4565082  54.6688604
  91.5234852  35.2477050  54.2487526  91.8894672  33.8146615  54.5703554
  87.4738026  90.3793621  26.4374137  87.6833439  91.0513020  25.7887101
  87.0300961  89.6940708  25.9376693  95.8269596  61.3509941  71.7537308
  96.1083221  62.2591448  71.6427088  94.8720074  61.3877678  71.6994095
  89.7172737  65.4264736  65.1210499  89.7139072  64.6830130  65.7239485
  90.6198311  65.4753065  64.8060369 116.8542290  42.2886658  81.2991238
 116.2685871  43.0009604  81.5558243 117.4585247  42.1981239  82.0359135
  94.3723965 100.1455116  77.5024462  94.3160439 100.0485802  78.4530544
  94.8152447 100.9841919  77.3730469   0.7652812  61.2870693  58.6253166
  -0.1303621  60.9870100  58.4703732   0.8327632  62.1044970  58.1318665
   4.9394564  74.6855402  80.9881496   5.1779799  74.3072462  80.1418400
   4.5922808  73.9485168  81.4906406  32.6420073  67.9131317  94.8302364
  33.3329158  68.5552740  94.9931240  31.9093470  68.2071018  95.3715420
  70.5830383  56.5542316  28.7275434  70.3752518  57.0279646  27.9221654
  70.7090139  57.2401667  29.3831801 102.9146290  60.2233362  49.5382166
 103.6941624  60.0541973  50.0673151 102.6589775  59.3626451  49.2064333
  92.6371956  69.3032789  44.9179697  92.2610188  68.8101101  44.1889238
  92.1638012  70.1352119  44.9139309  93.0497360  48.2905293  17.0800567
  92.4068737  48.6780739  16.4861119  93.7598133  48.9314318  17.1156740
  14.9045996  35.3133082  57.9299450  14.9645571  34.5400262  58.4909010
  14.8512702  36.0485649  58.5405064   7.0823531  72.8023481  74.3531466
   7.4200873  71.9116449  74.4470215   6.1673121  72.7416945  74.6274853
  64.1292858  92.1879578  63.6845398  63.9963102  91.4712620  63.0641413
  63.3449125  92.1785355  64.2330885  86.4394665  54.0888739  31.6213489
  86.2819481  54.6298027  32.3951840  86.4396286  54.7086477  30.8918858
  95.0409889  41.0935688  45.6322575  94.0949154  41.2387943  45.6230116
  95.1394939  40.1490211  45.5124235 117.0332527  98.0581665  84.4279099
 116.3164902  97.5046253  84.7378922 117.1787071  97.7779579  83.5242748
 112.2575569  38.9375901  78.2421589 112.0902729  38.2608795  77.5861788
 111.4383221  39.4300914  78.2924986  99.2520428  42.0795870  48.1592607
  98.3233166  42.3109150  48.1733608  99.6269608  42.5482798  48.9049101
  84.8456478  46.5149689  59.5260620  84.2125607  45.8682632  59.2142868
  85.4580307  46.6209602  58.7980652 103.8682079  66.7443752  56.3406324
 103.4927940  67.3236465  55.6775045 103.1105328  66.3287687  56.7522526
 102.1551418  68.8807201  66.0341215 102.6775074  68.6648750  66.8066263
 101.2478542  68.7949085  66.3268757  88.6909008 102.7676582  56.7332077
  87.7820873 102.6395607  56.4614010  89.1402626 103.0554390  55.9385490
  10.0558619  32.1514988  60.7804203   9.4514994  32.2147822  61.5199947
  10.3922896  31.2563300  60.8219385 116.2490368  54.5338488  34.3651104
 115.6545448  54.5703125  35.1144338 115.9351921  55.2205563  33.7767458
 102.8734112  64.6341753  53.8778973 102.4169350  65.1390982  53.2049084
 103.3049679  63.9284182  53.3963299  10.5206065  96.2614632  53.2020569
   9.7095923  95.7552433  53.2492590  10.2501254  97.1164799  52.8673697
  86.0975361  47.5623703  57.0474291  85.9135151  48.4020567  56.6263628
  86.0997677  46.9296503  56.3291740  17.0800929  94.0044022  49.8806286
  17.4598460  93.7043571  49.0547991  16.2044005  94.3103409  49.6443987
  88.3973217  24.4876194  69.4353199  88.0131531  24.7110343  68.5875416
  88.8506413  25.2845478  69.7103405  91.1396790  76.1497450  40.5189037
  91.0321999  75.2489519  40.8242702  91.5500450  76.6046190  41.2543726
  99.5843124  71.2534046  50.3120232  99.7049522  71.3091326  51.2599516
 100.4727268  71.1950207  49.9605370 116.6112137  80.2392578  33.8938975
 116.6184139  79.3869972  33.4582090 116.5540886  80.0310612  34.8264313
   6.7289691  37.1736598  57.8076792   7.4215560  37.7647948  58.1028271
   7.1910147  36.3816667  57.5329256  94.4594860  97.0347977  74.4573450
  93.6581135  96.5583706  74.6742725  94.3442345  97.2935486  73.5430193
  23.7332110  51.6454744  83.6101627  24.1770034  52.4921989  83.5618019
  23.7401156  51.3196945  82.7101326  37.8668551  28.3698392  66.1920691
  37.8997378  28.6230803  67.1145725  36.9616179  28.0920076  66.0520840
  77.1144724 100.4010296  61.5583801  76.8235540 100.9529305  62.2843313
  76.4193916  99.7505569  61.4585447  95.9303951  90.4479599  26.5593195
  95.6556892  89.9133778  27.3042965  96.6676712  89.9695396  26.1801410
 106.7651939  65.0025702  67.3008204 107.5064468  65.4257536  66.8675852
 106.1277580  64.8608541  66.6009426  30.2712683  87.1847153  76.5952158
  31.0652785  87.7097416  76.6958046  29.8382239  87.5507069  75.8240080
   1.3282351  62.1815443  48.3618450   1.8502764  61.6100550  48.9249611
   1.7603259  62.1369553  47.5088882  96.9656658  69.5401096  83.0790997
  96.1373425  69.9996042  82.9413223  97.5371742  69.8624516  82.3821735
  82.0800495  70.3477573  67.2621298  81.4818573  70.0002623  67.9236794
  82.4621201  71.1251688  67.6694202 109.1153526  63.2373095  72.7164602
 109.6449947  64.0248823  72.8407478 108.9724064  62.9026318  73.6017799
  86.3874722  66.3147449  44.7930145  86.7096043  66.3316822  43.8918066
  85.4814053  66.6167355  44.7292137 109.7728157  73.9178514  42.5417042
 109.2312813  74.0999460  41.7737150 109.2395306  73.3301687  43.0769300
  95.5767536  85.8730888  43.7532663  94.7331047  85.5113125  43.4819460
  95.9061432  86.3224125  42.9749107  81.9909971  35.9686810  32.5059959
  82.1874350  35.3268010  33.1883690  81.1025160  36.2645966  32.7041409
 109.9027824  86.8724442  84.6978569 110.7455254  86.7347336  85.1303577
 110.0745869  86.6882896  83.7743855 109.0295982  55.5509520  56.9180202
 108.2460785  55.0031805  56.8702793 109.7160053  54.9605799  57.2287226
   1.0392813  67.7542782  72.3981857   0.8333545  68.5677910  72.8586483
   1.3146453  68.0359554  71.5257978  80.3177166  67.6736927  40.6861115
  81.0771847  68.1417418  40.3391743  80.6316948  67.2765493  41.4984703
 103.8464165   0.1008210  89.6265507 103.8049889   0.7581858  90.3210926
 104.5978546  -0.4450883  89.8579693 111.5916252  61.3099098  49.0759516
 112.1026134  61.8003225  48.4320402 110.6984329  61.6383982  48.9733648
  13.7628894  48.6794662  64.0372229  14.6112685  48.6910629  63.5940981
  13.2456927  49.3437910  63.5818005 105.1547813  37.8698826  55.3164339
 104.8024178  38.6113667  54.8242188 104.4118977  37.5456500  55.8255863
 112.6984692  50.3827858  53.3823490 113.4099293  50.9519148  53.6758757
 112.8618145  50.2579069  52.4474955  13.2247977  80.2600002  83.9244652
  13.2639651  81.2162304  83.9063740  13.7149768  80.0150299  84.7092819
  75.0495195  52.0465088  58.1106424  75.7235479  51.7839956  57.4837446
  74.4114113  52.5313711  57.5872278  74.8803282  61.9451189  39.6182752
  75.2161932  62.6682472  40.1479053  74.7263288  61.2395048  40.2464676
  88.7667179  97.4528027  29.1782260  88.5477924  96.8554401  28.4630609
  88.2422066  97.1442509  29.9170876   1.2115149  33.7959099  88.9418888
   0.8713774  33.7214136  88.0502701   0.6505637  33.2197785  89.4611454
  97.8870487  41.2398863  76.6666555  97.7551556  41.2485981  77.6146841
  97.0407391  41.5024757  76.3046646 113.2692242  81.0097504  56.6690063
 114.1938114  80.7912159  56.7857122 112.7988911  80.2403927  56.9901228
   9.7021823  57.4447584  85.0643444  10.3330951  56.7458010  84.8921680
   9.9311404  57.7644587  85.9370422 110.6784439  65.8637190   6.5118468
 111.2656212  65.1868296   6.1752874 111.0821629  66.6878843   6.2398303
  21.7791610  51.9208097  44.4372416  21.9053035  50.9890747  44.6166611
  20.9909873  52.1545744  44.9275208 100.1268578  48.1635094  48.2686186
 101.0017204  47.7807188  48.2030201  99.5345211  47.4118185  48.2501602
  74.0075541  70.3977013  41.2596273  73.3275414  69.9550867  40.7517815
  74.8227692  69.9773359  40.9858561 105.7890797  47.4620724  73.2934284
 105.4727936  48.3376265  73.0707312 105.0251484  47.0177937  73.6611843
  23.0861907  25.4928422  72.2446537  22.4374919  25.3379202  72.9312563
  23.9070658  25.1655602  72.6124573 108.0808067  70.7934475  79.4786453
 108.6266518  70.7214212  80.2616501 108.5794163  70.3431702  78.7968302
  -0.0912328  81.8011665  76.2483358   0.4599719  82.3480415  75.6885672
   0.5110602  81.4414883  76.8995714  94.9263382  81.6924000  56.2296724
  94.0428257  81.3260460  56.2673903  95.0833988  82.0302010  57.1114063
   4.5818190  48.7361097  76.1829185   5.1916270  48.0288267  75.9728861
   5.1339202  49.5146465  76.2557268  18.5452990  36.9966269  66.3191223
  18.5347609  37.3934817  67.1901131  18.5183863  37.7400947  65.7168245
 110.2529526  73.8737059  75.7497120 110.4524136  74.7980976  75.8978891
 111.0516739  73.5154200  75.3625250  75.9856367  50.0189400  31.7450261
  76.4473152  50.3175974  30.9615183  75.6669378  50.8224678  32.1561313
 103.4976196  61.7871141  40.0917578 102.5718689  61.8315840  40.3309965
 103.8594532  62.6258945  40.3776932  76.4665127  40.1331329  53.0168915
  77.1196842  39.4389606  53.1047344  75.7939577  39.7585797  52.4480247
 102.5109005  93.9619064  80.9712219 102.7306747  93.0508518  80.7765007
 101.7323589  94.1386127  80.4431343 113.1535912  73.2215405  62.3200607
 112.2344875  73.0189896  62.1455765 113.3739471  73.9017344  61.6836596
  83.4498119  23.5755086  27.5939250  83.8893890  23.5711145  28.4442091
  83.9098835  22.9095316  27.0830059  31.7318778  56.7797899  69.3071079
  32.5400595  56.3482666  69.5843554  31.1152129  56.6143322  70.0202560
 117.1521759  57.6067400  32.3545003 117.0773411  57.9810095  33.2323122
 118.0195618  57.2021914  32.3397613  50.7364403   1.0054450  47.9526711
  50.5836331   1.9502215  47.9691553  51.6737877   0.9174113  47.7798653
 106.7945194  60.5709934  72.2672081 106.7052937  61.4060926  72.7264214
 105.9534073  60.1337290  72.3997211  10.3661113 103.4729290  30.3594542
  11.0471110 103.6061764  31.0187840   9.6786742 102.9909325  30.8191729
  18.3832602  74.7606230  54.0006351  18.4935908  74.1323280  54.7142887
  17.4820952  75.0703096  54.0913534  85.0084972  23.3347082  67.3736382
  84.7666740  24.1627645  66.9588184  84.8484039  22.6736784  66.7001104
   6.0139804  49.0969372  94.0539932   5.4659228  48.5382462  93.5028648
   6.8845992  48.7022448  94.0043163  92.1593952  64.2751265  69.0074968
  92.0924854  63.4915829  68.4617710  92.7192783  64.8685694  68.5069084
  64.9066257  25.9314632  25.2990699  65.7803774  25.5526519  25.2026391
  64.9341965  26.3859320  26.1410475  12.0241885  61.6951561  23.0155468
  11.1130385  61.4050961  22.9719472  12.2490840  61.9149828  22.1114826
 105.1607227   6.8670613  83.4076309 106.0238075   7.2228932  83.1962109
 104.8075771   7.4687201  84.0630150  46.3888775  79.4246794  14.2506954
  47.1146809  79.9610044  14.5697376  46.7655884  78.5513069  14.1432735
 108.4620857  55.6600666  76.2595463 108.4448242  54.7790909  75.8856297
 109.3577480  55.9646368  76.1137486  94.3913746  68.3199263  69.2073584
  94.1934586  67.7267647  69.9320841  95.2574348  68.0472374  68.9043522
 106.0233879  40.6819010  63.3535242 105.1962376  40.3975344  63.7423563
 106.0569477  40.2344179  62.5080299  88.9319515  59.9998426  95.1423073
  89.1014385  59.9968529  96.0843754  89.7814655  59.8072052  94.7455025
 116.6216278  26.4654422  40.0209713 117.1419811  26.6100693  40.8112526
 115.9961605  25.7840466  40.2674007   4.3858962  47.7408886  30.8760262
   4.5619635  48.6189508  31.2140107   5.2142482  47.4646044  30.4839420
 114.6890926  55.1302814  59.2019272 114.0320492  54.4810343  59.4529295
 114.6936512  55.1088190  58.2449770 116.3099003  81.2957191  59.8106813
 115.8327579  81.8710232  59.2126894 116.9249535  81.8749619  60.2605820
  97.8478622  56.5615463  67.3642445  98.6925793  56.2245178  67.0657492
  97.4062347  55.8007383  67.7415609 116.3216209  82.8736782  62.5760365
 117.0039272  82.7722645  61.9124174 116.7914867  83.1524181  63.3620167
  74.6592855  71.2070036  57.4141598  75.4248857  70.7759571  57.0343208
  75.0147343  71.9729376  57.8649807 109.7944546  60.0214386   9.7452515
 110.1012421  60.2304649  10.6275332 109.1026878  59.3735981   9.8794234
   1.6614775  93.9270592  57.9204082   2.4250846  93.4604645  57.5806522
   1.2437682  94.3000603  57.1441269  10.1332907  74.8134518  92.6709366
   9.6950011  74.0798569  93.1021881  10.4962878  74.4376230  91.8689346
  75.3028393  72.2436190  38.9759517  76.1676645  71.8396854  39.0476441
  74.7389984  71.7020130  39.5282006 100.8303833  47.1841002  60.9911871
 101.7450619  46.9308996  61.1156273 100.7875633  48.0880880  61.3029671
  18.1050734  42.8275156  79.1675043  17.8136782  42.3278379  78.4048510
  17.6917033  42.3907518  79.9122143 113.6320877  70.6591988  50.9800863
 113.7629700  71.3359690  50.3159428 113.3237743  71.1361837  51.7505789
  85.1839352  22.8468347  30.1542854  85.2897835  22.0183301  29.6867275
  85.9673309  22.9156637  30.6999946   0.0927596  34.3437076  58.9439726
   0.0275664  34.0191269  58.0458498  -0.0826116  33.5767269  59.4891548
  77.9696894  71.0828114  50.1237535  78.6226606  70.6154537  50.6447554
  77.5634432  70.4044247  49.5843267 100.6815624  45.6292677  73.1059074
 101.2010765  46.0623121  73.7832689 100.0889778  45.0539541  73.5897398
  97.2990799  71.6028261  43.5092926  96.6065121  72.2426319  43.3443022
  98.0805969  72.1317816  43.6695194   8.3978896  69.3442345  92.1511650
   8.7389140  70.1914120  92.4379158   8.8804869  69.1514301  91.3473225
  92.4449539  71.9930172  56.4547825  91.8346977  71.6999531  55.7780790
  92.2450829  72.9218054  56.5715790   4.1189627  28.8892937  75.8028507
   3.2525210  28.8967061  75.3960896   4.5307593  29.7000885  75.5040741
 106.3405418  77.4049997  67.9308605 106.5654945  76.6042709  67.4570847
 105.7208729  77.8563547  67.3576927 104.9795055  31.8610406  94.7026634
 104.2397308  31.2576461  94.7725010 104.6433067  32.6920247  95.0383282
  81.8861961  72.7525377  68.7187576  80.9756184  72.4773407  68.6122656
  81.9774818  72.9206419  69.6566486  94.5883465  62.0278549  50.7341623
  94.2724609  62.7326107  51.2996435  94.4594574  62.3581743  49.8450613
 101.1978149  84.2867947  45.3864765 101.5197754  83.4805012  44.9833918
 101.4794540  84.9812889  44.7910023  36.0176806  57.9783535   1.1921262
  35.4372363  57.2320795   1.0425226  36.7491584  57.8371143   0.5910980
 113.6903763  56.9960117  33.4955645 113.0589962  57.5962400  33.8921952
 114.4781113  57.0885897  34.0314126  95.0344389  26.8084390  -0.0078896
  95.7924479  27.3894269   0.0562260  94.3058317  27.3267419   0.3337643
 111.0509872  67.9912853  37.0320415 110.2112865  68.3556700  36.7521143
 110.8170891  67.2215128  37.5506687  34.5281558  47.1267748  78.8679266
  34.0848689  46.4468813  78.3605146  35.3221564  46.7030287  79.1938782
   1.6276889  69.1474533   0.9434672   2.3719744  68.6574364   0.5939622
   1.8864970  69.3707037   1.8375641 110.3379345 100.8197594  40.7524776
 109.4931984 100.8643913  41.2004232 110.3161907  99.9860382  40.2827311
  65.7930851  82.0857143  45.9903193  66.3310194  81.8777752  46.7542696
  66.2308788  82.8346634  45.5857992  87.6666832  71.3988352  84.6472740
  87.6303387  72.2802162  84.2756844  87.2537422  70.8430481  83.9863586
  13.0494647  23.3049321  84.5396328  13.2069926  22.3607874  84.5368290
  12.7744441  23.5045218  83.6447811  88.6391354  83.6036205  41.3168955
  88.7200928  84.1460323  42.1014166  87.9837608  84.0519142  40.7823467
 110.2724743  27.8741479  10.0033355 109.8530960  27.0661354  10.2991009
 109.7798634  28.1278467   9.2228156  12.6220183  45.1513100  62.3440552
  12.9626231  45.3081131  63.2247591  11.6716246  45.2120304  62.4404907
  86.7846584  26.6327190  44.2118073  86.5759373  27.2772121  43.5355663
  86.9617653  27.1551466  44.9940681  70.4050636  85.1040459  67.7479172
  69.7068119  85.2826405  67.1180153  70.7201719  84.2307377  67.5149679
 107.7765656  21.3962245  65.0624132 107.0822906  21.1236858  64.4624662
 108.0375862  22.2622061  64.7490883 110.3097552  12.7092797   4.9127075
 110.0394457  11.8570811   5.2546474 110.4146212  12.5675351   3.9718887
 107.0951748  94.0724277  90.6554222 107.9174614  93.8002682  91.0628605
 107.1998119  93.8470936  89.7310257  78.7160015  74.3212652  33.8872075
  78.4983826  73.6188745  34.5000029  78.7235117  75.1137114  34.4240594
 104.5001030  43.0045414  90.9122372 105.2340603  42.4059153  91.0507488
 104.8345470  43.6546183  90.2943611   1.7715983  64.2186737  78.0369377
   1.2555556  64.4453955  78.8105869   2.6118903  63.9234400  78.3876181
  97.4587727  55.4914141  54.6144676  96.9604778  55.9365463  55.2998781
  98.2469368  56.0238695  54.5071793 114.6703911  57.4640560  69.8331833
 114.6012592  57.6320601  70.7729864 114.4014931  58.2858324  69.4225597
 116.1925030  55.2762270  81.7384815 116.5284348  56.0586309  81.3011837
 116.3027859  55.4575300  82.6718616  70.9244394  53.1554079  66.8727636
  70.7868433  52.3982763  67.4420214  70.4869604  53.8771915  67.3242760
  82.4827480  89.4961643  17.8061450  82.1411324  90.3482723  17.5351501
  82.3805237  88.9404202  17.0335340 105.9566975  67.7756548  74.2322683
 105.7460022  68.5384846  73.6938143 105.1429367  67.5774574  74.6956825
  88.9194775  15.6722248  68.5857725  89.2800617  14.7861886  68.6197233
  87.9831505  15.5561066  68.7471437  85.0368214  30.9750724  61.0023451
  85.2679348  31.8621635  61.2778091  85.8001995  30.4459262  61.2336063
   8.2208304  72.7494240  22.7044249   9.1427951  72.9906559  22.7939606
   7.9368739  73.1829834  21.8996716   1.2404780  66.4939451  43.1720734
   0.4029040  66.8691206  43.4440136   1.6256766  67.1575928  42.5998640
  91.2348652  70.7499886  67.6405287  91.3745689  69.8231077  67.8344727
  90.7646084  70.7520103  66.8068171  13.1521468  76.6682768  41.5207481
  12.4305491  76.0461712  41.6129684  13.3322005  76.6886282  40.5808544
  90.4581547  74.0866995  76.0553503  90.4080868  75.0038290  75.7859230
  91.1954784  74.0560722  76.6649818  76.0388088  82.2628689  65.6010056
  76.9257927  81.9240761  65.7222700  75.5483913  81.9236183  66.3497591
  78.0473852  94.1016388  10.8087599  78.6499214  93.4176254  11.1008155
  77.7924156  93.8350868   9.9254882 114.2895031  69.3974543  57.8749084
 113.4348297  69.0566587  58.1387758 114.5940399  69.8943615  58.6342335
 112.2932816  45.7501554  72.3105478 112.2616768  46.6826248  72.5244045
 113.0378437  45.4149723  72.8100681   7.1450095  77.4142313  37.4955273
   6.7614131  76.5602875  37.2958779   6.8208556  77.9902029  36.8031287
 112.4505138  98.1344986  76.3002157 112.7556610  98.0246067  75.3996372
 111.6641808  98.6747360  76.2224293  98.6716747  59.9684858  36.6536236
  98.5400677  59.3008900  35.9804034  97.8568363  59.9660397  37.1558857
 112.0123577  75.7484961  22.5152302 112.2271919  75.5813885  23.4329200
 112.7355957  76.2870741  22.1941638  88.8871384  72.2093105  60.3012419
  88.4879971  71.3996315  60.6195831  89.0553284  72.0447588  59.3734121
   4.3083339  86.9445801  74.3302631   4.6237426  86.3556194  73.6447954
   3.4461550  87.2271347  74.0252209  95.4952717  88.1033707  68.5695171
  95.9157276  88.3893681  69.3804789  95.6233120  88.8328743  67.9631615
   3.8121466 105.9458828  86.6752052   3.9817862 106.7610931  87.1473122
   4.5947032 105.4153061  86.8245888 114.9665070  72.0282221  25.2334571
 114.8047733  71.6913080  26.1146855 114.8392677  71.2718678  24.6607733
  51.9152390  24.7942214  67.2453165  51.3480603  24.2812209  66.6696644
  51.3256012  25.1426368  67.9140282   5.2834372  74.4051504  22.0416188
   6.0502963  74.1891956  21.5110326   5.4928736  75.2541876  22.4308515
  11.9053971   8.3746104  29.0497851  12.6133000   8.4513431  28.4100747
  11.1312329   8.1669192  28.5265708  21.8321376  60.0951195  31.6568804
  20.9893565  60.0142717  31.2103128  21.8620257  59.3442535  32.2497892
 104.2381096  46.6639853  52.2969818 104.4342136  45.8270741  51.8758392
 103.2819653  46.7014980  52.3215961  99.6936321 107.5408649  78.2156897
 100.2580738 108.0724049  77.6543570 100.0075436 106.6451550  78.0915928
  94.4022465  31.6159844  82.6426315  93.5039425  31.4414907  82.3618603
  94.3497658  31.6641355  83.5971737  88.5020256  75.4727221  90.0212860
  89.2216301  74.9483633  89.6699238  88.2890987  75.0576639  90.8571148
  72.3682612  18.8807065   1.0432503  71.5326136  19.2386824   1.3428757
  72.7613085  18.5003192   1.8287727  46.9599377   4.6987109  75.5618477
  47.4227940   4.3790679  76.3363361  46.6611039   5.5746894  75.8059597
  94.9838543  86.4928722  31.0061097  94.3094635  86.4571476  30.3277707
  95.6753826  87.0360374  30.6279635  15.7430129  70.1510859  44.8284626
  14.9960952  70.2943563  44.2472458  15.4600768  69.4480658  45.4132175
  38.3723515  58.2919938  14.4065258  39.1153925  57.9024751  14.8673889
  37.6218718  58.1228406  14.9760792  81.2972355  73.8593769  83.1121635
  80.6557178  73.8582706  82.4017525  81.9952106  73.2805729  82.8054905
  28.5424380   8.2951552  72.8497553  28.6556105   8.7995404  72.0441389
  27.6028590   8.3360517  73.0279398  62.9828280  50.5092294   3.1099579
  62.9875200  49.5627648   3.2528469  62.5948542  50.6184632   2.2417519
  69.6483946  69.9969244  42.8175783  70.3641844  69.3924713  43.0138302
  68.8558435  69.5132017  43.0501938  65.0829411  86.0054016  62.7475023
  64.4852495  86.2691307  62.0479012  65.9539938  86.2131214  62.4093437
  98.9218807  54.5737028  82.6394844  99.4706917  55.0943089  83.2260036
  98.6496544  53.8240337  83.1687450   1.5912967  85.7644463  43.1767225
   1.7624907  85.8800793  44.1113663   0.6377177  85.7114601  43.1126404
  82.1808052  68.4730005  80.7202625  81.2313938  68.5839176  80.7707214
  82.4899101  69.2577982  80.2677345 116.3577080  65.9783936  90.1755333
 116.5922928  66.7997265  89.7435570 117.1092892  65.7779980  90.7333851
  19.4428782  75.9168673  75.9995651  20.2385096  76.2948990  76.3741207
  19.7585730  75.3029823  75.3364563  70.2982348  51.5517670   0.0364563
  70.5438059  52.4658543  -0.1062324  71.1307257  51.0976083   0.1665661
  30.0699650  19.9036651  65.0845051  29.8099743  20.5267196  64.4059563
  29.2794835  19.3914943  65.2549744 111.8927288 101.3812160  82.6273346
 111.5631294 100.6642914  82.0854759 112.8024101 101.1453533  82.8091908
 114.6636200  80.9788132  86.1551285 115.4969501  81.3216782  86.4779854
 114.3225956  81.6716290  85.5894947  24.9075370  65.8389282  62.0033264
  24.1668277  65.2816868  61.7644310  24.5500235  66.4489603  62.6485252
  16.3393740 104.5452785  73.6801338  16.6917281 104.5847034  74.5692492
  15.8933596 103.6994648  73.6365414 100.8993530  44.0980673  63.9203644
 100.1849651  44.1176176  63.2835770 101.1269951  45.0182581  64.0532541
   8.3774905  55.4747200  24.5645690   8.3975940  56.4057827  24.3433237
   9.2989211  55.2257109  24.6366501  51.6335695  27.2636372   5.4932949
  52.3183077  26.9036919   6.0570309  51.0532683  26.5227563   5.3184101
  97.4475670  50.9891605  28.9886117  97.6797485  50.5643702  28.1628513
  98.0642986  50.6280756  29.6253991  80.3983879  89.0666676  40.6607580
  80.9448528  88.9450264  41.4371729  79.5260525  88.7838745  40.9351492
  34.1883521  60.4169321  67.5107145  33.5671000  59.7209215  67.2965908
  34.5678668  60.1500034  68.3479404 106.4564419  74.0018559  44.7363472
 107.1170235  73.8119745  45.4025412 106.0704327  73.1500673  44.5321846
  23.1875758  61.8597603  53.5887098  23.6921458  61.2567139  53.0428457
  22.2991328  61.5036201  53.5809135  92.4388790  93.9461803  60.4256821
  93.0145645  94.6910763  60.2526426  91.7943382  94.2813206  61.0489559
  10.3560387   6.8449168  38.9724469  11.2947403   6.9713264  38.8342738
  10.2569710   5.9007602  39.0948653 106.7020226  67.2215319  64.7069073
 107.4394798  66.6112947  64.7089100 106.3791847  67.2041178  63.8059616
  12.0747809  74.0630436  78.0710506  12.8143935  73.9610434  77.4720478
  12.2221808  74.9102211  78.4915209   0.6664233 104.1805744  32.8895640
   1.0549598 105.0280380  33.1065202   1.3113360 103.5384369  33.1861782
 112.2846699  92.0918274  81.0117722 113.0299950  91.6948509  80.5610752
 112.1929169  92.9550266  80.6084061  10.8543257  74.9137688  44.7185516
  10.0144152  74.4840240  44.8801088  11.5024333  74.3272066  45.1086044
 102.5120831  87.5996494  40.0993061 102.8244972  87.7386761  40.9933424
 102.3904324  88.4817886  39.7482061  62.7131974   0.0490527  55.1854324
  63.3610379  -0.3178735  55.7870150  62.1924531   0.6422095  55.7269192
  19.9815326  63.3774042  86.0923672  20.3058867  62.5050259  85.8688068
  20.1610999  63.9061928  85.3149509 100.3379440  89.2165565  61.4154387
  99.9804497  88.5441113  60.8355713 100.3835011  88.7937737  62.2730017
 101.1418152  68.9080048  61.5270805 100.6365108  68.6713934  60.7493210
 102.0553112  68.8159132  61.2563801  69.9839323   1.4491469  23.0148861
  69.3914145   0.8431060  23.4597084  70.4073733   0.9182889  22.3402569
 104.3171978 104.8750019  71.2359810 104.6734905 105.5178070  70.6227160
 103.8216972 104.2682362  70.6859493  19.0679221 100.4724026  61.0209846
  19.3080573  99.5501423  61.1104584  19.8879008 100.9475422  61.1555243
 110.3083420  99.8026848  75.7851839 109.3518639  99.8398972  75.7881832
 110.5821800 100.6969166  75.5812407 114.6963978  68.6761522  71.4154148
 114.1222191  69.3599176  71.7603922 114.2485714  68.3608818  70.6303787
  72.5396490  73.7403107  69.5129013  71.8418503  73.6392307  68.8655281
  73.1709242  74.3261290  69.0951252   4.3107180  78.4413338  58.4879875
   3.4739928  77.9969454  58.3514261   4.9476771  77.7318764  58.5727787
  10.3965907 103.4031105  46.0540915  10.2501445 104.0450382  45.3593159
   9.9547057 102.6118279  45.7461214 109.7424030  43.9364338  61.6188765
 109.1103172  44.5330620  61.2179708 109.2474937  43.4890890  62.3052979
 102.2534180  75.7630587  76.8722105 102.0440388  75.5542994  75.9618187
 102.9190445  76.4484406  76.8137884 107.6286697 107.1293163  47.4590254
 106.7299747 106.7999268  47.4500847 108.1620502 106.3642502  47.6744890
  99.2130661  38.9630151  37.9193830  99.6023750  39.7332597  37.5053906
  99.8860264  38.6501551  38.5239291  42.2481762  10.7011943  85.0012493
  42.0450055   9.7658019  84.9992371  42.1136796  10.9774547  84.0946960
 103.3817673  87.6425362  70.8108521 104.1572952  87.9277420  70.3276825
 103.3909988  86.6882515  70.7368660  77.9129934  54.8519802  50.0512552
  78.3930683  54.5036030  49.2999935  78.4967232  54.7082138  50.7961130
 111.5713692  72.9309607  65.9452915 110.9489536  72.2231817  66.1122942
 112.4228764  72.4958801  65.9020758  13.9731269  78.4069061  26.8046737
  13.2220988  78.9555788  27.0308161  13.8609748  78.2196712  25.8726883
 113.2142830  28.6069059  41.7451906 112.4826908  28.6884809  42.3570347
 113.9861774  28.8356757  42.2629499   2.7530246  81.3408661  53.6765146
   3.5482077  80.8360195  53.5060787   2.6587443  81.9054794  52.9093409
 112.9752350  32.2763085  68.7813520 113.2252121  31.4936161  69.2724085
 112.4595261  32.7929664  69.4004965  26.5795170 108.3949329  22.2272560
  26.6615616 109.1914322  21.7027638  26.0370862 108.6535742  22.9723045
   0.0849490  65.8322430  63.6681700   0.5386882  65.2567482  63.0524063
   0.0626616  66.6826153  63.2293081 118.3776569  79.5196533  63.9084339
 117.8360367  80.1027775  64.4402647 117.9276371  78.6756086  63.9445162
  87.8225803  79.2013645  40.1171827  88.4215260  78.5927343  39.6846747
  88.1344318  79.2424917  41.0212278  84.9344254  99.2445660  60.6864452
  84.4282532  98.6448956  61.2345457  85.6040382  99.5973015  61.2724686
  83.2169359  14.9207408  23.6195633  83.9336985  15.1675755  23.0351326
  82.4233645  15.1336009  23.1284782 106.8500996  56.7885685  82.0929527
 106.3165188  56.1114693  81.6769505 106.8781376  56.5377712  83.0162907
 114.4551849  72.4518919  28.6289930 113.5012722  72.5189686  28.5867572
 114.7108936  73.0898857  29.2951870 115.7165623  59.2438984  46.9246531
 115.7859039  58.7374020  46.1154032 115.1791477  58.7011671  47.5015926
 108.1803322  74.4130087  31.5026903 108.9338684  73.8829899  31.7624950
 108.0604076  75.0292492  32.2252536  84.5599287  45.4896313   7.9380486
  85.1061743  44.7196252   8.0959961  83.8583868  45.4225690   8.5857937
 113.2932663  46.6350317  47.0370436 112.3416710  46.6547203  47.1385431
 113.6161995  46.2956619  47.8717709 107.4315548  73.4631109  52.5494051
 106.9616222  73.4072256  51.7173719 106.7472839  73.3994293  53.2156992
  94.6584320 106.3311863  40.6875944  94.2243576 107.1776485  40.5812311
  94.1262341 105.8687782  41.3350344  94.7288132  69.1443253  88.7761497
  95.4428291  69.4551992  89.3327236  94.9787903  68.2502604  88.5429287
   0.8887343  80.9002209  49.8340130   0.2422480  81.4567471  50.2682590
   1.6232257  80.8634186  50.4467106 111.6582775 102.4098778  66.7864418
 111.3818455 102.8146362  67.6086283 111.8743229 103.1481457  66.2167883
  16.6645293  89.9027729  74.6635199  16.4013915  89.5481968  75.5127907
  16.9138388  89.1344070  74.1500092  22.0235305 106.9058132  35.2165222
  22.0451121 106.7731190  36.1642337  21.9446902 107.8536987  35.1091337
 114.8951340  84.8591042  54.5365238 114.3043995  84.3219376  54.0085888
 114.9204540  84.4216633  55.3875446   0.1091897  10.6693702  51.4543915
   0.6954371  10.1989226  50.8617449  -0.3814281   9.9805122  51.9027281
  25.3009753  65.6250477  47.2518110  26.2227778  65.6259108  46.9939041
  24.8236899  65.4827547  46.4343834   7.5062691 104.9903291  91.4930382
   6.9726788 104.8639291  92.2775948   7.4260937 105.9237331  91.2966701
  93.9827347  57.7936506  43.7740803  94.0432167  56.9993877  44.3048525
  93.1147289  58.1467152  43.9693880 115.4463577  60.4708767  41.9656944
 114.6572399  60.3815556  41.4313364 115.1220894  60.7131767  42.8330898
  19.5760684  63.6187696  68.5319185  18.9590316  63.9079046  67.8596830
  20.4308276  63.9084291  68.2129860   3.6730437  73.0049944  63.8355923
   4.4354777  73.0373049  64.4134235   3.0607180  72.4183512  64.2795849
  69.4023180  88.0789185  88.1717014  70.3363037  88.1493950  87.9743958
  69.3058300  88.4982967  89.0267181  93.0895233  83.3100414  19.5161474
  92.4609947  83.7329483  18.9310467  92.8733349  82.3788643  19.4671690
  92.4222565  67.8436852  28.8627768  92.2128105  67.9012918  27.9305506
  93.1838322  67.2651482  28.9018512  82.6250172  84.4500828  45.4010820
  82.5306129  85.1318073  44.7358274  81.7986393  84.4703102  45.8837032
  85.5718803  88.8018227  75.1586723  85.9084702  88.2307053  74.4681978
  85.8288765  89.6829891  74.8871279  88.4074211  66.3260937  76.8930626
  88.9892960  67.0857048  76.9184399  87.5534439  66.6864252  76.6540384
  76.9238281  83.7687683  56.5972471  77.7691078  84.1575909  56.3724136
  76.7338943  83.1729794  55.8725452 101.5196991  55.7809114  94.7254562
 101.0482502  55.4418802  93.9645290 100.9314823  56.4373541  95.0987148
 102.7313137  72.3747253  42.3640919 102.6696968  71.7411852  41.6492081
 103.2548141  73.0910492  42.0048523  -0.1601453 102.7644730  93.7149334
   0.6732898 103.1639099  93.4657764  -0.0621743 101.8411064  93.4824944
 114.3326950 110.5866814  67.0002413 114.6824837 109.7018909  66.8952656
 115.1035023 111.1317635  67.1582937   7.3783831  89.2726803  67.6026678
   7.9749827  88.8771343  68.2381630   7.6485972  90.1899147  67.5591421
 115.1183224  98.3669949  65.7915306 114.8214817  97.5042534  65.5020428
 115.1354694  98.3063412  66.7466497  93.3823967 101.5767670  43.1062365
  93.0313969 101.3996601  43.9789724  92.8582859 101.0292339  42.5216436
  11.0398536  96.8344021  63.0157566  11.9776110  96.7674637  63.1956625
  10.6347899  96.2143040  63.6220837 115.9764004  76.8011761  51.4503860
 116.2299442  77.5482368  51.9924593 115.4154587  76.2727261  52.0181131
  93.2029724  46.7211485  90.4192543  94.0371418  47.1841574  90.4968548
  92.9264641  46.8755531  89.5159626  22.8835076  85.6408615  61.1320782
  23.3948200  85.9349151  61.8859529  22.3134201  86.3815684  60.9257126
  77.5408316   0.3219957  28.1197786  78.4312201  -0.0071305  27.9968333
  77.4240828   0.9642465  27.4196959  29.5918053 102.4480153  67.9533577
  30.2684277 103.1228418  68.0083799  29.8873204 101.8692930  67.2505188
  87.6840496   3.2728013  44.0122271  87.0354271   3.3493587  44.7119856
  87.2376728   2.7781898  43.3249569  76.3110590  23.6009002  25.6089592
  75.6750774  23.5445189  26.3221097  77.1584845  23.6699319  26.0486650
   1.5498179  88.2503600  60.6684113   0.8326834  88.7390942  60.2645636
   1.2103384  87.3602576  60.7617283  65.5222654   7.5129157  77.7981949
  64.6104240   7.7998090  77.8478813  65.6274366   7.2039092  76.8983698
  27.2097128 102.2490914  59.6396542  27.0267170 102.2706998  58.7003565
  27.6072090 101.3908071  59.7865438 101.1958122  26.9418168  48.4188223
 100.4281712  27.4465108  48.6875963 100.8979893  26.0321403  48.4233809
  86.6270733   1.6404775  41.9134808  86.1971855   0.9263572  42.3840714
  87.1872425   1.2021758  41.2729025  54.5073891  42.8915691  20.3281379
  54.6933270  43.4252310  19.5555663  54.8232031  42.0179224  20.0974178
  89.9138546   7.4267572  10.1366389  89.9278259   6.4759833  10.2464855
  90.3897858   7.7626336  10.8961821 107.5419235   3.0653656  23.8790917
 108.0530834   3.3900094  23.1377745 108.1963730   2.8325650  24.5376682
  39.9312371 106.7786114  35.6383133  39.6694725 105.8719356  35.7984757
  40.7185858 106.7087940  35.0984621  47.2869223  86.6494222  50.6593418
  46.3358992  86.7571897  50.6459475  47.5197905  86.6923542  51.5867901
 101.0596561  13.2656300   4.1184825 100.2461243  12.7725828   4.2247945
 101.1091995  13.8172138   4.8992085  80.6385040  33.1733060  40.8859062
  81.0922241  33.1680679  41.7287302  81.2136078  33.6741400  40.3074121
  97.0182228  41.9716072  51.6547108  97.7028656  41.3411188  51.4311504
  97.4709034  42.8142500  51.6901112  76.1308783  83.8406176  59.3175316
  76.4035147  83.3874364  58.5197067  76.1395853  83.1625028  59.9930429
  43.7182570   5.1834351  26.3103914  44.4771385   5.6920427  26.5961385
  43.9195824   4.9399108  25.4068470  67.7459353 109.5155228  79.9642992
  67.9189509 108.9969565  80.7500362  67.9772585 108.9355374  79.2388058
 112.3257732  24.7044563  66.5106106 113.0945873  25.2205420  66.2680960
 112.3426342  23.9552641  65.9150743  48.7174147 100.4461629  75.6847668
  48.0257624  99.7845883  75.6974459  48.2628744 101.2711723  75.8550167
  66.3524662  65.7574131   3.7306950  66.7589222  66.3375010   4.3745300
  65.7531678  65.2141108   4.2424652  91.6201115   4.2525274  69.6535254
  92.4105549   3.7274310  69.7788668  91.7809105   5.0511473  70.1561022
  94.1392231  25.4705238  44.0427065  93.4304523  25.6894112  43.4377527
  93.7269402  24.9138331  44.7032785  78.4471464  37.9751658  52.2670698
  78.1621122  37.0617867  52.2939920  79.3789530  37.9290724  52.0529604
  80.2912140  24.2394972  63.2183743  80.3449726  23.3054209  63.0162811
  79.4376421  24.3449020  63.6385393  64.5232725  33.6530089  11.5910852
  63.8270187  34.1219997  11.1311781  64.3179512  33.7690783  12.5187719
  69.6192312   4.9908179  50.9095526  69.8499250   4.8801416  49.9871874
  69.0192938   4.2683157  51.0947514 103.2528305   6.5964717  39.1468048
 102.3179913   6.3909972  39.1380453 103.4376717   6.9090551  38.2611632
  50.9613055  90.7939358  46.1397791  51.6370886  91.4478774  46.3183880
  50.8872908  90.7804651  45.1855373  27.3667769   8.9265299  48.2899809
  27.4096732   9.5267791  47.5456095  26.4326052   8.8541102  48.4857416
  97.9945469   9.1919827  14.6549404  97.1487617   8.8322067  14.3876719
  97.8892708   9.3845856  15.5866325 101.4195728  -0.1512389  35.6095743
 101.0837746   0.1972025  34.7837067 100.8320522   0.2046291  36.2762094
  45.6748598  98.0213840  31.2511611  45.1719874  98.7858660  31.5320897
  45.9268397  98.2187469  30.3490615  67.3782206  30.2471995  29.1457629
  68.0798721  30.4207182  29.7733021  67.2051668  31.0962844  28.7391472
  83.5944462  35.2122378  23.1405592  83.1870937  35.8885241  22.5993252
  84.4926071  35.1535654  22.8148460  63.6561823  10.3130841  72.0989466
  64.4076061  10.4297125  71.5175772  63.5373211  11.1686921  72.5113058
  93.5255718   8.7098920  48.7949562  93.0988789   7.8766966  48.9948273
  94.2573738   8.7578481  49.4101048  72.8539228  35.0384259   5.2431411
  72.6108217  35.9034586   4.9132156  72.6355934  35.0673199   6.1746609
  92.7074545 105.9785534  28.7646055  93.5472029 105.9739728  28.3052373
  92.3176592 106.8241588  28.5426903  70.5118847   6.7586964  80.2826977
  70.2010298   6.0665441  79.6991539  69.8669481   6.7836177  80.9895706
  61.4813536  84.5691175  57.6503181  60.6063669  84.1896577  57.5688982
  61.3284605  85.4557533  57.9770184  91.6366005  65.7835197  25.8654928
  91.1897564  65.9124756  25.0288725  91.9385242  66.6574907  26.1129761
  60.2759665 109.1159668  19.6815503  60.2982252 108.2881088  19.2015636
  61.1869829 109.4093875  19.6953464  85.2606773   0.4006719  47.9866219
  85.1074219   0.9346953  47.2071600  84.8751450  -0.4493158  47.7742100
  85.2426529  21.9908452  46.6415739  85.8748245  22.2896147  45.9878683
  84.6900368  21.3658905  46.1722422  50.0384808  26.6008210  16.6438663
  50.5971193  26.9702196  17.3277509  49.2331219  26.3551998  17.0991707
  24.1995781  70.8232064  10.2570939  24.5662754  71.5241761  10.7959855
  24.9508637  70.2725215  10.0367546  20.1626318  95.9482272  47.1203041
  20.5759543  96.8111296  47.0921230  19.7974652  95.8862765  48.0029392
  73.4446573   0.5538033  51.5277243  74.3565941   0.8088689  51.3879108
  73.3700943   0.4409575  52.4753189  64.4825840   2.7358201  16.9389880
  64.3664885   2.7108124  15.9891832  64.5011187   3.6684799  17.1535420
  45.2469462  94.5771141  33.2504725  45.8513659  95.3143389  33.3365726
  44.7973841  94.7317345  32.4196768  55.2280157 106.7904166  11.6728914
  54.8227804 107.4999065  11.1742520  55.5492037 107.2112216  12.4703825
  73.9711142  20.1711082  38.2094526  74.9060011  20.3422856  38.0957890
  73.8802528  19.2297852  38.0615139  81.1742496   0.6100624  40.2449179
  80.2957153   0.8299074  39.9349475  81.2420559   1.0401291  41.0973740
  69.1768122  20.6951451  40.3209686  69.6108675  20.2735591  39.5792866
  68.2727909  20.8178306  40.0312805  91.0159206   5.8952379  22.6532912
  91.2290573   5.2690762  23.3451891  90.1521015   5.6240493  22.3426223
  70.0230503  11.7873645  50.8554840  70.8738899  11.5529656  50.4848528
  69.7087479  10.9802651  51.2629557  78.0189371  22.4722219  43.5204458
  78.5620785  21.8496609  44.0038157  77.3617458  21.9291854  43.0851984
  42.5444334 103.6744238  53.7395000  42.0968455 103.3627672  54.5261192
  43.3931177 103.2320465  53.7556887  51.6254061 111.7302696  16.2403691
  51.2469786 111.5448260  15.3809297  51.3564890 110.9905800  16.7851388
  90.2224350  24.4205093  32.9532051  90.4490852  25.2141070  33.4380364
  89.8823261  24.7394681  32.1172476  65.1997107 104.1258211  17.6994038
  65.2588290 103.4431929  18.3678019  65.6836909 103.7726505  16.9529021
  40.2373713  89.9620004  53.8608646  39.3359392  89.6401949  53.8510227
  40.3722447  90.2691908  54.7573423 103.9105892   3.7383336  14.1778362
 103.1205463   4.0997240  14.5796669 104.5408726   3.6831564  14.8961198
  67.2006607  35.0224352  30.6896424  68.0573463  35.4492688  30.7013321
  66.5862465  35.7115722  30.9422660  64.7192001  34.2435074  58.3674669
  65.0661469  33.6014342  58.9868212  63.8305283  33.9405847  58.1810808
  87.2020531  18.6195898  55.0186825  87.1382904  19.0979123  54.1920185
  86.2986469  18.5551596  55.3284216 115.5259800   5.1388562  83.1126404
 114.6273327   4.8169428  83.0416489 115.7325935   5.4672366  82.2375965
  86.1782455  23.1792021  51.8148088  86.3424492  22.9649663  50.8964539
  85.3890228  23.7205338  51.7970467  48.5985899  39.6719599  76.3311815
  49.5327950  39.8289394  76.4684868  48.2198811  40.5461740  76.2386703
  43.3048170  98.2202871  22.6156235  42.8341978  98.9579983  22.2276330
  43.9733332  98.6262221  23.1674647  89.0560055  21.1870193  65.2992725
  89.3510628  20.9119534  66.1673212  89.8524284  21.4824343  64.8580599
  79.4225311   6.7116189  14.3934131  79.8527908   7.4621183  13.9837086
  78.6658430   6.5348250  13.8344836  97.8177547  20.6846881  57.9489660
  97.4297523  20.1386714  57.2651911  98.1178284  21.4682460  57.4882841
  61.5522307 103.8342662  54.0579939  61.8254774 103.3533038  53.2768154
  60.8749121 103.2850290  54.4527149  19.4153374  88.6028762  31.0831881
  19.1909569  87.8751011  31.6630411  20.3596323  88.5205693  30.9499145
  52.1079445  13.6258841  58.6337137  52.1514416  12.7187705  58.3312464
  51.7204332  13.5688150  59.5071030  48.9136362  27.5627756  68.3135080
  48.1398964  27.7030849  68.8592863  49.0862703  28.4173989  67.9184818
  83.3627892  34.0477633  20.0887394  84.0539265  33.5755754  20.5530715
  83.8287735  34.6958590  19.5604706 115.5973339  15.9355855  53.8397026
 115.8152008  15.5117154  53.0095768 115.4468346  16.8521380  53.6083746
  68.6816931  13.2361424  26.6634297  69.1293049  13.2135272  25.8176398
  67.7684498  13.0376565  26.4564872 101.8850231  39.1568422  53.1897926
 101.5576077  38.8881969  52.3313904 101.1780071  39.6842933  53.5614777
   4.4083075  15.7476163  52.7502680   4.4670729  15.4504192  53.6582613
   3.5705142  16.2081313  52.7027321  75.9594297   4.1197601  31.6994786
  76.2167740   4.3813205  32.5835562  75.6637669   4.9309534  31.2862229
  54.5882940  28.2119870  47.8009510  54.3026447  27.3845148  47.4137497
  55.3933144  27.9918218  48.2696724  71.8319798  26.1992335  35.1353312
  71.1873055  25.7776260  34.5671082  72.2794247  26.8256044  34.5664001
  90.3658295  28.8544941  56.8897390  89.7888756  28.9529252  56.1323357
  90.5515671  27.9163074  56.9290209  25.4086547  49.1402102  47.1872854
  25.6357150  49.4249058  48.0725098  24.6307711  48.5946226  47.3032951
  95.0896740   1.4381792  16.4478374  95.2200508   1.0485127  15.5833173
  95.9511566   1.3942462  16.8627441  65.9799767  18.3893847   1.7161395
  65.7924318  19.1320157   1.1420669  66.2955952  18.7874937   2.5273886
  73.8865423  18.3392823  54.5353842  73.4653282  18.4936035  53.6898041
  73.2493305  17.8238332  55.0298595  49.5876789   8.6547399  24.4473624
  49.8903084   9.0681583  25.2558994  49.0417910   7.9253751  24.7410703
  65.6696129  21.1368775  45.4368019  65.7005215  21.8154359  44.7623873
  64.8915863  21.3475561  45.9530592  31.7175835 107.1701081  43.9869976
  31.9503468 107.4842734  44.8606968  32.5575417 107.0504669  43.5438395
  18.3219450  94.4209273  22.8969383  18.4684914  94.9660177  23.6700058
  18.8387745  94.8385460  22.2079444  22.4340933 106.4601256  16.8974674
  22.9224652 105.7217760  16.5333772  23.0306929 107.2044284  16.8180072
  92.2893524   8.4755677  19.2147267  91.4802837   8.4552282  19.7258294
  92.3621178   9.3825209  18.9174509  62.1154898  94.3570967  25.8619499
  62.5076025  95.2165778  26.0161352  62.5979918  94.0043564  25.1142859
  89.0810507 110.7537034  95.8510303  88.5659045 111.0140708  96.6146183
  89.9049586 110.4314592  96.2165070  64.8480797  25.5218339  16.1706913
  65.5594969  25.0206542  16.5693605  64.3972778  25.9281778  16.9108927
   6.7702632  16.6065848  38.2571554   7.3239474  15.8996451  38.5886645
   6.8937449  16.5826297  37.3082566  84.3254566  28.5739589  15.9438348
  85.0893021  28.0697536  15.6635702  84.5357704  29.4777727  15.7090497
  81.7247486  13.3107007  48.6716652  81.5021801  13.4036863  49.5979738
  80.8891869  13.1285119  48.2416916 103.8236713   6.3594967  49.5962858
 104.6856785   5.9749073  49.4373226 103.2614136   5.9728414  48.9250183
 100.2836800  33.2041621  53.2801533  99.8133659  32.8796482  54.0480900
 101.1358738  33.4780383  53.6192608 108.5595703  19.8274970  33.9046621
 108.5343838  19.2351508  34.6561432 107.8482819  20.4477453  34.0646458
  81.7605495  18.3251822  51.8095636  82.1733665  19.0918946  51.4121103
  82.4034309  18.0091226  52.4444151  90.7960796  13.4918320  62.5427246
  90.3032494  13.5148942  61.7224741  91.6685104  13.8072670  62.3069191
  21.2815970 101.1191256  55.5737877  22.1126812 100.7512302  55.8740950
  21.3660448 101.1553283  54.6210098  41.0502833  96.7890627  87.9057407
  41.4525336  96.8450065  87.0389748  40.4259842  96.0670395  87.8339195
  83.6996555  16.6251528  46.1305475  83.8718414  15.9100068  46.7430449
  84.5484066  17.0529187  46.0171032  45.5745935   8.4702873  51.3858271
  45.3404570   7.7063417  51.9128942  45.1154613   8.3387846  50.5562878
  82.9940224  26.9867802  29.8970485  83.5513020  26.2911987  30.2461100
  82.1504498  26.5622139  29.7409725  90.1889801  31.1835098  47.5421572
  90.0561333  30.2355742  47.5431633  89.3062687  31.5491319  47.6001453
  96.9202137   8.3781248  34.5734525  97.3182774   9.2069823  34.8394895
  96.5362453   8.5611552  33.7159562  65.8948040  47.0929384  20.3357482
  65.4482746  46.3681269  20.7733488  65.7868528  46.9120169  19.4020212
  30.4156070  15.8681118  11.0520601  30.2460341  15.0197494  10.6424797
  29.5524554  16.2752306  11.1259055 101.9123268  26.5586472  70.4960012
 102.3710728  26.2377477  69.7195911 101.0929680  26.0640478  70.5115891
  34.6150082 106.5543119  46.9714689  34.1243475 105.7991905  46.6470098
  34.8384159 106.3251383  47.8735828  44.7947615  94.3948359  60.9015608
  44.6174353  95.2046449  60.4230261  45.4503554  94.6409185  61.5541458
 101.3772488   9.8585230  70.5688810 101.0456753  10.1984334  69.7377634
 100.8584404  10.3084242  71.2357092  87.5608063  52.8055954  53.3407545
  87.9453182  52.1095324  53.8735628  86.9399643  53.2398081  53.9257669
  77.1852922   3.5777313  51.9108200  77.1133184   4.0799427  51.0991335
  77.4747181   4.2161745  52.5626278  95.8373451   7.2934830  31.4683700
  96.2975597   7.4799955  30.6500483  95.7844543   8.1401479  31.9117570
 101.7123508  18.2037759  24.5512795 101.6399002  18.9642847  23.9745569
 102.4250984  17.6861668  24.1767144 106.1029243  32.3065066  36.6058564
 105.2066994  32.0358729  36.8052387 106.1485004  33.2172155  36.8970037
  52.4833601  98.5804326  63.1641579  51.9833487  98.4319909  62.3615503
  51.8200701  98.7676854  63.8283920 100.4077721   9.2693770  52.4790859
  99.7337246   8.6496985  52.1999931 101.1675262   9.0571141  51.9369125
  93.1054783  14.3180323  32.0682383  93.4234810  15.0205576  31.5011716
  92.4877834  13.8310254  31.5227938 114.8056793  43.8662052  52.6210070
 113.9913654  43.3808756  52.4884367 114.8298931  44.0409803  53.5618067
 107.5265694  18.8076532  54.5011854 108.2384872  18.4229922  53.9898682
 107.7781105  18.6578059  55.4125071  81.0916042  15.4180849  21.8410993
  81.2906265  14.4910204  21.7100596  80.8716583  15.7416451  20.9675050
  42.8771305   1.0141850   5.4721546  42.9719925   0.1603461   5.0500268
  43.7142038   1.1573468   5.9137988  93.0297661  29.1656184  46.9217443
  93.8146877  29.0868187  46.3795948  92.3127842  28.9022541  46.3448524
  93.9542007  17.9944909  42.9170370  94.3292427  18.6295891  43.5271358
  94.7029972  17.4786901  42.6178932  27.0810925  55.1674307  81.9802001
  26.6937386  55.3128936  81.1170521  27.0418870  56.0230179  82.4075940
  50.0518244 104.8685671  71.0203791  49.4579523 105.3393729  70.4356718
  50.8343714 104.7122354  70.4917812  98.1593418  14.4453132  44.4612932
  98.6680984  15.2349293  44.2771626  98.0411816  14.0316975  43.6061954
  77.7484941  12.9811382  58.5438108  77.1361828  12.6402628  57.8918076
  77.8280544  12.2779560  59.1883516  80.5790234  26.1782289  36.1167812
  79.9365377  26.7958117  35.7674575  80.2349377  25.9352112  36.9763041
  78.0505961 107.8981350  56.7263174  77.7693957 107.6525466  57.6077080
  78.4311026 107.0977641  56.3645935  74.5825785 108.1169225  56.3794279
  73.8614577 108.4663404  55.8558607  74.2482012 108.1146322  57.2763205
  10.5860476   2.4574785  47.3716497   9.7625689   2.1892565  46.9640160
  10.3227572   3.0484068  48.0771351  93.9971542   3.0755848  64.8505402
  93.1937981   3.2212225  64.3508863  93.7715435   3.3283252  65.7457829
  84.7509956  38.5571098  17.3053193  83.9501476  38.9269161  17.6769543
  85.1561356  38.0840635  18.0321801  60.0564497 109.9726763  53.6126947
  60.6468600 109.9281662  52.8605890  59.2716997 109.5035669  53.3292532
 103.2530785   9.5592487  45.8019447 103.4942055   9.5383918  44.8758507
 102.3998451   9.9928284  45.8175802  14.3344931  23.4859991  61.2308216
  14.0966754  23.5777736  60.3081894  14.4880156  24.3825483  61.5289116
  26.1044520 102.1268810  52.8907251  26.9951504 102.2394307  52.5587320
  25.6391352 101.6822810  52.1821737  18.6929278  29.8183966  25.1107168
  18.8430648  30.6269622  25.6005239  17.9030280  29.9917412  24.5986199
 112.2845459  17.6174760  29.4692254 111.5345383  18.1614220  29.2287016
 113.0158901  17.9849219  28.9728904  89.1253757  17.6391435  15.2397907
  88.3511066  17.1762788  14.9196422  89.6057129  17.8790581  14.4473577
  90.7001877  32.0931935  33.4599829  90.3490257  31.3824105  32.9236054
  91.5723038  31.7923045  33.7151623  17.2339778   7.7388346  36.7318845
  17.0489840   6.8699205  37.0882487  18.1572585   7.8892994  36.9347215
  89.2887878  23.3204174  46.6878414  89.3209171  23.6954999  45.8077812
  88.6035442  23.8171124  47.1350241 110.8844662  29.2783451  56.2702703
 111.5493965  28.7679410  56.7324352 110.4964828  29.8340893  56.9461727
  86.0570908  28.0913401  51.8807077  85.8954048  28.7759876  52.5298214
  86.9096851  27.7291918  52.1218681   7.2897105  23.7929344  33.0314112
   6.8203978  23.4536076  32.2692895   8.1290774  24.0923333  32.6820445
  10.2178435   3.1667766  34.0385461  10.7446151   3.9506418  33.8826752
  10.7947783   2.4399260  33.8038921  81.8529320  21.7080712  75.6042480
  80.9232903  21.6010308  75.4028749  82.2934055  21.6132212  74.7597265
 103.6618996  31.7056036  39.5021939 104.4524288  32.2159100  39.6779418
 103.2104111  31.6654110  40.3452635  78.7305372  91.6459305  42.6630878
  79.0361231  92.1439452  41.9049120  77.9363554  92.1004815  42.9439497
  91.1056709  25.5804563  40.3516674  91.1610985  24.8123598  39.7831726
  91.9957161  25.6972289  40.6839514  93.7718868  27.1896863  71.5500879
  94.0024853  27.0354438  72.4662018  94.3248844  27.9244041  71.2843418
  96.6861916  10.1300287  77.6923561  95.7577610  10.3605223  77.6587105
  97.1159840  10.7865620  77.1442032  73.8293409  34.1478014  45.3146267
  73.9837265  33.3085966  44.8808908  73.5685062  33.9127636  46.2051105
  94.9758053  27.0683241  64.7294950  94.0668583  26.7688322  64.7108793
  95.3602219  26.7170525  63.9263344  30.5128687  94.4689782  72.2239208
  31.1931818  93.9159531  71.8397713  29.6916931  94.0963156  71.9029427
  84.7360706   3.5511374  64.7998142  84.2984486   4.0987581  64.1480303
  85.6672287   3.7418619  64.6865988  10.6535487   0.1900264  24.9899697
   9.9477916  -0.4528650  25.0594616  10.2847247   0.9916250  25.3609705
 107.9411030  18.8207746  20.6933761 107.4737263  19.6561122  20.6922698
 107.6804256  18.3993888  19.8744047   4.8093943  34.1941619  43.1169176
   3.8583331  34.2670155  43.0369282   4.9601989  34.0398192  44.0494776
  95.1088905  53.6193752  20.6733274  95.6949902  52.9535294  20.3136587
  95.2332020  53.5614014  21.6206503  47.5461626  12.9301631  55.7515430
  48.0528879  12.3337138  55.2004480  46.6850185  12.5181556  55.8216619
  81.4068890  16.7049301  48.6882973  81.7240429  15.8020842  48.6656618
  80.5937290  16.6605961  49.1913271  67.3113346  17.0772505  80.7398224
  67.9787683  16.6736138  81.2946606  67.3195934  18.0014122  80.9889984
  95.9382534   6.0336715   9.4014364  96.4723110   6.8052590   9.5902836
  96.4274597   5.3046119   9.7827226  41.3155079  33.0475616  61.0939598
  40.6652260  32.3593163  61.2342739  40.8083868  33.7954187  60.7780933
 102.9671383  55.8355474  44.3784046 102.1657467  55.6112385  43.9054537
 102.9374599  56.7886829  44.4613934  78.2995319  25.6289792   9.7959286
  77.5024509  26.0183406  10.1555085  78.8655710  25.4966235  10.5563986
  67.8405588 109.0838036  32.9288268  68.5809057 109.6076539  32.6227307
  67.2161787 109.1048352  32.2036123  79.3672943  15.6821001   8.6102772
  79.7698784  15.5880451   7.7469629  78.4461212  15.8659434   8.4262419
  27.1400517  99.7852011  30.1759171  27.2178763  99.3903549  31.0444045
  27.8451222  99.3851931  29.6668983 114.5524883   3.0426425  28.1227660
 114.3080235   3.1759664  27.2069645 114.4284725   3.8995180  28.5309553
 117.4056053  43.2453203  76.1733246 116.9650745  42.4036169  76.0563183
 117.0744991  43.5748577  77.0087910 103.0784988  54.2474508  34.5060229
 102.1820354  54.1838074  34.1765881 103.1731606  53.4947634  35.0897503
  68.3308333  88.3730383  62.4019051  68.0813044  88.9106889  61.6503096
  67.9518240  87.5135393  62.2179317  54.8457545 105.4932166  31.5026236
  54.7891348 104.7143812  30.9490490  54.5309847 106.2058015  30.9464097
  83.7360876  93.9239402  30.9887004  84.5697993  94.0102274  31.4509845
  83.0728167  94.0990562  31.6562653  41.6136854  94.1646833  44.7895670
  41.3051146  93.7635620  43.9770889  41.2387293  93.6211009  45.4825068
  69.5723486  27.6369572  42.6821470  69.3574047  28.5523748  42.8611565
  68.8022184  27.2943950  42.2285080  72.4826908  28.1034732  18.3304501
  72.4636412  27.6760387  17.4741971  73.4133577  28.2336426  18.5125148
  96.7081928  26.7717981   4.4201669  97.2604275  26.6603112   3.6463165
  97.3253059  26.9367599   5.1330411 118.0753422  16.5650582  43.7035465
 117.4733925  17.3086607  43.7342072 118.0443001  16.2691355  42.7937698
 103.0858898   1.1241972  49.0993738 102.6354694   1.5407220  48.3646202
 102.7152157   0.2425644  49.1388369 104.3244553  30.5715871  48.1270361
 104.2792988  29.8750234  48.7820101 104.9108315  30.2286053  47.4526739
 109.7848606  25.0704741  69.7837925 110.1405144  24.4929767  69.1083336
 110.4158974  25.0166082  70.5015135  36.9425886  10.1641463  87.8213736
  37.7709740   9.8228215  88.1582877  37.1777743  10.5959938  87.0001378
  93.4365368  25.3349185  52.1944761  93.6328316  25.5868387  53.0968237
  93.6231899  26.1205316  51.6804695   4.0212970   4.6951941  42.0073843
   4.1322093   5.4261512  42.6153564   3.3658366   5.0020599  41.3809299
  84.5956707   1.0520194  58.1672525  84.2174149   1.9268510  58.0787992
  84.8820972   0.8243692  57.2827387 111.7320728   9.9531263   8.3056819
 112.6265240  10.1863694   8.0571043 111.7089844   8.9979094   8.2485944
  20.9764914  27.8257942  37.2490358  21.0993151  27.8262520  36.2997484
  21.6920237  28.3665824  37.5833869  64.3061638  28.2558131  32.1304321
  63.6625767  28.5876656  32.7564526  65.1523685  28.5046101  32.5022745
  70.3435534  93.1383259  55.1146460  70.1923483  93.7650592  55.8221626
  71.0899752  93.4956581  54.6335983 104.2285442  14.7846329  35.9578681
 105.0208759  14.7137606  36.4902329 104.4352627  15.4573953  35.3091097
  97.4486351  38.8407063  31.0075188  97.5472355  39.4086623  31.7716765
  97.3976803  37.9567122  31.3710999  18.0788266  92.4043109  11.4177010
  18.6404644  93.1053473  11.7483685  17.2906815  92.4535515  11.9586536
  86.9265747   4.3208501  35.6785846  86.8464184   3.4190458  35.9893179
  86.5166092   4.3134847  34.8136520  40.1792622   6.2814945  75.7981300
  40.5587053   5.4758489  75.4471445  39.3193054   6.3422495  75.3821850
 106.9257355  24.1191959  17.6936674 106.8666077  23.7511230  16.8120456
 107.7182674  23.7298036  18.0631304 107.0079327  26.8590879  42.0033932
 106.4013577  27.1176767  41.3095427 107.8596020  27.1827435  41.7098951
  87.6042461  54.2273760  17.5619709  86.8008327  53.7695360  17.8092301
  87.7014732  54.0520334  16.6260052  39.4103401 110.8107545  31.9341397
  40.2497214 110.7120151  31.4847898  39.2872113 109.9817290  32.3965120
  95.2570248  39.2650962  49.5039511  95.5248260  38.6029601  48.8667011
  94.5225716  38.8656783  49.9700832  94.1755962  22.1578932   8.0615467
  93.4497643  22.0490789   7.4470907  94.1882896  23.0955386   8.2536197
 102.0084476  48.9617634  17.3200250 102.4824715  48.1335783  17.3951161
 101.8187237  49.2119789  18.2242537 116.6445541  30.4224873  52.2251511
 116.6549015  30.9191060  51.4069271 116.7910385  31.0793114  52.9058552
  60.4714316 103.3921970  60.6610394  60.8565348 104.1373474  61.1222076
  60.9980505 102.6418604  60.9365273  60.8562899  16.3897252  55.6944799
  60.8888912  16.4578545  54.7402668  59.9391508  16.1974263  55.8896828
 102.2195053  13.5959506  37.0367241 102.6943684  13.7819636  37.8467441
 102.7226543  14.0429366  36.3560820  63.1802767 109.1772395  36.9026518
  63.8875407 108.7422005  36.4264822  62.9561156 109.9334365  36.3602972
 114.6468163  23.4358525   4.3338677 113.9624119  23.7584209   3.7475488
 114.9066925  22.5944829   3.9586458 100.2318668   1.2322894  45.8195066
  99.9031258   2.0342259  45.4132271  99.8788452   1.2523331  46.7090034
  12.3396258   9.1909480  90.2656555  12.2185473   9.5544720  91.1428261
  11.5567927   9.4597268  89.7848511  81.7208672   4.2614123  37.2951508
  81.5187168   4.8729542  36.5870667  81.4246750   3.4114686  36.9694281
 100.0979710  34.3805218  31.2487459 101.0204601  34.6108437  31.3592172
  99.8311520  34.0435624  32.1040225  95.8095646  38.1763268  39.9647570
  95.5742359  39.0951395  39.8357964  96.1563587  37.8967190  39.1175318
  69.7413921  28.3708143  35.1424384  70.3458261  27.9867554  35.7775688
  68.9115047  27.9201674  35.2987480   5.6942324  36.3169146  60.3749466
   6.0118632  36.8145633  59.6214962   5.1201205  35.6506681  59.9971485
  94.3075180  22.0656180  69.9668884  94.8846436  22.7483058  70.3090763
  93.6149216  22.5438213  69.5109749 105.5568218   9.1678858  26.1530089
 106.1710167   9.8613876  26.3939548 105.6557941   9.0789777  25.2050996
 116.7555046  43.2617378  32.5776982 117.0011806  43.7201214  33.3812904
 117.4813843  43.4272337  31.9760847 109.3771172  65.6536674  54.0397167
 109.2890644  66.1306000  54.8649502 109.1044140  66.2810659  53.3702087
  90.0264263  15.5077505  19.6851122  89.0933037  15.7207489  19.6974075
  90.3379250  15.7456493  20.5583811  60.0542563 107.2116305  15.0613022
  60.5747050 107.9378207  14.7177613  60.6460589 106.7544563  15.6587934
  72.6451302  17.4342513  32.8884244  72.0066595  17.4308753  33.6015701
  73.0914688  18.2770264  32.9705405  67.3692053  94.0410359  49.3688536
  67.9715269  93.9073450  50.1006746  66.5042704  94.0884824  49.7761202
   2.8605513   5.5385792  12.3584282   2.2585540   5.0937033  11.7618382
   2.2999816   6.1129570  12.8800464  55.6416321  34.7339106  52.2702932
  54.7975540  34.7054291  52.7207899  55.8932686  33.8153291  52.1747923
  55.6787413  94.4673355  39.5103168  54.7307699  94.5347876  39.6245003
  56.0194128  95.2991111  39.8394442  77.2892618  31.4417481  14.9793410
  77.0720959  32.3739839  14.9822652  76.8571329  31.0927129  15.7588744
  96.8695545  26.2044811  39.8438263  96.4422131  26.6889119  39.1374731
  96.8420792  26.7995119  40.5931044  87.2020912  19.8650181  37.3469090
  87.7919579  19.6590686  38.0720782  86.9385815  19.0115917  37.0027280
  98.2587528  62.6249075  57.0193863  98.5144520  63.5087729  57.2832680
  99.0130329  62.2926235  56.5326738  63.4442186  37.4261284  28.9823294
  64.2591238  37.1112537  28.5911608  62.7993727  37.3603320  28.2780027
  92.3162556  32.1447825  50.0192356  91.6456127  31.7160940  49.4875383
  91.8513203  32.8516459  50.4669189 103.9098358  24.9253607  59.9419022
 103.7215710  23.9975429  60.0831175 104.6858120  25.0962448  60.4756498
  98.7876892   0.8122607  75.9017897  99.7365761   0.9231291  75.9613848
  98.4447384   1.2656850  76.6718721  88.8362980  18.4013927  49.4551802
  87.9619980  18.4180903  49.0658712  89.2625046  17.6437950  49.0544033
  59.1036909 101.2038047  57.5899744  59.4976919 101.0472329  58.4481573
  58.2547301 100.7636781  57.6322889  76.2961817  25.5706429  30.7950807
  75.3807068  25.3557301  30.9738255  76.6184330  25.9461713  31.6144490
  91.0388470  22.3690510  29.9853230  91.6112137  21.7245626  29.5690751
  90.2592278  22.3907995  29.4303966  65.1900578  -0.0753210  46.9043112
  65.7340193   0.4181603  47.5181627  65.6097221   0.0552514  46.0539770
 100.7305336  10.8346784  39.1752195 100.1714611  10.4663646  38.4911060
 100.3466797  11.6912234  39.3628883 100.9909058  14.7671366  45.5120182
 100.5105782  13.9392042  45.5188560 100.6414890  15.2405226  44.7570038
  59.3689966  25.2531409  42.3773909  58.9693737  25.9946871  42.8319645
  58.7976456  25.0970125  41.6254520  82.3362923  30.4093933  44.2991638
  83.0293179  30.8610439  43.8175392  82.7365398  30.1828146  45.1386261
 102.6765156  34.9758935  32.2363043 102.8152370  34.2208886  32.8081036
 103.2372189  35.6598496  32.6024222 104.6751404  55.3473282  49.9551249
 104.5420551  56.2470627  50.2534533 104.2965508  55.3279543  49.0761852
  97.4987984   4.7321180  63.4700537  97.3448372   4.3693179  62.5977564
  96.7475796   5.3040266  63.6276102  88.8663387  37.3959136  55.1191521
  87.9700184  37.4674249  55.4473686  88.7656307  37.2284865  54.1821051
  72.6479929 103.4356589  81.3245487  72.2192114 102.6935042  80.8984184
  73.5656946 103.3653076  81.0616779 116.5303230  24.3574309  24.6257257
 117.1870422  24.8840070  24.1700196 116.4846516  24.7380495  25.5028081
  21.1697327  66.8960299   6.9140789  21.8253266  67.4649240   7.3175404
  21.6247498  66.0649027   6.7783806  95.8285809   9.0767974  51.2394762
  96.4223576   9.8195839  51.1302614  95.0443459   9.4537133  51.6384077
  73.1066704   1.1542649  44.5761824  73.9165115   0.8773854  45.0048113
  72.8375530   1.9376820  45.0558329  93.1912231  43.1810808  56.1884451
  93.7261772  43.9508963  55.9949255  93.5294437  42.8582001  57.0236635
  89.3520737  43.6507750  34.5756125  88.5838795  43.0904627  34.4653821
  89.2118740  44.0867996  35.4161239  79.9640322   8.2724708  48.9613771
  80.1313782   8.6643946  48.1042767  80.5117702   7.4876297  48.9769268
  58.5295218 102.8835202  42.1017218  59.4483774 102.6258273  42.0273638
  58.5383719 103.6329390  42.6971388 104.8745233  83.9351433  73.4664753
 104.1194708  83.8335865  72.8869799 105.5364401  84.3644136  72.9244211
 104.5451832  19.3435609  36.8195033 103.9711094  19.2691314  37.5818229
 105.2964115  18.7891030  37.0303488  72.8916454  17.2539663  70.6300783
  72.8782177  18.0604827  70.1147318  73.6921978  17.3159826  71.1511421
 101.7937279  42.2068691  52.1742868 102.4027443  41.7108011  52.7213144
 101.4472294  42.8841782  52.7551603 101.0659695  35.8930016  66.3751411
 101.7278194  36.4243412  66.8177128 100.8020210  35.2456808  67.0290041
  91.9553757  38.5830665  76.6835642  91.7367744  37.8977251  77.3150301
  91.1920261  38.6307859  76.1080265  74.2050028  26.5452480  64.4014978
  73.2643270  26.5859413  64.5738411  74.5373583  25.9096646  65.0353765
  41.5093344 104.8859669  57.7762175  40.7900542 104.9438996  58.4051132
  41.9986075 105.6998665  57.8962851  93.1004906  19.2800987  58.3047390
  93.5227299  18.4763813  58.0014420  92.8402042  19.0885985  59.2057419
  39.2387217 109.4982704  53.3095741  39.0107840 109.1614829  54.1760921
  38.4850138 110.0297649  53.0533123  28.0280989 109.3284417  47.3982000
  28.6445111 109.6163648  46.7248726  27.3245543 108.8994278  46.9111633
  12.2911982  89.9495029  40.2771902  11.4206939  90.1307011  40.6316185
  12.3132949  88.9984989  40.1707935  58.6434572  99.7197361   6.1295009
  58.1916922 100.4169400   6.6049463  59.5027750  99.6627958   6.5473115
  86.5240479  26.8514013  18.1095672  85.6933784  26.3767099  18.1395721
  86.4613247  27.4890780  18.8206697 108.7623310  15.1070035  48.1259680
 109.3693161  14.9107051  48.8395929 108.7024593  14.2899704  47.6308870
  97.4771881  25.1009369  68.1079960  96.5217018  25.0778866  68.1605196
  97.6608086  25.5231524  67.2688007 113.0543518  41.5198803  51.9324780
 113.7036705  41.1186934  51.3548374 112.6716042  40.7840061  52.4102068
  16.7226271   7.5601852  60.4130554  17.6356940   7.2879863  60.3211451
  16.5582709   8.1098408  59.6468306 102.6568413  33.9233422  54.2079878
 103.5562229  33.7967348  53.9058208 102.5114155  34.8668790  54.1385317
  84.5366764  36.7035389  53.9286089  83.6688900  36.6625118  54.3304777
  84.4862461  37.4446106  53.3248711  88.4602833  36.6170526  66.7106247
  88.7184143  37.5307918  66.5894651  89.1703224  36.1128736  66.3132811
 105.4852581  43.9915848  75.8676052 104.8112679  43.3316422  76.0302258
 105.8448029  44.1851139  76.7333460  13.2898860   9.8322654  17.2186196
  13.4653239  10.4815888  16.5375662  13.9280848   9.1373837  17.0571351
   0.6854508 105.1278247  40.0395250   0.5466531 105.8904941  39.4780087
  -0.1242473 105.0515069  40.5443001  72.8016710  37.7760267  46.0926676
  71.9881392  38.2779193  46.1427402  72.6261425  37.1000195  45.4381180
  11.9414269  62.2243297  91.6120252  12.6312863  62.4085092  90.9745279
  11.5038907  61.4435702  91.2726047   1.9696097  11.0291815  33.0121112
   2.7443938  11.3047361  33.5020161   1.7463164  11.7866826  32.4712181
  40.6658095 111.2640698  27.9916716  41.0875052 111.1126180  28.8375235
  41.3371866 111.6955449  27.4631715   9.8962073  26.7560148  43.3766413
   9.0992408  27.1770334  43.6988688  10.0890212  27.2060037  42.5541067
  11.5087085  49.7924662  41.2989473  11.7811446  49.1340017  40.6598568
  10.5923514  49.9685621  41.0856152 114.0049362  12.3538220  54.5739174
 114.7088528  13.0001903  54.6281672 113.2888603  12.7364039  55.0809622
  31.6766804 105.9111882  52.3451853  31.3811463 105.6715698  53.2235193
  31.0161894 105.5394919  51.7605305  96.5571690  73.4654474  37.8168440
  96.9317055  72.9851007  38.5552359  97.1046257  74.2465496  37.7368045
  51.2166708  97.2008867  19.5562482  51.6022509  97.4576588  20.3938794
  51.2631529  96.2448187  19.5542264  93.5355186  16.1153531  85.2823734
  93.4368992  15.9504640  84.3446541  92.8026295  15.6501591  85.6857395
  85.6930828   9.5571995  38.9765239  85.9070683   9.9690795  39.8136592
  85.7384872   8.6175722  39.1533637   5.2375941   4.4910404  53.2205343
   5.2836661   5.4470092  53.2052851   6.1192946   4.2049208  52.9818535
  59.4633883  89.7807641  16.4734733  58.6537569  89.5079250  16.9050908
  59.9325960  88.9634724  16.3058138  88.4130859  12.1125734  65.8974552
  88.5341358  11.3296568  65.3602219  88.4558582  12.8388500  65.2754211
  15.5962597  67.0353490  83.3320406  15.6768643  66.4478617  82.5806478
  16.3606965  66.8381792  83.8733235  46.3113993 104.6849049  91.2965488
  45.5635565 104.8640431  91.8665123  45.9422320 104.1889955  90.5657768
   2.2506861   8.2084817  45.5585861   2.4290328   7.3333216  45.2143240
   2.7838759   8.7916279  45.0183296  92.6531219  58.5416651  63.1267166
  91.7014980  58.4385729  63.1318474  92.9886818  57.6803923  63.3753824
  85.9894085   2.8579411  87.8788853  86.0992718   3.1867602  86.9866753
  86.2662029   1.9428036  87.8326607  90.2734280  42.9584742  50.0179291
  90.7934952  42.9113007  49.2157221  90.1375484  43.8951826  50.1605463
 100.4156876  54.8079634  38.3544564 101.3048172  54.5256424  38.5688734
 100.5362988  55.5803061  37.8020263  37.6025074  79.3465633  76.5158415
  36.9473189  80.0125666  76.7241621  37.5702112  78.7393303  77.2550678
 117.3397923  17.7071393  66.6217947 117.7191925  18.5832179  66.5527248
 117.0851517  17.4851179  65.7261944  57.1005076 109.5661626  22.3869705
  56.7566889 108.9031402  22.9856563  57.8379744 109.9545301  22.8576517
  63.9412039  83.0067987  27.2794938  63.2128638  83.6153169  27.1551847
  64.6866053  83.4365315  26.8600368 103.6824036  25.5679250  68.5576439
 104.2828941  25.6034374  69.3022156 104.2465591  25.6629324  67.7902222
  72.4408960  17.3258650  25.6798339  73.0881500  17.1306443  25.0022030
  72.7196789  18.1668317  26.0421705 107.3266506  47.8545761  24.6089220
 107.6873493  47.0985889  25.0721836 107.6216888  47.7446795  23.7049818
  83.9698792  31.8149090  37.7565074  83.7616348  30.9852695  37.3268986
  84.6837711  32.1820259  37.2351503 112.4874783  33.6124277  73.2004833
 112.0077133  33.8224268  72.3992586 112.9613113  32.8073192  72.9918766
 112.4756241  58.5733080  10.7177377 111.8860149  58.7686396   9.9894267
 113.1067467  59.2929697  10.7146001  89.3212128   0.3308883  36.9336557
  90.2410698   0.4946373  36.7256308  89.1418076  -0.5329715  36.5624499
 104.3118858  32.7674270  44.0045023 104.3207550  33.1200314  44.8943472
 103.9454269  31.8882084  44.0989065  62.3241091  14.2705452  47.4963760
  63.0975723  14.7373223  47.1799803  62.0505714  14.7589493  48.2728243
  18.3698611  16.1508679  84.0393066  19.0920310  16.6065657  84.4717884
  18.0220847  15.5627084  84.7096443  98.4240818  37.2280145  46.0808229
  98.7894154  38.0948830  45.9038877  98.1509686  36.9035006  45.2227259
  96.5407944  14.6934974  84.9660492  96.3568115  15.6316960  85.0125599
  95.9058094  14.2951012  85.5612755  81.0274506  45.5247116  52.6725149
  81.5661621  45.7546711  53.4295797  81.1284637  46.2641954  52.0731878
 110.3964806  23.0481029  45.5558872 110.4722118  22.0939064  45.5587006
 109.5600319  23.2207108  45.1236963   8.7520842  72.0558691  35.9034443
   9.2403559  72.8756666  35.8275867   7.8365760  72.3109388  35.7893920
 104.8143959  47.8336143  63.6185646 105.7404613  47.5914478  63.6177492
 104.5002937  47.5762129  64.4853497   3.3627068 102.8440755  92.0158449
   4.0768467 102.2328752  92.1965864   2.6587998 102.2947210  91.6709626
 103.1412601  51.7584038  62.0439625 103.7366295  51.3766336  61.3989639
 103.5992813  52.5365925  62.3615742  14.4094710  47.0067930  53.4760284
  14.6875624  47.9185724  53.5629463  13.4951358  47.0607281  53.1979704
  52.7654076  40.2994299  49.3926477  53.5076952  39.8915625  49.8386049
  52.9972982  41.2266588  49.3406153  88.8111210  35.1055551  47.3890400
  89.6999073  34.9570870  47.7119207  88.3237267  35.4028296  48.1573486
 111.0481358  44.3249321  79.6399879 111.9617558  44.6098757  79.6212816
 110.6305981  44.9011230  80.2802181  94.3426132  44.6802616  49.8521805
  94.4583416  43.7651825  50.1080608  95.0766468  45.1381540  50.2617645
  94.4367981  38.1563234  45.4451323  93.5198402  38.3517027  45.2521324
  94.5274639  37.2222495  45.2566671 101.0417271  46.5103865  25.0045609
 101.9982910  46.5216017  25.0377154 100.8087158  45.5896902  25.1239514
  15.8149581  35.9927416  22.6303840  16.4734320  36.5889883  22.2738290
  15.7465033  35.2944636  21.9792652   8.7938933  61.0978270  28.3559251
   9.2591910  60.8810234  27.5480080   8.3487372  60.2866459  28.6009932
  67.4185675 108.1871502  10.2977514  66.7423552 108.8634862  10.2584279
  66.9367235 107.3757438  10.4580033  77.9771900  49.0326357  53.0480099
  78.6733913  49.0538979  53.7045860  77.2033834  48.7389565  53.5288525
  76.1767119 110.6791804  82.7296829  77.1279925 110.6291583  82.6358986
  75.9793776 110.1121394  83.4751701  86.8980408  74.4948292  76.9366264
  86.0607910  74.7290945  76.5361738  87.2055626  73.7448931  76.4274502
  77.8667212  18.1155348  46.0202503  78.4378910  18.8486421  46.2494946
  77.6413012  17.7157700  46.8602514  64.5938873  37.3778152  36.5182734
  63.7870598  37.8803205  36.4053631  64.9044895  37.2199655  35.6267333
  86.6675108   8.7096403  95.8753171  86.3035506   7.8246353  95.8522042
  86.2444418   9.1617440  95.1453534  12.7299170  57.9608631   5.6677258
  12.6988654  58.5432720   4.9087334  13.6315207  58.0256462   5.9826046
  91.3866425  75.1463461  63.1842422  91.4601326  74.5223618  63.9063692
  90.6336784  75.6908894  63.4139252 107.5356388  31.9327426  46.4838362
 106.9094181  31.2535810  46.2331963 106.9914913  32.6759028  46.7443180
   0.4093985  19.6877742  72.9313564  -0.4857583  19.3560731  72.8613615
   0.5895667  19.6943498  73.8714266  98.5793972  25.7841921  50.6984997
  99.1466141  26.5366292  50.5301666  98.3638763  25.8500957  51.6287899
 108.2722855   4.4596034  18.2867754 107.3496056   4.6600389  18.4439766
 108.7496662   5.1295364  18.7761891  97.0635033  61.8236160  32.4358058
  97.7682304  61.9239998  33.0757451  97.2906494  61.0295486  31.9519758
 108.4789085  49.6896172  42.2667742 108.5426426  50.3515577  41.5782928
 108.8295269  50.1203537  43.0463648 100.9746647  13.4020293   7.1143657
 100.2354145  12.8058887   6.9945139 101.7033672  12.8330994   7.3624498
 110.3734207  31.7276669  47.7926826 109.8457432  31.8701220  48.5784912
 109.7406864  31.7361903  47.0744944  15.0358825  47.5946045  34.5088863
  15.4212241  48.3027363  33.9928555  14.6975283  48.0265331  35.2932215
 106.2466526  23.1180167  50.2395630 106.1889362  23.7204790  50.9811449
 105.3566551  23.0838585  49.8888922 118.1037521  42.1464062  65.3978729
 117.4279976  42.8232241  65.4368067 118.3687401  42.1251392  64.4783306
 102.3245907  41.7594767  26.2067795 101.9673729  41.1898804  25.5254650
 102.8124046  42.4292612  25.7275558 116.9670677  72.4943018  54.9920082
 116.4533710  71.8354750  55.4592228 117.5446033  71.9872999  54.4213629
  91.2392998  57.5174236  60.2463531  91.7900658  58.2215500  60.5885410
  90.5561543  57.4049616  60.9073353  94.0344048  31.1596608  43.2301998
  94.3702793  31.1041403  44.1248178  93.1027508  31.3523507  43.3356714
  93.2992554  53.0771971  49.5372009  92.5172615  53.6267710  49.4854927
  93.8100147  53.4542084  50.2536011  98.5014629  57.7918196  82.5528717
  98.1811142  58.6494255  82.2733498  99.3254089  57.6778841  82.0792007
  91.4446259  41.8333769  23.9602160  91.5031242  42.2079182  24.8391533
  91.6423130  42.5643730  23.3747244   7.3075251  19.2555082   3.2044637
   8.0178599  19.5605743   3.7689024   7.6864486  19.2479789   2.3254915
 105.3028774  17.8229547  53.1770945 105.4448891  18.1421506  52.2859240
 106.0500622  18.1573606  53.6731958  93.9146233  33.5100412  62.4819708
  93.7872791  32.5649405  62.3995352  93.7019634  33.7016034  63.3953762
  88.1790447  54.1696453  48.3580065  87.7913857  54.5507860  49.1458368
  89.1221333  54.2828417  48.4762955 100.6918257 104.5636756  42.0059109
  99.7920149 104.6336872  42.3247480 101.2277430 104.5649571  42.7990246
   1.9381480  47.7485657  57.9390478   1.8760638  47.5701714  57.0006704
   1.8241362  46.8933105  58.3535004  39.3875384  38.7452912  43.9138842
  39.4346189  39.5083046  44.4899273  40.0104046  38.1229472  44.2893314
  88.8280582  14.6551108  64.0093470  89.0383244  15.5663300  63.8051462
  89.4336414  14.1435504  63.4728622   7.9512172  21.9776392  65.3002119
   7.2353606  21.7073369  65.8752966   8.3558993  21.1568642  65.0195074
  22.7350764  56.4075899  26.4282084  22.4073748  57.1986914  26.0004234
  22.9576735  56.6897345  27.3153830  77.0225477  27.7650523  25.7469821
  76.9851494  27.0793033  26.4137506  76.3664103  28.4045482  26.0240412
  76.3334894  73.2173014  50.8945894  76.0570145  73.5422897  50.0377464
  76.7656565  72.3841381  50.7067060  84.7124767  38.6137342  32.5365829
  83.8517761  38.5644555  32.1206546  85.1671791  39.3111229  32.0642209
  14.8875289  18.7904489  72.5641680  14.1027789  19.0899456  72.1051359
  15.3726916  19.5926011  72.7575588 114.5443058  45.3477526  59.8501348
 114.4186878  44.4017124  59.7762823 113.6990356  45.6786156  60.1539040
  73.9011669  58.9107895  60.2500486  73.5112333  59.5133352  59.6167088
  73.1538153  58.4610510  60.6442928   4.1569953  20.3057408  68.4951115
   3.5443644  20.0650954  67.8001261   3.6084704  20.4091811  69.2727041
 107.2960186  30.4472518  23.5513425 108.2125664  30.3201199  23.7962866
 107.1992207  31.3960671  23.4700370  98.6544228  45.9802532  49.8967552
  98.5060692  45.8928013  48.9551735  99.1087818  45.1746941  50.1434708
  79.6339273   8.8368767  81.9207668  79.7289371   8.1271052  81.2856102
  80.4229641   9.3668187  81.8075466  22.6445632  90.0143433  61.2130404
  23.4500079  90.2047729  60.7321930  22.6389651  90.6472683  61.9311047
  83.1854916  46.2690067   5.0134194  84.1184235  46.0554552   5.0297707
  82.7721786  45.5764246   5.5289131  45.8342700  26.3925600  32.6746202
  45.8283191  25.4502487  32.5065541  45.3171687  26.4966559  33.4733796
  81.8519497  29.5614576  83.3668518  80.9581375  29.4463301  83.6894608
  82.3295784  29.9288273  84.1105843   7.7197604  58.6501217  28.7259912
   7.9675059  57.9080439  28.1744719   6.9384627  58.3520412  29.1917872
  73.6502075  52.9287338  55.7849789  73.2128906  52.1056843  55.5668592
  74.3886614  52.9758358  55.1777697 107.4824810  29.8080802  49.2354298
 107.8592014  29.8063016  50.1153755 106.5366077  29.7811747  49.3797779
  92.8768730  40.7931089  67.5101471  92.7714348  41.7433929  67.5556946
  93.5994244  40.6614494  66.8962908  29.4198947  61.8738365  29.6196222
  29.7469764  62.6148510  29.1095734  30.0867133  61.1956835  29.5114851
   7.1798472  24.5769167  42.3638916   7.5450377  24.9235106  43.1779766
   6.4690928  24.0012765  42.6461935 101.3733387  33.7800694  47.5142002
 100.7341957  33.0933905  47.7044678 100.9706402  34.5814347  47.8486919
  97.6192760  36.3305759  32.3462582  96.9271088  36.2853503  33.0058670
  98.4107304  36.0580134  32.8105259  72.5385714  39.5073938  31.6726804
  72.7929354  38.9370561  32.3981071  73.3236122  40.0223494  31.4862370
  16.9001250  48.4534502  21.8573570  15.9931521  48.4985447  22.1600246
  16.8392043  48.0995321  20.9700775  89.9163151  22.1474552  52.1061087
  90.3275871  21.4348245  52.5952291  89.1850758  21.7328858  51.6482306
  87.7483958 106.3160885  42.5577927  88.2903975 105.5293621  42.6171637
  87.8295344 106.5945617  41.6455984 101.9852543  25.5545640  40.9949875
 102.5655174  24.8714709  41.3310146 101.2665176  25.0762892  40.5815935
  75.9864712  31.5534496  47.3157883  75.1639557  31.4095211  46.8478346
  76.1667109  30.7175851  47.7459955  62.5329607  93.6506064  18.7681329
  62.9751032  94.4622869  19.0169585  61.7692011  93.6078091  19.3435204
  96.6227436  29.2909050  35.9266496  97.3311806  28.9233184  35.3982282
  97.0634365  29.6726060  36.6858125  94.8486423  46.3364935  40.8313179
  95.7314968  46.6696548  40.9919405  94.5946503  45.9235191  41.6566515
  79.4747639  52.0619965  56.4871931  80.3505039  51.6761351  56.5077972
  79.6200514  52.9720879  56.2286329  30.6255393  33.1999135  47.6002264
  31.4555888  33.0566096  47.1455622  30.8402495  33.8131166  48.3031607
  97.8906631   0.8187656  23.6251640  97.9814816   1.7368141  23.3698821
  98.4379101   0.3414780  23.0015087 115.0169849  38.3173871  61.8081808
 115.0799656  39.2640996  61.6816902 114.2461395  38.2007074  62.3635387
 112.3699951  44.2820835  22.8992724 112.9566956  43.6178398  23.2609200
 112.8073120  44.5790386  22.1012783  91.0027695  72.1157408  47.1012974
  90.2855873  71.8085146  47.6558161  90.7488251  71.8562174  46.2156391
 115.0705338  39.7543073  51.0226727 114.5044804  38.9932632  51.1516285
 115.9373474  39.3829966  50.8583784 104.5763302   8.8224375  32.1623135
 104.9060822   8.7638301  31.2656188 105.3521156   8.7063551  32.7108669
  83.8152885  17.8589177  49.1104746  83.7468243  18.4667110  49.8467684
  82.9661655  17.4178588  49.0842295  21.5510134   8.4235305  74.7753525
  20.9476714   7.6824546  74.8302269  22.2859626   8.0961436  74.2567873
  98.6407948  17.9397941  70.8925295  97.7409363  17.6201499  70.9582186
  98.5532093  18.8380945  70.5737543  94.6962452  67.9242468  92.3320675
  95.2070904  68.5885477  91.8694973  95.3419209  67.4427557  92.8492737
 108.6115837  49.6619654  36.1924934 108.5528946  48.7991476  35.7822108
 109.3186474  50.1033592  35.7219028 100.0404739  28.6230063  54.3637562
 100.0024033  28.5769320  55.3190899  99.9529076  29.5552945  54.1652536
  89.0810013  63.7775087   9.7821742  89.4717216  64.3967628  10.3986919
  89.8253059  63.4189224   9.2987883  96.3148785  41.0499954  62.1338797
  96.7600727  40.3830242  62.6565552  95.9461117  41.6532373  62.7791309
 103.6425304  16.9599700  46.0559177 103.1499958  16.6082048  45.3143644
 103.9077473  17.8353238  45.7736969  63.7871552  30.5463243  36.8233490
  64.0379333  29.7322488  37.2599506  64.3024921  31.2225437  37.2631025
 111.9846058  55.5423403  80.8387470 111.1142349  55.1470423  80.8880901
 111.8613911  56.3268948  80.3044033 110.3253174  53.1677675  78.2376957
 109.8984528  53.7535667  78.8628864 111.1740685  52.9715347  78.6343622
  72.4226427  38.0845141  50.6767607  71.7477608  37.8492284  51.3134766
  72.0782280  37.7773833  49.8381424  82.5757122  92.5044155  29.0170574
  82.8607368  93.0529022  29.7479153  81.6371155  92.3831081  29.1604519
  88.2349205  36.5137959  45.2975416  88.7892151  36.2350035  44.5686626
  88.6261845  36.1010885  46.0674906 105.6601524  29.5953083  83.9484119
 106.0808182  29.9974513  83.1884384 106.3866234  29.3385577  84.5163441
  11.8165736   7.6851100  42.5385618  11.0663371   7.9129499  41.9894981
  12.3831229   7.1669334  41.9669533   5.7999854  62.7878761  10.2938235
   6.2142710  61.9287109  10.2136040   6.1728816  63.1598997  11.0930586
 106.7765141  26.8795562  44.8555613 106.4719105  26.8421030  43.9488935
 107.6991463  27.1254301  44.7882938  80.7917500  45.1059914  56.3141489
  80.5877018  44.6018505  57.1018267  79.9377680  45.3152037  55.9357643
  77.9696577  87.6160998  18.8550603  78.5594767  86.9779081  18.4537387
  77.4212282  87.0980186  19.4441724  94.9103832  31.5808606  69.9138546
  94.9828243  32.0792270  70.7278681  94.2461205  32.0468140  69.4060516
  90.3923035  68.1008720  34.9355555  90.8930588  68.7127542  35.4750657
  90.5891991  67.2398186  35.3044081  86.3150883  34.9612570  66.3113737
  87.0474720  35.5500913  66.4933443  85.5376816  35.4631472  66.5562963
 107.9778862  63.6955833  55.6507826 108.2146645  64.3318176  56.3255978
 108.5018635  63.9469481  54.8901939  20.4760794  59.2975664  40.6158638
  21.1601023  59.3181276  39.9465966  20.9110408  59.6020317  41.4123201
  90.9252453  83.6907864  21.6068459  91.4274120  82.8862572  21.7364788
  90.0117111  83.4205055  21.6997862 114.5217323  19.1277599  54.5101452
 114.0586090  19.5184040  53.7691021 115.4481030  19.2696118  54.3153429
 108.0430603  15.1244771  59.9516392 107.9133892  15.8055186  60.6116390
 107.1930027  14.6893013  59.8863125  91.0964489  27.5242686  62.7327824
  90.7596397  27.8507638  61.8984032  90.9446239  28.2406783  63.3491707
  18.5135989  76.0614061  29.7916484  17.5980620  75.7888794  29.8528361
  18.8687281  75.9061003  30.6668591 107.6578903  46.1179829  75.1859236
 106.7581749  45.8705330  74.9726152 107.9690838  46.5826416  74.4090843
  99.0980816  37.5311065  76.2079716  99.5418167  37.4546027  75.3632927
  98.7760353  36.6483140  76.3901663  19.3237929  20.3133106  28.6197400
  18.3820300  20.3636122  28.7834072  19.6685271  21.1440134  28.9473367
   3.3562140  25.4116201  38.5432124   2.9816108  24.6075726  38.1834745
   4.3022017  25.2680206  38.5163951  93.9952564  12.4268878  93.9466572
  94.6614838  12.4241936  94.6339417  94.4863892  12.2905016  93.1364536
  68.9366055  59.9247599  16.3063824  68.6457777  59.0395927  16.0870039
  69.3207169  60.2584934  15.4956341  94.9687958  32.5175261  47.9268360
  94.2046738  32.8160119  48.4200525  94.6741009  32.4995995  47.0163059
   8.8969855  34.4636774  84.7224998   8.4000735  35.2512813  84.5011616
   9.0115218  34.0101624  83.8873672 103.8349247  32.8977895  46.7715979
 103.7921047  32.0120716  47.1320200 102.9513741  33.2469225  46.8884993
  93.9230156  68.6861897  36.9108486  93.1434250  68.3677340  37.3658824
  94.6437454  68.5027695  37.5134563 105.0735092  40.1864433  50.4669237
 104.3046570  40.4862833  49.9819565 105.7322598  40.8639050  50.3141499
  93.4982586   9.3585825   9.9650156  93.4330082   8.4181952  10.1312864
  93.9767742   9.7025394  10.7192993  76.0984612  75.4289627  32.9245925
  76.6566896  76.0350466  33.4117031  75.4082108  75.1894379  33.5429883
  15.6538062  46.8985176  30.7064342  15.1433234  46.1307716  30.4491448
  16.1712603  46.6021442  31.4551926  83.9738274  45.8450508  45.7339716
  84.1727448  46.2327719  44.8817158  84.8304367  45.6826258  46.1290169
  89.4806290  50.9044409  25.5042148  88.6336231  50.7574511  25.9251690
  89.2619801  51.2734509  24.6484947  16.3855796  20.4701042  29.1922331
  15.8331160  20.1869202  28.4636521  16.0225634  20.0221324  29.9562812
  20.8404593  65.2369499  59.3697882  21.3256221  65.9690571  58.9891768
  21.5149932  64.6752787  59.7515869  80.2692604  16.7307818  67.8298759
  81.0810089  16.5063357  67.3749828  80.0953102  17.6372182  67.5762129
  91.7510605  22.4823594  41.2368727  91.3512993  23.0511570  40.5789232
  92.6713181  22.4279857  40.9791851 107.9100800  71.9639254  19.8844481
 107.5097275  71.5808153  19.1039526 107.7745724  72.9062653  19.7851360
  30.2412848  30.6598377  48.8619566  30.3689437  30.0058722  48.1747437
  30.6169467  31.4629078  48.5011387  87.4228954  43.2317638  40.7230091
  86.6825390  42.6322031  40.8159018  87.0328331  44.0468931  40.4073334
  13.5242514  26.0076523   5.5177146  13.8774352  25.1460481   5.7393718
  14.1688876  26.3838077   4.9184009  67.9123545  10.7519364  34.0151405
  67.1352100  11.1077464  33.5842323  68.5468864  10.6368542  33.3077788
  68.9241028  52.7051544  27.9183626  68.6167622  53.1206560  27.1126771
  68.5731697  51.8155193  27.8779864  79.3544149  44.5050955  28.0221701
  80.0434971  44.1943216  27.4349594  79.4822407  45.4529333  28.0609536
  95.7367134  35.5611682  78.2116461  95.4240608  35.2894449  77.3487186
  95.0025749  35.3829336  78.7994385 113.0602074  46.0986853  18.5071552
 112.1482086  46.1899328  18.2311845 113.0786991  45.2825260  19.0069306
 103.7607765  48.9218235  35.6726432 104.4954586  49.4558096  35.3704214
 103.7140942  48.2011509  35.0444007  92.5955009   8.3745748  42.6640749
  93.1879616   8.9585364  43.1375837  92.7929592   7.5031912  43.0074883
 113.0829811  29.1216826  44.8921156 112.1571732  29.0517616  45.1249361
 113.5185909  28.4727502  45.4447174 102.4373913  37.9080629  35.0135994
 101.9991207  38.5690045  35.5496120 101.7801189  37.2226048  34.8936939
 115.9485245  60.5761003  67.5246525 115.2459431  60.1027870  67.9702902
 115.6363487  60.6772566  66.6254616 111.6660881  74.0985727  44.7413445
 110.9320736  74.1136074  44.1271448 111.6704464  73.2061863  45.0875568
 106.1790848  24.3244028  58.1683588 105.5558968  23.7885189  57.6777506
 106.1660385  25.1728725  57.7254534   0.8460955  54.8304319  67.6421881
   0.0836520  55.2412176  67.2345352   0.4975180  54.0463829  68.0664492
  90.2212429  78.7284660  70.6760979  90.4647255  77.8745937  71.0336637
  90.9606934  79.2973995  70.8900213  93.1034279  12.8211772  38.8783526
  93.4516239  12.0429003  38.4432912  92.2527122  12.5446975  39.2190552
 108.0465698  53.1587458  62.4062157 108.6525726  52.4411345  62.2217321
 108.5896111  53.8309765  62.8178549  19.3598323  39.7085381  41.8936825
  19.7319751  38.8825393  41.5846968  19.4739489  40.3121138  41.1595774
  64.6530914  53.8820362  17.3844624  65.0861263  54.0670300  16.5511000
  65.3184271  54.0688896  18.0467665  14.3758826  13.3726120  70.5728436
  14.5742755  13.9471114  69.8333740  15.1946406  13.3262360  71.0665178
 117.6124382  75.8725357  61.8247175 117.6018906  75.3497362  61.0229731
 118.4720612  76.2935877  61.8248081 117.2127533  64.1029358  44.0380955
 117.2660732  63.1533623  44.1462469 116.6386700  64.2260361  43.2821178
  16.9997172  73.1658936  58.5361671  17.7816062  73.3611012  59.0526676
  16.2725024  73.2910776  59.1458559 109.5338154  17.8558969  52.9016161
 110.1385403  17.1714628  53.1881094 109.3501377  17.6453531  51.9860983
  98.1237221  12.7807999   3.4789386  97.4406242  12.1141756   3.5511482
  97.8510761  13.4697449   4.0849504  23.5610156  33.1225610  45.0795174
  23.5244994  33.0271506  44.1277838  24.0491156  32.3553944  45.3785849
  89.4866657  14.1757989  51.4377737  89.7904110  13.2755113  51.5537643
  88.5338020  14.1020966  51.3844347  14.4068675   2.7656183  55.5723333
  14.3665938   3.6152023  55.1332235  14.6774916   2.9711068  56.4671898
 106.4762592  54.7975874  27.5395918 106.7253780  55.6127405  27.9751396
 106.3224220  54.1809225  28.2553315 105.1968670  30.7511449  67.0279026
 104.4024181  31.2693167  67.1566629 105.5129242  30.5731559  67.9137135
 101.8588161  30.4515958  61.9053984 102.7662182  30.6562901  62.1311092
 101.8274689  29.4951701  61.8830585 101.2532616  35.8098292  11.6045356
 100.4264450  35.9802771  12.0557082 101.0198784  35.2115631  10.8947146
 108.1657028  35.9676385  80.2633667 107.4270630  35.8490801  80.8605099
 108.8813496  36.2670541  80.8240986  19.6173434  18.6069882  15.6863725
  19.5183902  17.6622176  15.5686986  20.2754073  18.8612998  15.0394464
 107.9649258  49.4792843  68.1476307 107.2614098  49.9280024  67.6786470
 108.0799580  48.6548424  67.6750994 105.7909203   2.5083598  63.0277061
 105.3229618   2.6145393  63.8559389 106.0387135   1.5839694  63.0094099
 100.9557533  39.1540933  83.6041927 101.8144131  38.7409616  83.5133362
 100.9734154  39.5545697  84.4734097  16.8981604   8.3071077  81.8252277
  17.4550204   7.7163213  81.3181686  16.0802893   7.8237778  81.9423103
  93.1982517  21.1044645  65.7654619  93.3252811  22.0433331  65.6290054
  92.4108505  20.8938694  65.2635908  45.3406858  11.9904757   7.0778632
  45.6734943  11.0967815   6.9955057  45.5356503  12.3974037   6.2336880
  36.2302130 107.4436335  30.7486963  36.5942543 107.1534870  31.5850711
  36.9552201 107.8938220  30.3151941 106.1606407  52.8545046  16.6257119
 106.1110592  53.4545231  17.3698580 106.0677433  53.4176970  15.8573258
  24.6966284 104.7666551  27.7172947  24.1345948 104.3067087  28.3408308
  25.5239266 104.8863871  28.1836343  74.9397945  34.6092129  28.2554770
  74.4346571  34.9886990  28.9745450  75.0665808  33.6947584  28.5083175
  79.6253061  41.3689566  43.3581829  78.7792873  41.0647678  43.0296230
  80.1164818  41.6061592  42.5716019 115.3552628  31.0530806  38.7551761
 116.1092854  31.4917231  39.1492343 115.4487514  30.1365089  39.0147662
  34.7922646  59.0240678  83.3070436  33.8479172  59.1125205  83.1781486
  35.0629460  58.3753192  82.6573601  31.3774733  59.6213055  69.5572615
  31.8145613  58.7737179  69.6396446  30.8355098  59.5360756  68.7728834
  99.7869492   4.4829360  10.5390096  98.8473225   4.3085140  10.4850626
 100.0621319   4.5963117   9.6292549  88.6426848 106.2664331  74.1533184
  89.0107458 107.0938529  74.4633865  89.3137949 105.6147737  74.3562794
 110.4688931  31.8581319  62.3249817 110.4250050  32.2727060  63.1866264
 109.8737526  31.1110950  62.3880196  98.9085197  34.3031240  15.3334630
  98.8257408  33.6073923  15.9856427  99.1132641  33.8444638  14.5186341
  86.1370659  54.9092627  41.4574289  86.2781620  55.8415461  41.6222572
  85.2150917  54.7652006  41.6705990  21.8283783  74.4132989  94.1501503
  21.2224709  74.7342044  94.8180808  21.9017254  75.1356464  93.5263988
  89.1286486 108.5048641  19.3501377  89.3854540 107.9560004  18.6091709
  88.1760519 108.5690544  19.2818475 116.2924004  68.8980198  55.7958603
 115.4563236  69.0724945  56.2280226 116.0685349  68.8047886  54.8698902
   3.1332831  50.3997660  64.5905924   2.8949122  51.2958527  64.8281670
   2.2957854  49.9598026  64.4447660  99.2934704  33.2342005  19.5712066
  98.9784050  32.8958702  20.4093623 100.2319241  33.0457425  19.5743680
  94.9607468  38.0420685  29.8553610  95.8204746  38.3154535  30.1753020
  94.9703598  37.0877123  29.9284339  99.2218304  44.0264320  46.2530947
  99.9196911  43.3756495  46.3286018  98.4535694  43.5235167  45.9827805
 100.3208160  38.0277562  18.3206415 100.7053375  37.6664162  19.1192734
  99.6477127  37.3945713  18.0711710  81.9837189  37.3522091  37.4035954
  82.4716949  36.7685175  37.9844689  81.3719273  36.7766905  36.9445515
 112.8601456  72.9946280  49.4826698 112.9215431  73.5660219  50.2481556
 113.2153225  73.5178566  48.7641239   4.1749148  23.2556129  66.8065119
   4.5638423  23.3948326  67.6699829   3.3377223  23.7181759  66.8435192
  68.2997084  44.4731998  22.3973680  68.9030361  44.0199661  21.8084645
  68.8663816  44.9944496  22.9660559 102.5411224  44.9285460  49.9249744
 102.4532986  45.8789158  49.8520613 103.3459949  44.8001957  50.4269028
   3.7969546  41.4575243  49.3942404   3.2975058  42.2087765  49.0742254
   3.2707171  41.1090374  50.1138639  67.8803843 109.1220390  41.8499327
  68.3364886 108.4092553  42.2972965  67.5000113 108.7125553  41.0728359
  84.1021633  28.2563186  47.8837919  84.4063473  27.5270176  47.3435831
  84.5892525  29.0139031  47.5596952  97.9453945  30.4015088  38.0677462
  98.2232571  29.9181581  38.8458228  98.2435608  31.2976789  38.2233334
  18.3737426  51.8869829  49.1957903  17.9274993  51.3361979  48.5525703
  18.8511615  51.2694359  49.7498035 101.2599087  63.4950781  55.5295467
 102.0504951  63.6957359  55.0286007 101.1409092  62.5514793  55.4214382
 108.6360073  38.7375736  28.3722043 109.4896507  38.7089920  27.9401088
 108.7616825  38.2455945  29.1836166  10.1774840  40.1869392  32.3882818
   9.3750720  39.9011946  32.8249979  10.6376986  39.3745661  32.1773744
  25.1360945  12.9558706  19.2251122  24.6871524  13.8011730  19.2371917
  24.7431044  12.4656165  19.9472213  22.4672751  37.7141190  68.4424210
  22.9874472  37.1970391  67.8273726  21.7760234  37.1183872  68.7313938
 100.4298973  55.6559467  26.4705610  99.6810818  56.0724401  26.8972325
 100.0448132  55.1352310  25.7657194  96.7410660  59.2875957  73.5595560
  96.1349964  58.5489941  73.5014057  96.4912415  59.8600960  72.8342533
  87.6798344  32.2594357  47.7411366  87.3996067  32.6724601  46.9243670
  87.1609783  32.6926351  48.4188986 114.2215538  41.3981676  30.9001064
 114.3571472  40.7069921  31.5482712 115.0887966  41.5464735  30.5231190
   1.6611628  41.9170475  67.4631786   1.2851863  41.2823915  68.0731678
   1.0449080  41.9397449  66.7311001  29.3217044  13.5744894  41.4658737
  29.5308738  14.3019879  40.8800173  28.5451369  13.1706512  41.0784674
  93.6176777  74.3651056  58.4799576  93.3123112  75.0991440  57.9468822
  92.8881645  74.1784430  59.0708876 107.0140076  17.1249652  35.3052807
 106.5286446  17.6311171  34.6537709 106.5583801  17.2960484  36.1295176
  23.1870036  34.1461086  38.0038047  24.0349726  34.5723009  38.1284952
  23.3394484  33.5090971  37.3057985 111.1983013  37.2987652  22.8590274
 110.4113960  37.7759409  22.5957489 111.0074329  36.9927669  23.7456894
  26.1810910 110.5463697   2.8890583  26.0728871 111.4014436   2.4726841
  26.0839879 110.7217313   3.8250324 117.5687027  83.0607510  27.5593543
 116.9432163  82.9975319  28.2811594 117.9999638  83.9053440  27.6894164
  19.8225264  83.0408382  24.1996169  19.4878058  82.6784134  23.3793449
  19.5888572  83.9684200  24.1646314 113.6546803  47.5678968   3.8680607
 113.4336662  48.0923223   4.6377093 113.3747292  48.1028318   3.1252936
  12.6078849  35.9998631  36.5660667  12.7148204  35.6363964  35.6870389
  11.6647200  35.9664798  36.7259479   5.9341292  77.9219627  93.6409283
   6.5963893  78.0002689  94.3275928   6.4288668  77.6828480  92.8571606
  91.0868168  47.9950666  32.8709579  91.0801125  48.9290905  33.0802131
  91.3090992  47.9596424  31.9405985  19.4396930  12.6266420  74.5432758
  19.0949969  11.7469275  74.6966267  19.4053988  12.7350128  73.5928488
   5.2855544  92.3965168  81.8634129   6.1247592  92.8129673  82.0597267
   5.5096583  91.4867783  81.6674805 107.4878407  49.0508509  28.9135695
 108.3996487  49.3287754  28.8264060 107.4135399  48.2893372  28.3384132
   9.4117217  13.5344422  65.0817108  10.2228980  13.1965840  64.7021246
   8.7332015  12.9367733  64.7676563  94.5426178  56.9708967  39.8866725
  93.7828636  57.2769547  39.3913746  94.6365356  57.6051426  40.5974054
  17.6766257  52.7303076  11.3254368  18.3234172  52.3769379  10.7146788
  18.1580405  52.8438377  12.1449375  38.2720141  50.8800030  40.1729250
  38.8695578  51.1848927  40.8557320  38.0614714  49.9803877  40.4231167
  20.9493689  25.0445986  32.4692369  21.6636233  24.4820523  32.7685857
  21.3791423  25.7155871  31.9388580 109.8015594  75.0063753  61.8312979
 110.5449200  75.4456329  62.2444534 109.1357994  74.9653912  62.5178194
  11.4676814  60.3776264  65.1587057  11.8386988  60.9825468  64.5163298
  10.6152301  60.1365089  64.7961855   5.5065684  49.2081213  45.5807257
   6.4619403  49.2671013  45.5851173   5.2375369  49.7350073  44.8282385
 117.6832581  32.0581818  40.4385424 118.0095673  31.3228083  40.9571695
 117.3887157  32.6970339  41.0876560 106.2422180  16.8270409  32.3458314
 107.1588993  16.7372406  32.6063347 106.2633705  17.4223471  31.5965676
  14.9122004  43.1590366  41.3980007  14.3500380  42.9104233  40.6642485
  15.7426505  43.4054327  40.9907198 111.8418980  58.7634563  62.7068472
 112.1478462  58.6733055  61.8043518 112.4015045  58.1716633  63.2097006
  94.5077705  23.0318975  77.6626682  94.6790409  23.3342123  76.7707586
  95.0301361  22.2345400  77.7497578 113.8024521  44.5529461  43.7569475
 113.8353539  45.0446510  42.9363537 112.9656219  44.7997856  44.1506863
 113.1140232  63.8577604  23.6627030 113.3381081  63.9568853  24.5880079
 113.1224632  62.9121876  23.5141873  22.7722506  67.3902082  54.0104723
  22.4852328  67.5181818  53.1063271  21.9820933  67.1161890  54.4760847
   1.4306502  51.9762993  61.5712166   1.0300021  52.5288534  62.2423315
   0.8741812  51.1981773  61.5380526 100.8385563  34.0706921  44.8338175
 100.9942436  33.2399297  44.3845654 100.8267593  33.8418674  45.7631874
   5.0552611  53.2172775  41.3612318   4.5762877  53.9394331  41.7678165
   5.9735827  53.4835100  41.4063168  97.6854992  63.5634565  64.6734762
  98.0022049  64.3844748  64.2968273  97.3120213  63.0878782  63.9314699
  15.0980143  52.9059458  12.7566552  15.7851844  52.7086973  12.1201599
  14.4538455  52.2079992  12.6376915  96.9855881  71.8733120  59.7598934
  96.3530922  72.1100521  59.0815592  96.7871475  72.4617958  60.4882765
  95.2821827  40.6541681  28.2176828  95.2025223  39.9848676  27.5380349
  94.7073746  40.3513241  28.9206123 111.3834953  73.8656616  39.0612912
 111.8157482  73.8785315  39.9152374 110.8634090  74.6690559  39.0439725
 109.7941113  80.8832550  87.4051380 109.3061638  81.0511303  86.5989494
 109.1907787  81.1300564  88.1060791  94.5105934  54.3557596  54.9668074
  94.7586060  54.5101357  55.8783388  95.3197289  54.0683174  54.5438242
 106.3565540  65.5676699  32.6382089 106.5280533  66.4755011  32.3878860
 105.5144310  65.5993986  33.0921578   2.0684104  18.4916484  67.6709414
   2.4974303  17.8186810  68.1994247   1.2665133  18.6981654  68.1510782
  94.3178463  71.2703753  39.6206379  93.4011650  71.4320993  39.3975425
  94.3214798  71.1890459  40.5743694  84.9239349  62.5953770  19.6128547
  85.5941486  63.1884813  19.2733324  84.2441845  63.1743717  19.9577236
  11.9947009  50.5468464  62.9048109  12.4962096  51.2393761  63.3350801
  11.7011885  50.9392262  62.0825434  75.6939524 104.8145975  57.1033430
  76.0752981 105.6685848  56.8995905  74.7488516 104.9537642  57.0429707
 118.0992317  54.5005369  37.5250864 118.2502079  53.6357737  37.1434855
 118.3131409  55.1134205  36.8216300  67.6916361  39.0645337  30.0250626
  68.0709648  39.9347663  30.1476789  67.0202017  39.1882873  29.3541741
 103.6698055  36.7829370  50.3114128 102.7758217  37.1199417  50.2526474
 103.8404751  36.7192411  51.2511158  86.6491127  54.8749447  46.0721064
  85.8707142  54.3762875  46.3204384  87.3058605  54.6350908  46.7258501
 108.2365799  81.4690304  85.2647209 108.0490112  82.4070168  85.2297306
 109.0939236  81.3805199  84.8483658 116.2210941  38.4617662  10.1991665
 117.1543217  38.3157015  10.3540349 115.8258247  38.4295988  11.0703480
 117.1786976   2.1301623  61.1769962 116.8943119   2.1549521  60.2633524
 116.9819450   3.0046284  61.5128946  19.9181800  36.6940379  54.1226530
  19.7419219  37.6261139  54.2507267  20.4391246  36.6568041  53.3204985
 118.1074142  65.5848694  46.5308380 117.8884029  65.1098776  45.7291842
 118.5379124  66.3835812  46.2259626 110.8205605  77.6693535  62.8684139
 110.4491615  77.1876287  63.6074924 110.1152802  78.2497120  62.5820732
 110.8007050  35.0610328  79.7430277 111.2838459  35.2425480  78.9368868
 110.3516102  35.8822989  79.9431896 105.0420856  41.1357355   8.9899379
 104.8285484  41.0388613   8.0619037 105.9758377  41.3460636   9.0001661
  79.5619535  46.7919731  41.9863558  80.0669956  46.0945511  42.4044132
  79.5406532  46.5502357  41.0604239 114.9678230  26.6067624  78.2980490
 114.3734360  25.8955121  78.0591774 114.7953033  26.7613435  79.2267990
  13.0762439  78.3262348  64.2505264  13.0332045  79.2254162  64.5758820
  12.1613745  78.0681086  64.1382360  79.6360224 108.3911003  68.4499693
  78.8997095 107.8474067  68.1698370  79.4514292 108.5897769  69.3679476
 114.1941261  72.1122456  66.0212708 114.9181080  72.1888971  65.3998184
 114.5193863  72.5270128  66.8202686   6.7740397  40.5133152  60.6514406
   6.0874038  40.4038668  59.9935818   6.4549498  41.2174940  61.2158346
  73.3263779  64.2392445   7.3992360  72.4678659  64.3399572   7.8103900
  73.8142109  65.0171185   7.6697189   8.8070922  59.6265316  31.2953901
   8.6206774  59.1717529  30.4740143   8.0390315  60.1782751  31.4433360
  80.6622219  86.4760780  38.8147497  81.0143948  86.1850357  39.6558809
  81.1997128  87.2321510  38.5787606  47.1801030 101.7379611  96.0874562
  47.5219571 101.4707416  95.2342506  46.2560021 101.9284671  95.9262368
   1.5729956  82.7277374  21.5025711   2.0513682  83.5282421  21.7183876
   1.8398242  82.1006680  22.1747494 104.6595860  80.7347107  49.7812796
 105.6061935  80.6174183  49.7012520 104.3255234  79.8594189  49.9774933
 102.0691109  36.6679215  54.2567492 101.2343502  36.3959527  54.6381044
 101.8652916  37.4758315  53.7856054  83.2244968  68.6365032  47.1738577
  82.9662514  68.7827349  48.0838871  84.1375256  68.9213133  47.1352625
  15.6049113  28.6598969  47.2064590  16.1029486  29.4570589  47.3873520
  15.4013877  28.3032441  48.0711031   3.5515837  43.0813503  22.5509429
   3.5150485  43.0408955  21.5952969   4.1505580  43.8043451  22.7373385
 100.0247288  43.4865665  67.9305840 100.9503841  43.5865116  68.1528807
  99.5700645  43.5330009  68.7716293  69.9570959  15.7434565  18.3597920
  69.2167776  16.3203151  18.1716225  70.7191294  16.3226992  18.3558437
  30.6976084  43.0243731  51.3526011  29.8425345  42.6059389  51.4525318
  30.7487921  43.2456112  50.4227257 113.3681393  52.6042557  45.5402088
 113.3195686  53.0221272  46.4000082 113.5673618  53.3201694  44.9368763
 107.7241325  32.6315904  73.1767797 108.3087921  31.9429016  73.4931755
 106.9140434  32.1737003  72.9524422 111.0799789  29.4737005  15.8724034
 111.1071777  28.9647484  15.0621796 110.4775333  28.9910078  16.4383483
  92.8555298  50.3855562  58.2751083  92.5702572  49.5413971  57.9254770
  93.8031292  50.2951956  58.3758020   4.3601851  55.0587177  23.5846090
   3.7714152  55.3949738  22.9089475   3.9396052  55.2992773  24.4101262
   7.3936896  52.8733444  72.8032207   7.6790099  51.9860649  72.5851345
   6.6382174  52.7476645  73.3774137   2.8581290  51.2423706  36.5224314
   3.7463050  51.2341881  36.1656141   2.3424678  50.7383251  35.8929420
   6.9006018  94.5720863  43.0462122   7.1579699  94.2693615  43.9170408
   6.1473326  95.1413727  43.2034683  26.1738639  47.0064783  52.0472193
  26.8462138  46.7035103  52.6574469  25.4493956  46.3919926  52.1646595
   2.3074488  62.4437428  36.8934870   2.5997882  61.5549040  36.6916704
   2.0836119  62.4168301  37.8237605  99.7533226  77.6979113   5.3924131
  99.5831680  76.7641640   5.2683294 100.6599236  77.8158998   5.1089001
  96.3103008  92.9015827  45.9307861  95.6327629  92.8235245  45.2591705
  97.1246243  92.6874256  45.4755354   1.1645083  59.0044355  21.9386959
   1.9192271  59.3247604  22.4326849   0.4071288  59.2646742  22.4629831
 103.1803608  40.2181959  47.6461744 103.5905170  40.6869125  46.9193268
 103.8370800  39.5774889  47.9190111  31.1810927  34.7649670  22.7049088
  30.7085948  33.9325643  22.7137280  32.0386653  34.5575285  23.0760837
 105.9373856  47.9428148  43.0780411 105.0807858  47.6472378  42.7696705
 106.5067959  47.8671026  42.3123550  92.2757626  15.4506278  60.1941347
  91.9916534  15.9125483  59.4053793  93.0471992  15.9339499  60.4899693
 110.5434227  37.3145318  54.0350628 109.8888969  37.3579288  53.3379650
 110.6283569  36.3804293  54.2260361 113.8866234  48.8990784  41.3539314
 114.0222740  49.8071909  41.6244173 113.4135437  48.4998274  42.0840168
  20.6175380  50.3131628  40.5370665  20.8648639  49.3946409  40.4304075
  20.6357341  50.6707430  39.6493530  19.4356589  55.5062008  44.4836617
  19.7248130  54.6646643  44.8364305  18.8810210  55.2756357  43.7383795
   9.1510825  19.7432125  70.5419016   9.2159800  20.6019497  70.9597397
   9.1918616  19.1201460  71.2674046  96.7747211  18.9947796  65.1474190
  96.2565136  19.3819332  65.8529711  96.2367344  18.2722247  64.8238230
  32.3307853  51.4802027   7.0481563  32.9261737  51.3193464   7.7801853
  31.4625411  51.2779808   7.3967153  18.5646205  71.3106537  78.6648703
  17.9282908  70.8796120  79.2354202  18.5052256  72.2373915  78.8969374
 104.5260143  90.8641911  29.7049236 104.7511196  91.5671062  29.0954328
 103.5831165  90.9577179  29.8406863 117.1050739  49.3950748  39.8407578
 116.9853401  49.1059542  40.7453585 116.2177658  49.5636320  39.5237470
 117.3395061  68.9537859  48.1916666 118.2831478  69.0482855  48.0619144
 117.1519947  69.4734573  48.9733410 116.4420319  85.6895065  35.0216126
 116.5422630  85.5175686  34.0853286 116.7149734  84.8756504  35.4451442
  13.6995272  73.6433268  41.3182878  14.1670947  73.7363291  42.1483278
  12.8197913  73.9735603  41.5006447   1.1887412  78.1099367  71.3211489
   1.0506015  78.4693289  70.4448032   1.6079860  77.2629309  71.1693144
 106.7853737  53.3348799   8.7740541 107.2263145  52.7009344   8.2084405
 105.9211540  52.9547405   8.9317191  70.1767462 108.4011231  27.9655886
  70.2438467 107.6391287  27.3901820  70.2971667 108.0471931  28.8467622
  51.0685080  98.2099981  39.4517374  51.8943709  98.1629903  38.9700913
  50.5693930  97.4526770  39.1458273  12.8784596  67.2958105  88.0176601
  12.7290474  68.2374626  88.1025079  13.8171994  67.1875470  88.1702277
  92.5612640   6.0081208  63.1854486  92.5863552   5.9331751  62.2315168
  91.7455959   5.5756962  63.4382963  53.9727926  37.3509359  30.7266784
  53.6740923  38.1825471  30.3586650  53.9113426  36.7314219  29.9995899
  51.5811938  95.2409000  12.3056555  52.4684256  95.1334734  11.9628549
  51.6983431  95.7143981  13.1292498  32.9812180 100.1491874  91.7750916
  33.3720051  99.7592633  92.5570619  32.4102055 100.8397811  92.1116286
  62.5751036 103.8541247  14.0478480  61.7551249 104.2983718  13.8321865
  63.0375403 103.7860973  13.2125282  94.1485882  17.6794899  61.5937185
  94.5277596  17.1090579  60.9250879  94.8550129  18.2838619  61.8215990
 114.3790054  11.5547562  24.6464992 113.8538170  12.0353556  24.0066338
 114.2512989  12.0307076  25.4671049  42.8539389  96.6467566  34.2266822
  42.5480479  95.7590206  34.0406895  43.1162279  96.9933123  33.3738470
   5.6438021  12.9030252  14.7105801   4.9593215  13.3559203  14.2180252
   6.3036303  12.6799536  14.0539968  73.8634032  98.3198113  17.1351314
  74.0169543  97.4831862  16.6961443  73.7580126  98.0900712  18.0583572
  40.0834006 106.2079931  43.6409807  40.4800623 105.6074102  43.0099535
  40.0218266 105.6994636  44.4495821 102.5710869  24.4556975  46.3412094
 102.7604103  24.5912862  47.2696543 101.6817951  24.7907686  46.2266874
  34.9418961  69.7135060  94.8166504  35.0238263  70.5046290  95.3492323
  35.7892453  69.2769855  94.9042533  75.9714049  87.6530642  14.9507582
  76.8552798  87.3074551  14.8261058  75.5075854  87.4203272  14.1464317
  44.2775492   0.8654050  20.0380850  43.5593753   1.4867084  20.1583028
  44.9451022   1.1469831  20.6636429  69.9169844 106.9457756  57.7508354
  69.0848177 107.3038087  57.4417400  69.7826403 105.9980686  57.7565098
  84.5703506  12.9348981  27.8575993  84.0381527  12.8586113  27.0656538
  85.1626682  13.6652267  27.6786923  84.7383213  23.0762982  42.2764158
  84.5658684  24.0178037  42.2687674  83.8795090  22.6766086  42.4139833
  82.6926994   8.9218992  12.1802139  82.6742363   9.5131999  11.4277148
  82.7377701   8.0464238  11.7958403 106.4787388   1.2014393  35.6950855
 107.3507023   0.8200389  35.5929255 105.9910488   0.8920334  34.9317646
 108.8500309   4.9582142  14.9537623 109.4109440   4.7068563  14.2199862
 109.3852806   4.7966361  15.7307029 102.8664780   2.2301143   3.4339520
 103.6527252   2.2203647   3.9798069 102.1647739   1.9457255   4.0195906
  84.9442101  44.0485525  33.2906628  84.5528221  44.6020985  33.9664102
  84.3465328  44.1203022  32.5464439  17.4721484  32.6387262  23.0321956
  17.4812369  32.1572137  23.8594174  18.2165389  32.2883654  22.5429392
  75.9689921 100.2014620  17.5031996  76.4195746 100.2158303  16.6588068
  75.2825850  99.5427902  17.3972225  68.2345694  95.3569813  19.8681009
  67.7644270  94.5681758  20.1382494  68.8026636  95.0648851  19.1552317
 114.3361378   5.5545181  45.9826612 114.3029213   4.7207975  46.4517450
 114.6812534   5.3296161  45.1186323 113.5026836  35.9009099  30.1327825
 113.3731079  35.4626083  30.9738135 114.4514084  36.0058212  30.0610328
  19.0279345   4.6010876  47.7934027  18.1354193   4.9349824  47.7030373
  19.0884547   4.3236217  48.7075043  73.3325624   3.1033814  23.9187932
  73.2337189   3.9045891  24.4331169  72.6887274   3.1891498  23.2156968
  94.8616791  20.8644438  14.5688105  95.4781151  20.3054118  14.0958261
  94.5945740  21.5227652  13.9273250  37.9367577  18.3404821  70.8738163
  37.5908028  19.2329662  70.8783939  37.3916756  17.8755730  70.2390078
  83.1260204  39.0964246  43.8285875  82.3586655  39.1160131  44.4004440
  83.0288029  39.8682046  43.2707930 107.9059410  50.4957294  21.5634394
 107.9764748  51.2380981  22.1635628 107.8909779  49.7272062  22.1338582
  63.1686323  86.2224288  25.1453018  62.2635954  86.3840551  24.8787951
  63.2585543  85.2697368  25.1223946  19.0264754  12.9034340  71.8577003
  19.2862849  13.5799396  71.2323427  19.4811587  12.1152663  71.5605736
  26.9915425  31.0254114  87.7957770  27.0101964  31.9524973  88.0332574
  27.9050862  30.7452696  87.8522536 108.5484123  23.3415937  32.5199270
 107.8810978  22.6698446  32.6601648 108.4663677  23.9223146  33.2764077
  10.9762530   5.3887403  48.0463314  11.2830596   6.2534761  48.3189631
  10.0229602   5.4398787  48.1160259  71.7116117  28.9234161   5.5370229
  72.3738861  29.6072149   5.4368210  72.2146034  28.1229663   5.6870651
 106.0007668  18.7128937   3.9127782 106.8579102  18.9157176   4.2874610
 105.8424759  17.8009236   4.1566759  31.0672509  41.2055677  84.7826996
  31.3626610  40.3007262  84.8838237  30.3086602  41.1463719  84.2019477
  91.7038727  14.7669303  23.7521195  91.8891907  15.0863969  24.6351981
  92.3873329  14.1182685  23.5837412  95.2416992   6.8125653   6.9644862
  95.5270481   6.3250351   7.7372205  95.2603912   7.7292860   7.2392678
 111.7477036   6.3526040  46.0415936 112.6001740   6.0413778  46.3460016
 111.7465019   6.1673981  45.1024818  59.3128317 102.0975680  27.5646043
  58.3674162 101.9604976  27.5043893  59.4045656 102.9845596  27.9125428
  63.4688013  95.5776079   8.8472116  62.6104563  95.9413619   9.0643775
  63.3257311  94.6318872   8.8101298 104.2050457  31.8727279  71.3267851
 104.2664337  31.3767934  72.1431828 104.3880367  32.7770710  71.5815592
  49.9994217  65.0644832  85.3980365  49.1904103  64.6010166  85.6146720
  49.9948155  65.8335560  85.9678939 107.0410252   1.4794393  20.6013751
 106.0895252   1.4154240  20.6837082 107.3217297   1.9200160  21.4034534
   3.6160504  39.9452131  68.2633498   2.9818284  39.5357364  67.6748636
   3.7986027  40.7958894  67.8642776   9.6284346  35.2489924  30.8940911
   9.4688372  35.3401685  31.8334770   9.8852019  34.3336511  30.7825017
  27.9116665  55.4456584  75.3389504  27.7711903  55.0494426  74.4790032
  27.4067532  56.2584579  75.3135374  90.0328541   5.6047875  19.5918584
  89.6470833   5.8924299  20.4193115  89.3220139   5.1478565  19.1422355
  20.4452567  22.1785688  37.7528763  19.8915438  21.3978910  37.7397013
  19.9169688  22.8393912  38.2005930   7.7885758  46.3961881  96.7333638
   8.1288563  46.3599872  95.8394214   7.9064118  47.3085796  96.9977287
 100.6445599   7.5974828  36.0092902 100.5385971   8.1362915  35.2252698
 100.6627178   6.6983908  35.6813622  89.2679214  25.2053499  24.5879865
  90.0712395  25.3458023  24.0868044  89.3061256  25.8560038  25.2890015
 113.5821056  24.5552182  24.9356508 114.1659737  24.4086289  24.1914415
 114.0509224  24.1862583  25.6841898 100.9146976   5.5803448  38.9929342
 100.0121880   5.8081508  38.7697577 100.8897686   4.6380171  39.1591525
  75.5671120  25.8309960  37.5571990  75.1455593  26.0669279  38.3835530
  75.4854631  26.6150689  37.0142484  57.7920489  38.1846786  41.2859583
  58.7048106  38.1880116  40.9976959  57.8411631  38.0744720  42.2355223
  95.2105349  92.3613353  32.9348111  95.0065058  92.2361834  33.8616037
  95.2994459  93.3091564  32.8350067  28.8465743  34.0599775  41.9091082
  28.9440207  34.3954825  42.8002691  29.0116839  33.1203914  41.9875288
 100.3439140  60.5099106  31.2995839  99.7070312  60.9032536  30.7030153
 101.0629272  61.1409235  31.3323379  14.0974669  44.5226002  30.1061797
  13.6735873  44.7807407  29.2876887  13.3733420  44.2972422  30.6902099
  86.0625267  19.7995996  32.6738954  86.1764622  20.3985286  33.4118199
  85.4250050  20.2351570  32.1081328 100.7654953  46.6133785  54.7112131
 100.0377750  47.2337532  54.7535181 101.4411545  46.9983387  55.2693510
  70.7413309 100.8310289  73.6113882  70.7557696 100.4433818  74.4864607
  71.1106032 100.1546020  73.0436563  55.0497359  96.3340063  21.6400290
  54.1436976  96.6327448  21.5620780  55.5170363  97.0812888  22.0134306
   3.9965396   4.3867943  61.8227959   3.1221823   4.7650695  61.9158125
   3.8384108   3.4785986  61.5650988  65.8467024 108.3895357   5.4302788
  65.7514876 107.6143004   5.9836107  66.7419737 108.3365441   5.0957632
  96.7081928  26.3499928  43.8066864  95.9487724  25.8003950  44.0002060
  97.4565506  25.8451939  44.1250896  67.5083876  19.1079533  38.7716126
  67.5888491  18.1568182  38.7002039  66.5782356  19.2575955  38.9408970
 110.3998661  -0.0445594  23.4825563 109.5124340  -0.3438403  23.2847738
 110.3210640   0.3959883  24.3286872  73.9349604  15.3944921  45.3033876
  73.0266666  15.6201446  45.1026058  74.0297461  14.4911933  45.0012350
  87.7071398 107.7172847   9.7497052  87.3427790 107.2256378  10.4857492
  88.5328787 108.0692721  10.0820982  13.8495497  48.5061407   7.8510529
  13.8684611  47.6875925   7.3552144  14.7322612  48.5879087   8.2121110
  68.0774706  90.0648517  41.1483145  68.9568537  90.4269142  41.0395241
  67.6089972  90.3318281  40.3574324  85.0502777  55.2618408  29.6265626
  84.8103428  56.1622953  29.8452854  84.2171669  54.7911310  29.6023273
  11.1238246   7.4219495  16.3628471  11.5579657   8.0272251  16.9640076
  11.7527251   6.7102152  16.2439108 112.4229336  15.9673154  11.2043595
 112.7189445  15.6230569  12.0470309 111.5406036  16.2960494  11.3765383
 113.6143780  22.6934242  29.1015005 113.5883045  21.9315624  29.6803951
 114.2356491  23.2901764  29.5188117  65.8436220 100.7486470  51.7851591
  65.6074255 101.3256557  52.5114489  66.7912024 100.8508952  51.6964340
  60.0689333 108.4448577  49.4355583  60.7851427 108.1206534  48.8895130
  60.5018252 108.9534483  50.1212502  97.8190327  34.5605803   8.9075458
  97.8012180  34.9675679   8.0413604  98.7301826  34.2930651   9.0277970
 100.0063515  10.0674605  25.0455952 100.1219082  10.6824946  24.3212962
 100.5517769  10.4202056  25.7486725  94.0545100 102.5442953  47.9964685
  94.8137205 102.3774029  48.5550117  93.6410445 103.3181001  48.3792305
  78.5084915  31.0417724  58.2706642  78.2381964  30.2514791  57.8031111
  77.9149723  31.7224956  57.9535246   9.7859816   8.5966766  41.0336924
   9.8600440   7.9489613  40.3328276   9.7563414   9.4387239  40.5794764
  61.9867628  90.1274247  40.9231806  62.1207159  90.0058336  41.8631315
  61.5889471  90.9948058  40.8481741  29.1028170  51.7186403  41.0032701
  29.7354083  51.8691683  41.7056942  29.6358638  51.6526079  40.2109766
  87.8073710  98.9331467  77.4376631  87.7091997  99.5875616  78.1292820
  86.9102209  98.7162728  77.1840477  68.1631565  41.8552113  29.5080042
  68.4222078  41.4604473  28.6753654  68.2132816  42.7982521  29.3518353
   3.9351039  40.9050226  33.6638641   4.3950133  40.2010965  34.1212535
   4.1655020  40.7828188  32.7428794  95.2795124  38.5218668   4.2827588
  94.9547100  38.1572914   5.1060563  94.9480629  39.4197750   4.2711484
  99.0279484  21.3243937  16.5515447  98.4198189  21.9565153  16.1683643
  98.4859848  20.7948637  17.1364391  45.2837294 109.7278499  32.7166390
  45.5158537 110.5998700  33.0359054  45.4439944 109.1493167  33.4621882
  92.1278572  19.1439295  31.1545014  92.0124340  19.5004702  32.0352912
  91.3150311  18.6695910  30.9797072  26.9331109  61.7326205  94.0436739
  27.2717415  60.8410662  94.1254695  26.0482251  61.6868901  94.4057792
 106.0280037  13.9844573  37.7467823 105.3879166  14.0476477  38.4556794
 106.7969418  13.5848188  38.1532931   6.4279227  14.3452251  32.0378447
   5.5928664  14.8121846  32.0084143   6.2076907  13.4825778  32.3893690
 112.5976467  56.6103840  12.7022648 112.6884937  57.2369099  11.9843185
 113.4973049  56.4094591  12.9600942   6.8031077  45.9618473  47.2845650
   6.1767440  46.1658001  46.5900850   7.1553187  45.1045799  47.0452547
  76.5747356  26.3188696  28.2652330  76.6617107  25.9858727  29.1584182
  76.5475321  27.2703695  28.3659434 115.4549503  42.1744299  44.0588903
 115.1504040  43.0447388  43.8019085 116.3134098  42.0889616  43.6441994
   1.4537768  43.0961370  31.4138222   1.3382487  43.8304520  32.0168710
   1.8056922  43.4934664  30.6172562  30.9911799   8.6523241  20.7063413
  30.8691049   9.6015894  20.7213068  30.3831339   8.3221877  21.3677955
  17.8869586  19.4108653  70.1021576  17.4446921  19.4426787  70.9504652
  17.3065238  19.8906672  69.5112944   9.4082598  19.2496324  15.4760182
   8.4905963  19.1413498  15.2262402   9.8877673  19.2122018  14.6484280
 117.3023224  16.3173127  10.5785573 116.5539932  15.8012164  10.2787519
 117.2931099  17.0972228  10.0236833  86.7911356 106.6243447  36.9936061
  86.7607611 107.1806149  36.2152267  86.0216158 106.8811278  37.5016737
   0.2819495  46.6338921  13.5908198   0.7749514  45.9004593  13.2230437
   0.8460288  47.3948193  13.4528756   4.7311454  39.0399003  23.2663178
   4.9533515  39.4534492  22.4321508   4.8840384  38.1065202  23.1191492
   9.4686656  15.2489710   7.5004596   8.8572078  15.2259386   8.2365453
   8.9896540  15.6999707   6.8052042  93.8468552  21.7081642  21.5527582
  93.4319210  20.8845687  21.2963295  93.1185055  22.3197079  21.6612077
  72.2196865  21.9527340  12.4072707  71.3735247  21.7932153  12.8253603
  72.8378010  21.4185548  12.9060876  92.7013397  23.5066819  31.7405939
  92.3045826  23.4223509  32.6076031  91.9734383  23.3842540  31.1311603
 100.6313610  48.1803560  11.9231594 101.1569977  47.9302406  12.6830161
 100.3008938  47.3513126  11.5771604 110.7879543  27.7117729  46.5074921
 111.2147427  26.8644547  46.6345167 109.9256325  27.6083255  46.9098949
 106.0304260  19.4766819  41.7364168 105.5768967  20.0994921  42.3044443
 106.2080288  19.9689078  40.9349155   7.2724204  39.5398235  29.3789697
   6.7762332  40.3581619  29.3978667   7.8678374  39.6378493  28.6359382
  65.2194309  48.2080698  24.0477276  64.4013405  48.2374716  24.5438099
  65.8834982  48.5206413  24.6621728  79.3774223  20.2493620  50.6965256
  79.2172480  20.6069064  49.8231745  80.3143024  20.0534773  50.7070112
  92.5448036  60.3084469  51.0850573  93.1348991  60.9670830  50.7186985
  92.0925426  60.7614326  51.7967510   1.4317279  12.6990223   5.9750873
   1.9774298  12.1303725   5.4318702   1.9273906  12.8017831   6.7874843
 108.4087276  53.9148045  44.5834398 109.1482735  54.0435266  43.9895296
 107.8383732  54.6664095  44.4221497   0.4006247  33.6361194  56.4623499
   0.8918433  32.8275967  56.3166428   0.9357600  34.3179798  56.0562277
 100.6342506  12.8746998  61.7927742 101.1689854  13.6562729  61.6533518
 100.3465462  12.6217294  60.9155846  15.1978736  19.2909956  31.4565182
  16.0802130  19.0067661  31.6951060  14.9238448  19.8543954  32.1802044
  98.0907059  11.4996922  75.9776783  98.7491417  11.0262835  75.4691696
  97.9737663  12.3256111  75.5081940  15.3090911  10.2004421  22.5188756
  14.6426253  10.5176628  21.9094276  15.4534774  10.9326398  23.1182671
  99.3661213  30.8282113  63.0677080  98.7513161  30.6456614  62.3571301
 100.2031803  30.9769821  62.6278925  90.8223343  72.5592518  41.6992044
  91.2562466  73.3047724  42.1141243  91.0785198  72.6149797  40.7786131
 113.7478924  26.5178275  35.6173682 114.6960258  26.3876033  35.5997372
 113.5949421  27.2461772  35.0154185  -0.0830503   4.3928668  43.0073547
   0.7279162   4.2231756  42.5280142  -0.6055017   4.9298871  42.4116325
 109.4586945  26.3411832  25.0908065 110.1108360  26.2635756  25.7871747
 108.7463093  26.8446445  25.4848313  41.4021622  99.6180242  88.7853655
  41.8787419 100.1930469  88.1866655  41.4696442  98.7497752  88.3880976
  83.1810379   6.0781395  29.3174362  82.2861671   5.8050025  29.1153646
  83.0942440   6.6233099  30.0994158  95.0066090  30.9540415  19.4917738
  95.4761410  31.0537887  20.3199196  95.4209232  31.5857434  18.9039552
 103.0552387  15.8876693  51.9505262 103.8298798  15.6206977  51.4556742
 103.0038548  16.8348610  51.8223810  10.2238230  21.5810132  21.1770582
  11.1754088  21.6415930  21.2609911   9.8858409  22.1654201  21.8556356
  22.2310483  63.9885103  87.9912951  23.0404889  63.9882832  87.4803760
  21.5378892  63.8699716  87.3419055  92.6509953  31.8275356  35.8553028
  92.2309971  31.6309571  36.6926718  92.9169273  30.9735394  35.5144119
 112.7881432  15.3497291  24.5661592 112.8929329  16.1999869  24.1391778
 112.6884556  15.5587816  25.4949164  81.7907351 109.2220543  20.3116870
  81.3257616 108.5470046  19.8173785  82.4199312 109.5848347  19.6882045
  12.1313052  41.3027191  47.7850056  11.7548518  41.9838619  48.3422852
  11.4201121  41.0572290  47.1932507 107.2316742  35.5939817  48.4411812
 108.0128384  35.3396869  48.9324570 106.9577885  36.4208674  48.8380194
   1.5218978  35.6677103  20.5087042   1.2130885  36.4794564  20.1062894
   0.7294612  35.2526522  20.8492851  46.5263020  93.2003635  96.2406167
  46.5961491  92.7678769  95.3895546  46.6456353  92.4960273  96.8777197
 114.9237251  14.5766497  16.2580216 114.3191528  13.8414657  16.3592124
 115.1153183  14.8542321  17.1538293  85.6893921  55.1145887  34.0204334
  84.8641300  55.5969572  34.0704179  85.7289314  54.6220016  34.8402071
  91.8518162   9.3263161  45.8148098  91.3528347  10.1429701  45.7966805
  92.7245998   9.5720476  45.5080700  15.4216723  46.7358446  19.3177652
  14.9205642  47.5384045  19.1728032  14.9972491  46.3208008  20.0686550
  13.1658129  45.4330921  41.2618113  13.8346724  45.8584118  40.7251930
  13.4962611  44.5449686  41.3970041  88.2605267  73.2639217  45.8775949
  88.8565063  73.9465666  45.5693007  88.1843281  72.6607227  45.1382875
  72.6056021 108.9587657  52.0862722  72.4188727 109.6115632  52.7609730
  71.9565695 108.2706086  52.2326708  91.0206413  25.2857351  74.8773479
  90.8261967  25.5734992  73.9853764  90.1651955  25.0806403  75.2546883
 107.4206448  42.3875237  29.4321060 107.3963356  41.9747448  30.2953863
 108.2146740  42.9219389  29.4444323  73.8463879  32.2030330  13.1216896
  73.7168932  32.1474314  14.0684581  74.5222998  31.5518451  12.9337442
 112.5104427  30.3368473  38.5849214 113.4431267  30.5332494  38.4967661
 112.4795628  29.5772886  39.1665983  94.5438194  47.4071980  34.8437762
  94.4034100  46.4745283  35.0070119  95.1743412  47.4321175  34.1240120
  77.7517432  93.6533220  22.9673219  77.9755896  93.5456414  22.0429158
  76.9610708  93.1268425  23.0851936   0.1777445  50.4150283  76.8128672
   1.0328328  50.7303845  76.5202907  -0.4513277  50.8896675  76.2695244
   6.8582682  46.9435644  29.9158978   7.4463706  47.6966190  29.9732065
   6.7185740  46.8196678  28.9770865   3.4393840  42.9568243   8.9838356
   2.5393920  42.6343822   9.0315223   3.9532714  42.1942091   8.7181669
 104.4280529  26.2875366  34.8575759 105.0762081  26.7266870  34.3068743
 104.5854092  25.3542137  34.7148204  82.7015495   5.2476913  32.3107767
  82.6484489   4.3024418  32.4518991  81.8926525   5.4666013  31.8481684
  25.5665927  49.0958834  40.0759220  24.7650771  48.8069153  39.6396828
  25.2659468  49.4795275  40.8997250  82.3687666 102.4015714  17.5577617
  82.6603239 103.0327029  18.2157159  83.1311911 101.8426431  17.4076176
  71.9111460  96.3255794  55.6737757  72.3347872  95.5524893  56.0467196
  71.0746878  96.0022826  55.3390408   4.7190432  18.9341176  65.4011917
   4.1239886  18.2080293  65.5881119   5.4689555  18.7834370  65.9766626
  28.3323418  87.0913976  70.8313349  27.5141846  87.0696753  71.3277057
  28.7948643  86.2965983  71.0970405  66.2690180 105.6979765  10.5710089
  65.8383768 105.0156463  10.0560260  65.6479090 105.8972491  11.2715447
  23.0346238  87.6884359  75.4995611  23.7990223  87.6251453  74.9269155
  23.3752667  87.5044029  76.3749626  15.7947289  86.8537777  75.0957253
  16.6004120  87.0218628  74.6069959  15.6990563  85.9015077  75.0795939
  27.7045207   1.4223002  75.4250717  27.8253131   1.0620783  74.5465040
  28.1745963   0.8171964  75.9987497 100.8710861  37.9430223  92.7023029
 101.6696453  38.4705734  92.7172565 100.8249283  37.6036572  91.8084812
  15.7205062  33.3329415  37.3024440  15.9127669  32.9045177  38.1365442
  16.5566687  33.3362579  36.8365526  98.1055260  28.6388278  20.7072806
  98.8851738  28.4029555  20.2045417  98.3854198  29.3742466  21.2523103
 107.6489752  97.8407211  24.1691947 108.6036127  97.8737600  24.2309451
 107.4678534  97.8893669  23.2305455  86.2688082   0.2721022  79.2788961
  86.6782397  -0.4159214  79.8035160  85.5906027   0.6357668  79.8481205
   0.0847869  41.8311262  39.9468875   0.6358199  41.3147974  39.3586636
  -0.5990072  42.1898365  39.3812180 102.1669197  67.9187489  14.2907298
 102.1464443  68.7932062  14.6794987 101.3730812  67.4936771  14.6153414
 107.4269485  35.2093577  14.3585312 106.6117764  35.3669310  13.8821864
 107.8979397  34.5711660  13.8227022 110.9241962  49.4459486  49.6372366
 110.2883148  48.7592316  49.8380041 110.4248047  50.2602243  49.6988058
  93.8585663  17.9663408  65.9292936  93.5846710  18.1740630  66.8226337
  93.6216736  18.7413001  65.4198313  78.7328529   5.9680277   6.2308317
  79.3840599   6.0930300   6.9211507  78.9254427   6.6549617   5.5926597
  82.0730400  20.8673549  28.4586596  81.2103271  21.0166430  28.8455462
  82.5411892  21.6915512  28.5919571   0.6506972  11.1155427   1.9756098
   0.9249453  10.2093124   1.8350177   1.4587264  11.5788126   2.1963128
  73.8508034  22.5077581  31.9852138  74.7287893  22.1522880  31.8473220
  73.5995817  22.1950722  32.8543186   2.3927455   5.7559758  29.4762921
   2.8775363   6.0604137  30.2434468   1.8080954   6.4819974  29.2587948
 112.4018097  28.8410139  58.8599777 111.6929054  29.2846203  59.3256998
 112.2425747  27.9095650  59.0125322  94.3002796  20.7493067  54.2656660
  94.1781902  21.6556501  53.9830589  93.9373875  20.7235408  55.1510382
  76.6617220 100.6047792   8.6206859  75.8075445 100.1969547   8.4782064
  77.0079439 100.1695914   9.3997705 108.8113213  42.1379232  22.5522161
 109.1192055  42.9074526  22.0734000 109.6008396  41.6183615  22.7036834
 111.5487003   3.8494456  58.0677652 110.8115578   3.8596806  58.6783028
 112.0208073   4.6622390  58.2486391   1.3390116  10.6968367  19.0105462
   1.1791568  11.4255953  19.6102035   0.8023124   9.9823087  19.3535137
 102.6539040   1.3630277  53.6852884 103.4285545   1.7415828  53.2695436
 102.0774269   2.1106429  53.8433313 115.1037025   6.0074908  40.0203753
 114.2762280   6.4829248  39.9463630 114.8611832   5.1619244  40.3977776
 104.8648930  12.4136674  34.6298766 105.7459068  12.1318340  34.3836880
 105.0031948  13.0349898  35.3447628  68.4337347  97.6945348  41.9089890
  69.1517657  97.6459772  42.5401020  68.8608187  97.8894479  41.0748148
  51.7898785 103.0393069  93.4871319  51.9924962 102.9607337  92.5549275
  50.9091889 102.6741450  93.5724288 101.9570923  58.3672190  42.9211044
 101.8994331  59.2497253  42.5549173 102.1141815  57.8034163  42.1636820
 110.8984184   9.5597732  17.5935066 111.3858604   9.5430356  16.7698812
 111.5083694   9.2045808  18.2400584   7.0047049  37.5560284  36.0176086
   7.3215441  36.8329906  36.5589571   7.7403884  38.1672359  35.9798741
  86.9730186  35.3781199  63.8931084  86.6306210  35.1696348  64.7623205
  87.7504921  34.8270082  63.8034296  81.4973658 109.1429126  29.7534800
  81.6252154 110.0862710  29.6536732  80.7094687 109.0635569  30.2912116
 106.7439175  40.4438448  43.4075356 107.4057102  40.0278139  43.9599657
 106.0632801  39.7784042  43.3067703   9.2614512  47.0526886  36.7859793
   9.1098170  46.1431265  36.5292072   9.5461325  47.4846411  35.9806180
  11.6777568  68.5978079  32.0611191  11.1885505  69.0028095  31.3449645
  12.3524241  69.2394590  32.2832537  12.2061877  62.3520041   8.6459273
  12.3971896  61.4309263   8.8230377  11.4649920  62.3308086   8.0406100
  14.7435431  21.7203474  14.2825842  15.2310519  22.1145225  15.0059092
  15.4042105  21.5566278  13.6095738   6.1679036  92.2991611  17.3833725
   5.4522998  92.9283358  17.4743721   6.0883004  91.9739367  16.4866421
  52.7631272  12.2709615   1.8981812  53.3269156  11.5248734   1.6939137
  51.8916524  11.9983107   1.6110870  67.8326828  96.0154201   5.8888027
  67.1619875  96.6418125   5.6167194  68.3396346  96.4811279   6.5538952
  94.5484281  15.8972127  30.3078434  95.3964628  16.0131890  30.7363579
  94.7557724  15.4644877  29.4796059  26.6256523  26.0028839  91.9078541
  27.5385618  26.2465191  92.0610428  26.6398644  25.0478196  91.8455315
  50.1593453 101.5579416  13.6780426  49.4347734 102.0558120  13.2994339
  50.9033353 101.7448284  13.1055233  34.2976046  60.6470108  88.8846207
  35.0122547  60.2949190  88.3540154  34.4546437  61.5910864  88.9017487
  92.1363927  15.7290084  35.6448910  91.4980007  15.0514800  35.4220840
  92.4464775  15.4881341  36.5178463  61.2655486   4.1614444  50.2553436
  60.9128154   3.2717664  50.2722714  60.9683360   4.5210702  49.4195435
 113.0147565   5.9932000  12.2403786 113.1478036   6.4005381  11.3844463
 113.7844075   5.4375703  12.3634407  83.5758875   0.9103734  38.0669853
  83.7619171   1.0206897  38.9994309  84.2857350   0.3546531  37.7452442
  83.4380789  88.6579895  96.1241913  84.1981716  89.0372753  96.5653610
  83.0613442  88.0588722  96.7686749 117.3419154  57.1778584  73.5541534
 116.6625638  57.6365852  73.0599070 116.8940161  56.8589830  74.3376923
 116.6605668  77.4985123  77.4320936 115.8245133  77.1343231  77.1412134
 117.0358291  77.8946829  76.6456747  17.9025858  39.8707063   0.3187439
  17.7733629  40.3309590  -0.5105331  17.1630018  39.2656285   0.3746292
  70.9765358   9.9195821  17.6310608  71.7602838  10.0413043  17.0951912
  70.5757559   9.1196019  17.2910091 106.8185438  17.8287227  23.1928608
 107.2388400  18.5942704  23.5846874 107.1268500  17.8237826  22.2866890
  15.7877499  92.4052717  38.2491753  15.3033954  92.5691916  39.0583489
  15.1383144  92.0332171  37.6524803  15.0107181  75.6681442  94.0322781
  15.6397283  76.2980318  94.3841553  15.3731024  75.4169035  93.1826973
  66.0756505  18.3831412   9.6688911  66.8239106  18.2482964   9.0873787
  66.2552060  17.8230435  10.4240677  11.3072026  90.0850296  70.0448132
  12.0738852  89.7408962  69.5865583  11.6649187  90.7148075  70.6706381
  22.0310235  83.6389637  84.8520660  21.5298653  83.7073612  85.6647110
  21.5928292  82.9460335  84.3580341  72.1646268 108.7752582   1.1445877
  71.9820315 107.9166748   1.5263245  73.1150157 108.8689949   1.2094376
  24.7000081 104.6073009   3.1272480  25.3246135 104.7207166   2.4108383
  24.0180392 104.0427639   2.7633068  35.1602000  92.4817850   9.6325848
  35.3058076  93.2130195  10.2328560  36.0374633  92.1487691   9.4435284
 110.3472675  20.0032002  46.1203262 110.1649774  19.2990166  46.7425224
 111.1230219  19.7071606  45.6440899  35.6804770  21.4994389  26.3905403
  34.8019522  21.1205441  26.4198277  36.1166876  21.0377414  25.6744453
  98.5667540  33.9253384   4.7156879  98.6556734  34.7285420   5.2287170
  98.0482114  34.1839463   3.9538071  14.9067521  79.8204041  85.8265400
  14.7901952  78.9664841  86.2430382  15.8557105  79.9280357  85.7623291
  41.7928540 110.7057096  30.2915833  42.4222866 110.1346637  29.8511765
  42.2750387 111.5175344  30.4486534  10.0767619   6.4979510  90.6193066
  10.7565099   5.9397082  90.2417755  10.2335698   6.4614444  91.5628719
 115.6741218  46.2609959  95.1361370 115.1544909  46.8325853  94.5708942
 115.0265007  45.7337379  95.6039143  59.9455649  98.0019762  34.5575211
  60.8737833  97.7733757  34.5086739  59.8369223  98.3770134  35.4314587
 103.8770564  57.1263933  94.3277264 102.9984040  56.7509079  94.2710686
 104.0255542  57.5192738  93.4675980  33.9752752  88.2598330  15.1171562
  33.5417325  88.8507177  15.7328865  34.4843525  88.8377072  14.5487091
 112.2347702  83.5781002  75.5441809 111.6739209  83.0595493  76.1210585
 112.5149400  82.9630852  74.8663235  48.5207481  82.8055598  18.3087322
  48.0940599  82.1948864  18.9097759  49.0102536  83.3992817  18.8780472
  32.7758312  48.4302568  89.6102238  32.3064590  47.7164698  89.1784477
  32.2811127  48.5906696  90.4138088   5.6450856  70.2282381  83.1854725
   6.4023203  70.5270052  83.6890221   4.9674076  70.0705481  83.8428307
  42.1520329  59.7058535  89.4014835  42.8592730  60.1249170  89.8918247
  41.5177393  60.4065275  89.2499733  59.1302252  49.9526691  88.9468193
  59.1261578  50.8974028  88.7928963  59.6373606  49.5935535  88.2187557
  72.0624776  39.7430665  54.1007301  72.1536071  40.1487500  53.2385513
  72.7710510  39.1006715  54.1392681  95.4407168   8.2508284  14.3056175
  95.6866027   7.3980815  14.6642086  94.4851507   8.2666880  14.3592236
  85.5040580  67.1896579  22.3966381  86.3651926  67.1103729  21.9862911
  85.5342180  68.0285932  22.8565476  57.6737088  98.9418556  19.4931290
  57.8977758  98.7350513  18.5857937  56.8756873  98.4412576  19.6628258
  48.2586527  97.0685484  15.4373524  48.9254237  97.4635364  14.8755428
  48.7527347  96.5176489  16.0444996  14.6141124  68.2599688  94.2148972
  15.3590965  67.6615858  94.1585922  14.9930763  69.1279554  94.0762711
   3.8067501  45.4738766  10.0336525   4.4068306  45.9560162   9.4647190
   3.7261360  44.6133286   9.6223232  87.5219495  30.9332997   9.2335579
  88.4520740  30.7636887   9.0841171  87.0740355  30.4233701   8.5585949
   5.4508912 102.8248455   9.9603149   4.5897042 102.4079611   9.9883244
   6.0433709 102.1313478   9.6700260  25.9665275  64.4689751  89.6396637
  25.6550217  65.0020170  90.3711414  25.5626917  63.6123180  89.7785378
 106.6449655  24.2172534  21.7186996 106.9383372  25.0334985  22.1235535
 105.9482921  24.4842202  21.1190197  41.7284017  96.7855837  17.0895645
  42.1648065  96.8412353  17.9396698  42.4095139  96.4804842  16.4901993
  47.6188434  82.9472162   2.0481751  47.2698141  82.6784136   2.8979752
  48.1166631  82.1887685   1.7429516  61.6578895 106.4291860  28.8876411
  61.7234093 106.0767032  29.7751686  62.5099427 106.2438442  28.4928200
  98.1716443  39.3695599   9.9750588  98.7082661  39.4460446  10.7639954
  98.6527694  38.7591225   9.4163868  22.9209286  94.4009306  28.4416363
  23.1088084  94.2397429  27.5170013  22.3622448  93.6691763  28.7036297
  49.4151676  92.1167208   4.9731419  48.5240257  91.7858507   5.0854942
  49.9668438  91.3352157   5.0068352 108.0557354  75.1861525  86.2818241
 108.9357854  75.4170179  86.5792179 107.9966648  75.5540466  85.4001236
 106.2150324  27.9177815  33.4349033 106.2901414  28.6486584  34.0484306
 106.9382466  28.0451829  32.8209278  66.4979560  97.6100971  20.2793572
  65.7656605  97.0506479  20.0205299  67.2773153  97.0886852  20.0870964
  51.1195267  10.7163150  46.5614674  51.7649353  10.1711470  46.1115047
  51.5640653  11.5535743  46.6941902 110.5255712  40.5361230  20.7938168
 110.6439961  40.3722245  19.8582241 109.6910180  40.1183278  21.0064194
  76.3020021 110.6757118  26.3868687  75.8726627 109.9564554  25.9236404
  77.1333272 110.7941343  25.9273979  89.6106673   4.5551163  10.6590530
  90.5436517   4.3411691  10.6583664  89.2284800   3.9621074  10.0121281
  39.7894743 100.3038933  37.1486828  40.2484455 100.1465418  37.9738018
  40.4859024 100.4899980  36.5189335  53.3153022   0.9640462  23.3330414
  54.0302194   1.5549332  23.5696384  53.7525977   0.1686723  23.0290958
  24.8538256  54.2646313  88.9692116  24.3603802  53.8458014  88.2639980
  25.7419348  54.3496180  88.6224174 112.7750982  11.6527278  30.3686306
 111.8984974  11.9149596  30.0874970 112.7323307  10.6982810  30.4272053
  20.0578612  32.3816163   7.1499130  19.4675129  33.0129391   7.5611946
  20.8546179  32.4187714   7.6790878 109.6484102  12.1303756  20.3095123
 109.5579089  11.2838370  20.7470200 109.1344870  12.0413358  19.5069000
 100.9333266   4.6543891   8.1098339 100.5485500   5.1324946   7.3752663
 101.8556107   4.5546157   7.8738949  73.9733661  53.1786496  12.8180573
  73.3895380  52.6267583  13.3384392  74.1578303  53.9301640  13.3814690
  47.0552356  90.7562091   5.3985474  47.4707211  90.0354792   5.8719894
  46.8343807  90.3856708   4.5440552 114.3170036  48.7904984  19.8723290
 114.1974653  47.8409631  19.8904011 115.2391685  48.9115483  19.6460697
  95.1148153  34.8343236  36.8518898  94.6482552  34.1750867  36.3381359
  95.9266687  34.9848801  36.3676807  86.8269981  30.5146367  12.0180389
  87.0290024  30.8369119  11.1396572  87.5951035  30.7456166  12.5404331
   8.4752607  79.1369247  89.5783329   9.2155182  79.7398281  89.6473122
   7.7135623  79.7050714  89.4631767  27.5528068  84.0931203  16.7114040
  27.7745229  83.9498378  15.7913277  27.2072679  84.9853708  16.7383644
  24.3966269  84.0658188  74.7168493  23.6502671  84.3015862  74.1658545
  24.0072560  83.6232090  75.4709768 109.2372120   7.3366887  17.2006199
 109.6808160   8.1833560  17.2516129 108.7924398   7.3499924  16.3531277
  55.6249756  83.3461072   9.0331909  55.6009824  82.4037720   9.1995022
  54.8587877  83.5119702   8.4839413 103.9414800   2.2278411  19.1188118
 104.2032183   2.5877101  19.9662945 104.6402968   2.4918896  18.5203430
  88.9952446   7.8964526  30.6604931  89.8254121   8.1964976  30.2903244
  88.4261859   8.6653954  30.6269047  88.4222669  44.9176080   2.5138447
  88.6487461  45.6326634   3.1085178  88.6913914  44.1252477   2.9785797
 108.2838477  27.6804883  19.8134872 107.3313106  27.6605756  19.9057171
 108.5929001  28.1084592  20.6119606  91.7775417  25.3778130  29.2829010
  91.0220958  25.9556825  29.3905899  91.4505077  24.5096356  29.5185825
  58.3101815  90.6346585  23.8583729  58.5874933  91.5286924  23.6582920
  57.8348822  90.3508927  23.0774757 114.2125882   1.6838462  12.9186604
 113.8904179   0.8010108  12.7368900 114.1167177   1.7835099  13.8658211
   7.2726887  32.7173233  79.7731447   8.0416304  32.1786237  79.5867014
   6.5288186  32.1368670  79.6120310   0.7976502   8.3678443  28.6952946
   0.0992316   8.3787209  28.0408260   0.3585809   8.5846431  29.5177528
 116.0264479  95.5579948  85.5181694 115.1645298  95.4404640  85.9175682
 116.1123924  94.8214531  84.9128914  97.2155298  12.5276095   7.9827759
  97.9023672  12.9266221   8.5168812  97.6732911  11.8759496   7.4517128
 103.3726950  60.9347343  80.0422764 103.1796701  60.9214354  80.9797192
 104.1742749  61.4528990  79.9701166  68.1057865  81.4567377  19.9261639
  67.8139312  82.1076705  20.5643913  68.8301355  81.8806197  19.4658634
   4.0689352  61.3237143  88.1222630   3.3626086  60.9475183  87.5970936
   4.1135961  62.2383499  87.8435612 105.3847564  14.0811402   6.8172428
 105.9656323  14.1699559   6.0616371 104.6697129  14.6931416   6.6428921
 115.5482595  59.5908356  55.6973934 115.2473055  60.4979372  55.7505083
 114.7878627  59.1044664  55.3788424  94.8654414  28.9132554  44.9979374
  94.6450747  28.1867081  44.4150135  95.8219911  28.9104611  45.0331089
  48.7345428  97.3118259  37.1602604  49.3823207  97.8805544  36.7441341
  49.2545641  96.6761543  37.6519272  89.4293195  63.0370386  16.2971088
  89.1461212  62.2753461  16.8029282  89.4926960  63.7422253  16.9412586
  89.1445518   7.8621966  40.1119682  88.6843569   7.6724822  39.2943737
  89.2903222   7.0037467  40.5095169  75.5739886  73.4902550  30.8431503
  75.5793125  74.1510476  31.5356514  75.3258449  73.9721240  30.0541851
  53.8217479  49.5510741  19.0410683  53.5733170  50.4622795  19.1966888
  54.0023190  49.5090856  18.1019947  60.5589581  81.3028145  95.5821514
  60.3027487  80.3809643  95.6098175  61.4886427  81.2999630  95.8099937
 105.1217044   1.5704734  13.1587574 104.4728983   2.2737653  13.1330177
 105.8948101   1.9722087  13.5551807  17.3053741  65.0413513  86.4653778
  18.0528426  64.7059393  86.9603634  17.6952863  65.5930376  85.7872581
  57.0105256  26.9147450  12.4931213  57.6215423  27.6505906  12.4553844
  56.1734808  27.2837788  12.2113487 101.4937134  62.4038458  86.8984795
 100.6782801  62.8775978  86.7345905 101.3552804  61.9735241  87.7422142
  17.1801812  96.9407703  16.7366764  17.8701503  96.2842609  16.6409370
  17.3691065  97.5876667  16.0569260  83.7652985  49.9183614  34.2940781
  83.0425853  50.2482850  33.7601635  83.3959780  49.1680295  34.7597382
  33.8643742  40.4689646  79.1644573  33.7782454  39.5326447  79.3436909
  34.5894027  40.7536221  79.7208166 107.4718822  32.6668889   2.1892044
 108.1754769  32.9965455   2.7482292 107.0661105  31.9678838   2.7020046
  11.1952084  45.4352814  48.4705994  11.8494290  45.2270753  47.8036091
  10.9987753  46.3618619  48.3324024 104.1802085  34.3555981  19.0385410
 104.5688475  35.0462205  18.5016605 104.7205699  34.3335206  19.8283169
  89.1350318  16.3958842  54.3775341  88.5400201  16.5189320  53.6379025
  89.0159274  17.1798093  54.9137280 112.4516977  18.0003983  23.3555672
 111.6686548  18.5062272  23.1382820 113.1084383  18.6598832  23.5791847
   2.3558062  38.8682610  66.0887310   1.4601296  38.8816792  65.7513592
   2.8775805  39.2790849  65.3993771  27.6619477 109.8075964  35.4771301
  28.1045133 110.4212572  34.8908016  26.7306060 109.9971725  35.3635761
 100.3145779  19.6305329  22.0337364 100.0967301  20.1989610  21.2950394
  99.5776642  19.0225798  22.0935890  70.3474338  25.0087983   1.8629715
  70.4041750  25.3574902   2.7525970  71.0941012  24.4142396   1.7906830
  85.7588697  41.3185651  17.6625702  86.2982852  41.4211995  18.4466145
  85.6255246  40.3738267  17.5855801 101.3271154  22.2716958   5.9956715
 101.2393249  21.7649705   5.1883575 102.2339834  22.5779254   5.9888241
  88.2650096  36.0464341  19.3508789  88.3195383  36.1579282  20.3000042
  89.0391863  35.5306203  19.1254494  59.4532711  99.5072939  11.4717457
  58.9672596  99.2998411  10.6736347  59.5360357  98.6690761  11.9264767
  31.7878866  33.1396866  91.9178581  31.0586071  33.0021572  92.5224018
  32.4445319  32.4962449  92.1843815  21.6271234  67.7183962  89.9936771
  20.7189679  68.0019855  89.8885059  22.0641232  68.4628010  90.4073429
  16.5469050  83.0534649  83.8572407  16.4951968  82.4201488  83.1413746
  16.2242079  83.8708115  83.4777069  40.7462710   5.5832202  14.4011280
  41.5379732   5.0783307  14.2153236  40.7736605   6.3094909  13.7782261
  20.3728223  90.7808971  94.4160175  21.3047981  90.9180737  94.2462063
  20.2243805  89.8587704  94.2065430 110.4161633  14.0018231  22.1024487
 110.3928626  14.8873908  21.7398712 110.2931512  13.4295995  21.3450405
  64.3691785  99.3289758  28.0986378  65.2995855  99.2517473  27.8874180
  63.9548427  99.5710470  27.2704098   1.9445055  21.5709407  57.9712746
   2.0870226  22.2489459  57.3107979   1.0410994  21.7028291  58.2588360
  93.6042822  15.6297261  68.9547131  92.7441169  15.5716378  69.3706104
  93.4612299  15.3119141  68.0632183   2.9012078  28.6441190   0.7969734
   2.3162239  27.8879506   0.8442661   3.5639113  28.3943612   0.1530144
  91.1642970  16.6619355  43.0330059  90.9873355  17.5846011  42.8497002
  92.0281185  16.5034968  42.6522991  94.5820178  34.1140706   2.4039909
  95.5119217  34.2435510   2.2175953  94.2998482  33.4557587   1.7689774
   4.6340054  12.2281892  32.9846260   5.2615612  11.6152770  32.6015350
   3.9281004  12.2821194  32.3403999  68.6011649  87.9348904  24.3720314
  69.3273009  87.3136670  24.3169472  68.5469986  88.1582314  25.3012344
  83.5134763  22.5839335   2.0230457  83.9133413  22.9404170   1.2297794
  84.1325433  22.7989299   2.7207253  73.2272376  22.4232442   7.1492645
  73.5780323  21.5450818   7.0009205  73.1305713  22.4851662   8.0995533
  42.4665961  85.3354503  10.1456234  41.7230753  85.8965208   9.9251530
  42.7309722  85.6208469  11.0202000 101.1860097  13.7734658  24.5545456
 101.6256751  14.3126399  25.2119801 101.8976320  13.4133059  24.0252945
   4.9074617  35.3849292  87.3026466   4.4612354  35.7012963  86.5171337
   4.6767813  36.0194993  87.9811287  33.6919380 109.0015222  75.1148388
  34.5487670 109.4281007  75.1045010  33.0693758 109.7176124  75.2407810
  91.3591701  15.6417327  91.3435078  92.0033676  15.3480201  90.6993294
  91.5393001  15.1128059  92.1207047 100.6291736  11.7590195  11.8176243
 101.4199699  11.7744548  11.2785122 100.5824102  10.8620841  12.1486065
  82.0236007  30.4103143  51.2291309  81.0831715  30.2561528  51.3189098
  82.3861645  30.1845509  52.0857594 105.9208978   1.0014827   8.1889126
 106.1690606   0.4757077   7.4285099 106.4715112   0.6709058   8.8986847
  52.5616182  29.9945218  31.4787647  53.5128702  29.9707467  31.3749001
  52.2601045  30.5860669  30.7892773  16.7086333  36.5543515  29.5422432
  16.6808003  36.5490395  28.5854694  16.6532868  37.4803311  29.7783253
 112.0359505   9.9919087   4.8415634 112.2468317  10.3243357   3.9690659
 112.6987542   9.3219859   5.0092861  56.7791666   5.6951958   7.1337673
  56.3338388   6.4994675   7.4003479  56.7137612   5.6904513   6.1788151
  94.0197671  25.7788331  27.4353859  93.3107961  25.5772645  28.0460903
  94.2870773  26.6690308  27.6641247  27.2724724  59.0605402  93.8437843
  28.1714106  59.2543125  93.5780811  27.3603559  58.3687067  94.4994259
 110.7039173  88.7258720  79.3486500 110.5603619  89.5039082  78.8098717
 110.4722918  87.9932117  78.7778664 100.8083374 110.6047107  32.4519798
  99.9508459 110.7023193  32.8659985 101.3155348 110.0809623  33.0721924
  55.8437568 103.8049413  42.5210545  56.4807111 103.6405088  41.8257305
  55.4034633 104.6126272  42.2564384  50.8321571  65.8997774  77.0737743
  50.8706570  65.0102758  76.7222929  51.7112350  66.0599422  77.4169970
  68.2251484   3.0435329  91.4063358  68.5286218   3.4355121  92.2251606
  68.8789303   2.3741584  91.2044811  72.2820026 110.1604225  11.5387985
  71.6142089 109.7246935  12.0683453  71.7853743 110.6990816  10.9228107
  62.8990585  99.1229345  30.6406376  63.5660798  99.3581440  29.9956581
  62.1594531  99.6966316  30.4404232  98.1256963  59.1713387  33.0531094
  97.1876455  59.0467221  33.1972096  98.5317160  58.3908707  33.4302685
  63.8662321  62.8032757  16.0616848  64.4872529  62.0810308  15.9671852
  64.1459996  63.2572557  16.8565819  75.4351050 106.8195440  21.7572662
  76.0103399 107.5550605  21.9678757  76.0172087 106.0601427  21.7309067
  30.3040218 111.5075684  94.0622139  30.1731491 110.6048107  94.3522835
  31.2539506 111.6006470  93.9901066 106.0048879  36.6150815  29.2962429
 106.2509669  36.0062844  28.5997936 105.8376039  36.0560376  30.0550053
 109.7913486  99.7245313   7.0429108 109.7310526  99.0395595   6.3770268
 109.6142704 100.5365183   6.5679810 111.3936962  13.1774957  34.5616695
 110.8868779  13.0863530  35.3685543 110.7620061  13.4956319  33.9166996
   6.1893528  17.1869761  21.7925236   6.7844456  17.6117236  22.4103329
   6.5292185  17.4255139  20.9300682 116.2254013  30.1933057  20.6068584
 116.3060726  29.6874005  19.7982857 115.2826441  30.2441747  20.7645103
  92.4574007   3.9095551  54.6875736  92.9669679   4.6381718  54.3330452
  92.5663019   3.2069213  54.0467426  12.0400971  34.6507127  22.4455711
  12.2420710  34.1946370  21.6286060  12.6694124  34.3015820  23.0766842
   2.9476422   7.9446799   9.9212048   2.5077599   7.6314885  10.7115528
   2.5123566   8.7723166   9.7168324  60.5239416  29.5058019  20.3802559
  60.9061945  30.2489049  20.8470604  60.0191105  29.9028165  19.6705029
  33.4930099  78.5414554   1.1672184  32.7761829  78.6948969   1.7827293
  33.9304239  79.3896033   1.0927269  92.9700066  26.4654404  13.6522076
  92.8127826  25.7667500  13.0171082  92.9602672  26.0238606  14.5014069
  96.8839151 109.5521738  21.0846874  97.5399906 109.9350168  21.6671249
  96.1533100 110.1701690  21.1078331  99.6255983  20.3735310  41.7902443
  99.5017613  20.2970273  42.7363178  98.8372363  19.9830014  41.4131424
  18.1300092  70.5574369  68.9257336  18.8140178  70.0978374  68.4387684
  18.6035073  71.0530329  69.5938778   4.6116319  90.2016830  87.0469284
   4.0795657  90.1787567  86.2515640   4.0633935  89.7882748  87.7138329
  83.9560986  47.6006562  28.4931824  84.7730351  48.0493695  28.2752487
  83.5634188  47.3928506  27.6453278 115.1750840  23.9594895  22.3962566
 115.3282226  23.2214457  21.8062756 115.9214319  23.9460093  22.9954311
   6.2798524  65.6506777  85.2038479   5.4077941  66.0443830  85.2311134
   6.1754757  64.8067474  85.6433010  82.8147090  67.6377160  50.0355694
  83.0767179  68.0419022  50.8627388  82.1146683  67.0310170  50.2766010
 100.7715143   2.3445756  11.8342659  99.8579968   2.1536214  12.0469925
 100.7237090   2.9462296  11.0913250 103.6820901  40.1378590  64.6426937
 103.1446017  40.8049733  65.0696346 103.0822171  39.4073254  64.4920132
  88.6164773  27.7673966  10.3727409  89.4614638  28.2162434  10.4004261
  88.8143767  26.9068581  10.0032398  43.8371665  88.6614157   5.2065060
  43.7678066  88.5960390   6.1589500  44.3696964  89.4428612   5.0582192
 110.9362853  33.9771706  14.5394871 111.0623349  34.7573144  15.0796101
 110.3916563  33.4004170  15.0751755 103.5062475  99.9865246  93.0925369
 104.2921014  99.7495842  93.5850048 103.7445040  99.8412704  92.1769142
  27.2286510  85.7675266  92.2659111  27.4768353  86.6698265  92.4671364
  27.2489572  85.3192997  93.1114292 100.9071315  21.0583741  24.2740700
 100.3921545  20.6682069  24.9803326 100.5688656  20.6499774  23.4771988
 111.4645732  77.6362664  44.9255154 110.6367815  77.2700841  44.6142265
 111.2637151  77.9746205  45.7980988 115.8999170   9.0457684  38.2634995
 116.7364467   9.4602210  38.0521271 115.3498233   9.2125613  37.4981186
 100.0955142   2.8074462  17.4988815 100.6039513   2.0020730  17.5942680
 100.6805719   3.4982879  17.8098080 114.7025822  83.9014721  76.6160440
 113.7919570  83.8329792  76.3291550 114.6580605  84.3846130  77.4411631
  26.6702574  28.6245782  41.3553879  27.1992987  28.1181008  41.9716904
  26.9133490  28.2837350  40.4946014  62.9978568 109.4468023  18.9552757
  63.2557780 108.9958908  19.7592613  63.7630254 109.3754198  18.3846161
  57.2837008  24.8613221  14.5584461  57.7855695  25.4019696  13.9484760
  56.4239157  25.2801663  14.5981190  53.5285414   5.8756310   9.6659634
  54.0414418   6.5270573   9.1876194  54.1294993   5.1408059   9.7889015
  81.6169674  97.0104458  38.8413307  82.0792276  97.0946075  38.0073902
  81.1070425  97.8171541  38.9150021 112.9327763  27.8330285  29.7441933
 113.3137549  27.8426987  28.8661358 112.4460257  27.0098359  29.7850296
  95.8088280  14.3361098  11.7145607  96.7000867  14.6823556  11.6697857
  95.7464875  13.9472682  12.5869915  95.4425455  44.8041589  35.4805443
  95.4201318  43.8500935  35.4065487  96.3702405  45.0283391  35.4073498
 111.0305274  36.9940049  13.7576458 110.1844610  37.1390206  13.3341190
 111.5165652  36.4468819  13.1406757  48.4861040  59.7453785  87.4139595
  47.5999355  59.4443989  87.6148415  49.0549231  59.0436745  87.7306461
  33.7966919  65.3510094  85.6260777  32.8966236  65.1072550  85.4099941
  33.9126372  65.0612593  86.5309715  23.7653160  83.4887218  77.3435736
  24.4733238  84.0279961  77.6959133  23.4861684  82.9475498  78.0821180
  80.1786634  16.4738614  19.4523880  80.3572651  17.3972089  19.6306107
  79.7133240  16.4770276  18.6159203  95.2161861  52.9752690  31.3056442
  94.6413399  53.6557633  30.9553406  94.7849334  52.1534592  31.0713646
  19.9661875  55.3602743  96.3132668  19.2818689  54.7246313  96.5227985
  19.6789098  55.7595444  95.4921246  98.1637991  52.8315312  10.1974079
  99.0715588  52.7812440   9.8979542  97.8760529  51.9197900  10.2438423
  92.0785511   3.6016948  38.7287972  92.7583850   3.9232547  38.1366322
  92.2658885   4.0304429  39.5638439  78.6972410 103.5446932  16.5147373
  78.6184174 102.6680519  16.8909237  79.1309101 104.0593149  17.1954224
 100.6808151  43.6230809  42.8636620 101.3295115  44.2531735  43.1773636
 100.1644529  44.1104371  42.2217247   1.2095544  80.8422470  78.5407352
   0.9363505  80.3231430  79.2971182   2.0029184  81.2913799  78.8324356
  70.4503978  48.9789349  18.5941574  71.1810506  49.0430123  19.2092011
  70.3519274  48.0400044  18.4362099  62.3165876   3.7165027  65.6707430
  61.9447428   4.5422702  65.3607798  63.2373983   3.7565475  65.4124069
  80.6944578  34.1637379  44.1921684  80.9188714  33.4397561  44.7767422
  81.0979214  34.9318749  44.5964119  83.7638707  81.8529797  84.9908352
  84.2338581  82.5963211  84.6129704  84.1713972  81.0841560  84.5919895
  12.8280413  76.7229414  79.3339396  12.1110237  77.2114801  79.7382307
  13.3434308  76.3988400  80.0725555  85.3443701 108.4691240  26.0099480
  85.1899511 107.6514341  25.5368969  84.5713884 108.5746290  26.5645573
  96.8973506  11.2483508  12.3380348  97.5509060  11.4129025  11.6583130
  97.3883809  11.2937314  13.1584332 110.1397384   6.7035062  34.1322872
 110.1547826   5.8586652  33.6825726 110.6011857   6.5447480  34.9557564
  37.3434499  92.0688678  24.2426369  38.2461402  91.8659808  24.4880268
  37.1116750  91.3948561  23.6037132  18.8004315  79.1678667  82.2876740
  19.1668260  78.5809326  82.9491043  18.0512750  79.5779324  82.7199268
 116.4054597  33.8458878  16.3349697 116.7715634  33.3983666  17.0978138
 116.0659159  33.1408173  15.7837650   2.4439686  17.9780156   1.7781612
   1.7262715  18.4534938   2.1965668   3.2359951  18.3493621   2.1667835
  79.5161039  79.3517186  36.0183403  80.4491216  79.4790317  36.1900970
  79.2114336  80.2039887  35.7068226 107.6467265  50.4903943  16.5300247
 107.0735968  51.2377412  16.7009518 107.0497335  49.7784287  16.2999508
 101.4595450  38.2647378  15.9435436 101.1106075  38.2946545  16.8343803
 100.6846035  38.2079465  15.3845570  49.5057613  94.1029669  45.3697178
  48.7959058  94.6740748  45.0761673  50.1587731  94.1544368  44.6717522
  15.2386296  53.5882330  87.7012825  14.5994151  54.0329170  87.1446037
  16.0036826  53.4681320  87.1387005  72.3838312   0.2730231  90.0634670
  71.6999752   0.8527618  90.3988361  73.1310469   0.8501392  89.9058723
  92.3427714  38.2489735  15.2708885  92.9180253  37.8138406  14.6416256
  91.4596952  38.0916173  14.9367497  51.2441063  62.6993084  69.8254395
  51.7844439  63.1501102  69.1765594  50.4934072  62.3747158  69.3281221
   3.6990231  29.3454701  12.7121994   4.0603274  30.1182801  13.1463024
   3.4856194  29.6449906  11.8284676  88.4860105   3.6321694  15.3580353
  89.2402066   3.8507516  14.8106358  88.8061661   3.7255627  16.2552521
  81.1371261 103.6726095  37.0639870  81.7072326 102.9037143  37.0607159
  81.6736824 104.3669798  37.4463341  18.6339283 103.1726456  96.2259769
  17.9811215 102.5043678  96.0174274  18.4985995 103.3579063  97.1552753
   0.1024478  50.6020982   9.0474674   0.9365385  50.9053666   8.6889145
  -0.5592019  51.1072690   8.5749599  11.0649526  67.4635649  95.7867527
  10.1713347  67.6156902  95.4792786  11.2702489  66.5749741  95.4960823
  92.6716358  94.6066739  35.8698818  92.6793558  95.5485250  36.0404274
  93.5913498  94.3809368  35.7305977 103.8106192  27.2346551  21.6364548
 104.6722711  27.4931390  21.9635269 103.2432068  27.9772336  21.8434784
  21.8053508  78.6013222  93.4483147  20.9370828  78.4463406  93.0764008
  22.4011827  78.1198835  92.8743553  77.2978813  74.0970649  53.7070248
  78.1341416  73.7065365  53.9607689  76.9704324  73.5295369  53.0092308
 100.5672635  10.1811225  29.0688107 100.4510773  10.9992034  28.5856125
 101.4202488  10.2727849  29.4933674  84.7193653  89.4593217  25.6766483
  84.6352846  88.5203935  25.8427116  83.9744169  89.8508646  26.1326954
 106.8031133  32.4110085  18.0544445 107.4531306  33.0920083  17.8813717
 106.0158432  32.7102048  17.5995609  95.3521193  38.1683308  23.3442471
  95.3835345  39.1090447  23.1702015  95.6641806  37.7643925  22.5345013
 113.5549773   8.7049348  18.6358330 114.0486635   9.4941766  18.4131119
 113.9532650   8.0154187  18.1046364  24.7690916  46.1354589  90.0134563
  25.3328514  45.5439377  89.5149517  25.1840377  46.1931944  90.8741093
  14.7347229  32.0922047  14.6898052  14.0150278  32.6573998  14.4090721
  14.4566649  31.7556245  15.5416462  19.2773216  52.8330190  45.4103348
  18.3520859  52.8550393  45.1660416  19.2993324  53.1912572  46.2977001
  68.9476169  17.7044684  13.6434147  69.3921388  18.5016782  13.9316532
  69.1714925  17.6273925  12.7159569  68.0612517  18.3278424  34.8659107
  67.8283502  18.0986411  35.7656071  68.8823170  17.8628213  34.7051689
  91.1396343 107.7922727   2.9997799  91.5966064 108.6215736   3.1400177
  90.3039867 107.8994514   3.4541294 112.6509798  51.0635049   7.4595997
 111.7618788  51.1182076   7.1092579 113.1669248  51.6384560   6.8943855
  89.0078021  72.3444516  35.4157040  88.1169558  72.0951421  35.1697990
  89.3639124  72.7640492  34.6325371  14.4933164  92.7470112  95.9623051
  14.8062146  93.0650425  96.8091679  14.7934914  91.8390083  95.9216690
  97.8046764  74.1614301  16.4909718  96.9231070  74.2004926  16.8618366
  98.2459880  74.9356801  16.8402645  14.0257042  54.6441705  21.2365982
  14.8358792  54.4869382  20.7517120  14.2158859  55.4096085  21.7789814
  36.1168885  93.5153675  48.9073467  36.4069200  93.2561970  48.0327368
  36.7186880  93.0673790  49.5017958 105.4535330  26.2878091   2.0306370
 105.6802643  27.0494515   1.4970371 105.7861007  26.4989812   2.9030106
  87.2633285  35.3919465   7.5460884  86.9457466  35.6689317   6.6866371
  87.8450865  34.6548707   7.3603222  15.1822870  18.3116013   3.6949226
  14.5929640  18.5688979   2.9858849  16.0198038  18.1460006   3.2620499
  93.6301077  26.3285119  49.1115543  93.2895697  27.0639378  48.6022350
  92.8492392  25.8684689  49.4195053 110.6693972  34.4493539  37.3826096
 111.3659395  35.1052148  37.3524448 110.9972037  33.7270123  36.8468926
 109.0195692   9.7829634   9.4492409 108.6941040   9.3680579   8.6503956
 109.9498237   9.9318797   9.2798874 115.9567274  44.8208958  18.2459709
 115.1747573  44.7964246  18.7974712 116.6453684  45.1537949  18.8214562
 116.0058130   6.6145713   0.8226177 115.2382458   6.8853957   0.3189060
 116.7514027   6.8777425   0.2831051  11.8432539  52.5866277  26.0128090
  12.0720976  52.0550210  26.7752049  11.6636961  51.9492871  25.3215858
  96.1772610  65.2462537  32.9738113  96.5664495  66.0183770  32.5631973
  96.8925370  64.8558575  33.4760067  82.7281530  41.1901719  36.9763252
  82.8801338  40.7908971  37.8328964  83.5027004  40.9591348  36.4635632
  29.0839243  60.9370089  88.1755829  28.2337785  61.0875511  88.5888863
  29.7183657  61.2996674  88.7938023  -0.3582818   1.9869477  15.0553009
   0.0037711   1.1101014  14.9276707   0.4089921   2.5543792  15.1297733
  28.1696057 106.7620850  89.9547672  27.6235175 106.1487961  89.4629383
  28.8012195 107.0877647  89.3134975  23.9823454  64.0938813   2.9723236
  24.4127339  63.2844025   3.2475445  23.8227528  63.9739568   2.0361683
  87.6398546  98.0337717  22.5417778  88.3778078  97.5381948  22.1867249
  86.9505817  97.9412176  21.8840858  47.2707766  64.5879990   5.6599686
  47.4132174  64.9007375   4.7665855  47.0056647  63.6743218   5.5544731
 107.7514494  41.4072091   8.7102673 108.4019721  42.0466191   9.0004513
 107.9497016  41.2671811   7.7843449 108.9271272  28.3180959  17.1749661
 108.8074459  28.3302743  18.1245777 108.0536235  28.1413323  16.8257114
   4.8676270  44.2454583  33.1723187   4.6673935  43.4083421  33.5910866
   4.0479868  44.7378117  33.2171413  47.0093489  91.1562538  75.7368183
  46.7353630  92.0458412  75.5136728  47.8888512  91.0767746  75.3675079
   2.6688641  67.9378564  35.9177372   1.8672388  67.4158723  35.8836529
   3.2309597  67.5579221  35.2425072 114.7010220  31.1535889  17.6115200
 115.1533569  30.3283936  17.7866814 113.8511623  30.8905751  17.2582600
 108.1497992  43.4468991   2.5520107 108.9024914  42.9607541   2.2153351
 108.3966888  44.3667847   2.4566528 112.8455747  17.3698909  37.3465607
 113.0217946  16.4382846  37.4780342 112.4004281  17.6448972  38.1480858
  16.7070358  14.3871695  23.0257961  15.7779425  14.4889552  22.8192589
  16.7295092  14.2660672  23.9750359  11.0125130  66.6952092  59.8653576
  11.9638031  66.7253835  59.9671433  10.6813734  66.5483338  60.7513592
 105.6986440  39.1800267   6.4711926 104.8969806  39.6448952   6.7109272
 105.4180706  38.5406739   5.8164188   1.2855404  61.8325288  23.4548256
   0.8316248  61.9120652  22.6158592   0.7226246  62.2940499  24.0764019
  73.8152487 104.9134399  17.4221584  74.6514613 104.9065973  16.9563934
  73.7547499 104.0442707  17.8185341  87.0345051  47.2790200  48.3996365
  86.5210969  48.0393178  48.1265232  86.4584250  46.8034608  48.9981434
  18.8410538  55.1819474   4.2122528  19.4849127  55.0476033   4.9076912
  19.2521160  55.8157975   3.6244652  82.9212410   4.0547900  90.6787872
  83.6478311   3.8631587  91.2717247  82.4803573   4.8062282  91.0752583
  51.7261714  21.3674884  84.4509602  52.6522214  21.5574031  84.3006325
  51.4092297  22.1113353  84.9632931 107.8697647  23.0954654   9.0599319
 108.0594958  23.5344798   8.2307789 107.8706802  22.1631676   8.8430187
  98.1997586   9.7555882  30.5165550  97.6085795   9.2944009  29.9215385
  98.9964999   9.8926122  30.0040504  94.9597097  10.8459336  26.2122318
  94.7196294  10.3000218  25.4635117  95.6988991  10.3895575  26.6141674
   4.7560042  45.9948022  21.6296932   5.5677622  45.4908807  21.5719578
   4.6598070  46.1879403  22.5622627  30.2451246  39.5004994   6.4655087
  29.4885414  39.4887025   5.8792755  30.9949988  39.3424088   5.8919880
  30.8985901  64.1308403  85.2423382  30.3598142  64.9207401  85.2871799
  30.8187890  63.7368584  86.1110401  24.0447021  69.9203396  80.4810047
  24.9538946  69.7259665  80.2533627  23.8558102  69.3466139  81.2235641
 115.7797636  41.8642098   2.4010345 115.4548968  40.9748322   2.5414345
 116.7218603  41.8027741   2.5588772   1.1265391  18.5853869  14.9852821
   1.7285174  19.0641028  15.5550930   0.3314799  19.1183097  14.9751541
  78.9266037  48.2698685  10.4388401  78.4995254  47.9831464   9.6316025
  79.0918776  49.2030007  10.3039619 111.9464410  29.9596364   5.1939365
 112.0231832  30.4530389   4.3772957 112.6744426  29.3386990   5.1679203
  23.9039540  62.6387119  92.6824474  23.6531687  63.2477760  91.9879150
  24.1288877  61.8301105  92.2222328  57.2774935  85.8938789  85.4054832
  57.8777790  85.9752369  84.6643543  57.6812029  86.4155674  86.0990810
 101.5512813  48.1587178  29.2996952 100.9857119  47.3868806  29.2744896
 101.1982573  48.6911542  30.0125095   0.1350873  53.3167512  12.7077362
   0.8907526  52.7322633  12.6479885  -0.5939228  52.8018433  12.3618481
  13.9077156  49.8122746  22.9503128  13.1538885  49.9236161  22.3710224
  13.5806816  49.2687756  23.6671803  15.6804645  73.4165001  78.3428288
  16.2329912  74.1974211  78.3094883  15.1708770  73.4489059  77.5331974
  12.5916195  60.9160519  95.7026291  12.0046771  61.4537287  95.1709938
  12.7339649  60.1274347  95.1791382  96.6122986  28.4669835  48.2561752
  97.2821785  28.7910516  48.8582394  95.8319748  28.9793641  48.4678051
   6.4076215  87.5099945  89.1383934   7.1795386  86.9987488  89.3813038
   6.0422254  87.8032970  89.9730778  96.3814241  94.7175624   3.5878822
  97.1357424  94.1832353   3.8363335  96.0372478  94.2948820   2.8010437
 102.2254003  34.7078282   2.4692604 103.1226123  34.5946175   2.7829907
 101.6822446  34.5864827   3.2480404  30.6426787 101.1959743  85.7105064
  31.1976790 101.0206795  86.4704227  30.5376387 102.1473789  85.7049942
  47.9668188 108.6991405  76.6099072  48.0126572 108.0591297  75.8996105
  48.3908844 109.4807816  76.2557459  89.4592703  48.7646539  47.8355000
  88.8188280  48.0532796  47.8345749  88.9410962  49.5536382  47.6766560
 113.8909377  57.4361665  38.5617802 113.4307540  58.1323964  38.0930302
 114.7365201  57.3673398  38.1185123   8.1307238  27.2725255  23.9827416
   9.0273112  27.0597512  23.7237236   7.6914471  27.4974114  23.1625626
  20.4608793  97.6559307  25.1320622  19.7235448  97.8520157  24.5540306
  20.9059114  98.4957077  25.2458832   4.9442547  23.3632285  24.4210693
   5.7792252  22.9142434  24.2888996   4.4262045  22.7551896  24.9484608
   4.0920561  50.2900178  28.7307045   4.3891829  50.5500371  27.8587315
   4.8846453  50.3019673  29.2672607  89.2895306  29.7338731  33.8278362
  88.9617814  30.6207330  33.9771435  89.7212065  29.4967133  34.6485874
  74.3323700  38.7624127   9.1047165  74.3453292  38.1749970   8.3490631
  74.4729401  39.6334035   8.7334415   3.1613224  25.4481942  18.1152889
   3.6198967  26.2577302  17.8903648   3.5154694  24.7963197  17.5104210
  33.8915706 105.7990074  91.0272789  32.9357052 105.8023453  91.0777187
  34.1762042 105.5119991  91.8949413  15.3307121  58.5091550   2.0085880
  16.0922831  58.1794507   2.4855969  15.4593437  59.4571740   1.9778511
  93.4832556   9.6217589  52.2745848  93.1320125   8.8724094  51.7936230
  93.5701973   9.3090015  53.1750584  13.4888094  67.7651173  23.5191032
  13.7084025  68.6633450  23.7665054  12.7843970  67.8587300  22.8777954
  55.8228451   4.4103675  80.1520157  55.7940072   4.2032580  81.0860920
  55.7688565   5.3653865  80.1166534  37.1917033  64.4379711  87.2714520
  36.2689185  64.1885662  87.3214340  37.2964525  64.7927094  86.3886070
 106.3681854  59.4744069  11.4188358 105.4974855  59.0835149  11.3459179
 106.9606794  58.8049561  11.0767529  16.4145201  33.7335641   2.4690792
  16.9105452  34.2272240   3.1221458  15.4991596  33.8557584   2.7209160
  41.7982912  73.3409119  95.4659176  41.4769268  73.2651377  96.3643742
  42.0663500  74.2561388  95.3838253  24.7524374  33.9540536  16.3043282
  24.2280405  33.3785683  15.7475063  25.5754011  34.0634972  15.8279011
  16.2819117  50.7830865   8.8748524  17.1297281  50.5773217   9.2686817
  16.2907236  50.3249986   8.0344269  42.3512799   6.5815311  86.9028378
  42.8788767   5.8409362  86.6038418  42.7666834   6.8571239  87.7199745
  29.5603245  27.2688157   4.4096252  30.0224274  27.6579339   5.1521084
  30.1199644  26.5432984   4.1327641  16.6025561  69.2009980   1.7180035
  16.0401266  69.6449620   2.3526642  16.1096543  68.4200150   1.4663002
  48.2566452  83.6189270  81.8079090  49.0438271  84.1435337  81.9540977
  47.9813671  83.8427067  80.9188843  35.1243949 110.9051609  92.1698761
  35.8801389 110.3229523  92.2481441  34.8035145 110.7627010  91.2793922
 102.9988731  20.9671981  12.4085877 102.5668539  20.6763179  11.6054794
 103.1420935  20.1633651  12.9081509 116.5040625  63.5650212  47.5397656
 117.3871220  63.2540280  47.7390644 116.6334690  64.2478616  46.8815681
 100.3619946  26.7259270  20.1784012 100.2084220  27.3267228  19.4492313
 100.5064596  25.8761365  19.7622082  80.9627626  37.9346043   1.7588684
  81.2205813  37.1477181   1.2787029  80.0058617  37.9108292   1.7615006
  75.1334623  45.8369023   8.1484291  74.1834492  45.8567101   8.2638237
  75.4561315  46.5532548   8.6951992  33.3499640  48.5771519  16.5147755
  33.7307947  48.7260491  15.6493160  33.5274046  49.3849046  16.9967339
  21.3159674  58.5616547  12.8135178  21.6767090  58.6202390  13.6981937
  20.3983753  58.8158757  12.9116985  13.9726656  25.6578595  13.5659573
  13.9538449  25.7907636  12.6182148  13.9018362  26.5391118  13.9328548
  25.8440321  41.5798814   4.0865585  25.5171936  42.4733311   4.1921684
  26.6557329  41.6790253   3.5890266  91.2411178  68.6393983   2.2599003
  90.6698681  68.5875661   3.0262062  91.0421909  67.8483922   1.7589352
  85.8637370  59.1923577   1.7300961  85.7496650  60.0675732   2.1005413
  86.2882472  58.6910588   2.4263165   2.4536341  49.4429166  26.6382858
   1.7324370  48.8150460  26.5948937   2.6876181  49.4751889  27.5658867
 110.6993283  12.3154933  43.1945393 109.9882496  11.7664487  42.8641579
 110.6046213  13.1413180  42.7199146  62.2623998 109.6872808  29.4888565
  62.8836400 110.1297571  28.9104912  62.6065642 108.7982370  29.5747635
  27.3254657  55.9510946  91.0580635  27.4639058  55.4826546  91.8812466
  27.4351144  55.2833033  90.3811073  15.0014227  53.4536893  24.4689819
  15.1836031  52.7714974  23.8227245  14.0822142  53.3234746  24.7020599
 114.7510589  18.2706982   2.0616982 113.8071669  18.2461888   1.9045422
 114.8923958  17.6421792   2.7696678  48.2271660  37.6063306  38.1854412
  47.9229797  37.1009309  37.4316093  49.0445007  37.1810395  38.4448978
  98.5790802  42.2460801  34.9379036  98.6802722  43.1595761  34.6704742
  98.9848984  41.7433793  34.2316219  84.0843994 106.6805317  17.6329777
  83.8899023 106.0534479  16.9364330  84.9487573 106.4224292  17.9531261
 114.9559296  11.0933406  18.2869980 114.7044218  11.4955098  19.1184113
 115.9055961  11.2053496  18.2443497   7.0026415  42.8093011  46.2758324
   6.2866896  42.5005204  45.7205841   7.7051037  43.0256135  45.6626579
 101.7732728  30.3141648  21.5998432 102.6391066  30.5997903  21.8913624
 101.5551318  29.5829350  22.1777222   2.0789164  27.0190770  31.8963978
   2.6282280  27.7965600  31.7963097   2.4813336  26.3661534  31.3236973
   4.0845936  64.6071584   8.7715218   3.2754629  64.1080434   8.8829586
   4.7443646  64.1032941   9.2480251  14.8633402  88.9222390  60.4422352
  15.1203554  89.3505055  59.6256802  15.3695696  88.1099755  60.4563210
  34.9982231  75.0052983   3.9689133  35.2602928  75.2552563   3.0828735
  34.1604202  74.5569951   3.8533852   4.1163748  28.0409104  47.5096008
   3.5928219  28.6283070  46.9645474   3.6804884  27.1920640  47.4341270
   8.3832043  45.2516419   4.4757816   7.5841063  45.7741124   4.5443604
   8.7309712  45.4585988   3.6083386 109.3285359  15.5805451  24.4084522
 109.2864479  16.0142381  23.5561821 110.1279725  15.0554568  24.3707726
  89.7372371   3.1173377  96.3327312  89.6346266   3.5191779  97.1954250
  89.7074253   3.8528209  95.7208443  16.1514490  44.0735490  22.2303078
  16.8204230  43.9554364  21.5559551  16.1400002  43.2421643  22.7045414
 117.5213970  65.7485158  11.9896671 116.8491329  65.5895383  11.3270828
 117.6183546  64.9087960  12.4387905  20.0459164   0.9594638  51.8712303
  19.6782940   0.1034839  51.6512653  19.8429268   1.0759646  52.7993748
  84.7200013  43.5363824  25.4692909  83.8746477  43.2785947  25.8369228
  84.6754796  44.4908578  25.4125950  83.6974699   0.7838302  90.4016972
  82.8701240   1.2497382  90.2806282  84.0812761   1.1769729  91.1855125
 118.1702984   8.1936223  25.5804321 117.2506989   8.4224803  25.4455540
 118.1763304   7.2371060  25.6160709   9.8610419  76.7330605  23.0972645
   9.5012587  76.7469079  22.2103664   9.8959845  77.6539761  23.3559582
 116.0994113  34.0668637  46.3374302 116.5774978  34.8357350  46.0267899
 116.2510789  33.4027154  45.6650135 104.1119493  17.2624499  23.5715649
 105.0495375  17.3408276  23.7476799 104.0213335  16.4194114  23.1273720
  50.2146769  87.0302486  50.1510382  50.6449556  87.1635246  50.9956312
  49.2795277  87.0350075  50.3552580 109.5622236  14.7124343  94.2267799
 110.1278526  14.0758090  93.7897396 109.0646202  15.1179080  93.5167027
   5.7099074  33.0005318  38.8273117   5.7639855  32.2657639  38.2162449
   5.6448334  32.5904900  39.6897862  91.0736705  29.7890240   5.9384605
  90.1500202  29.6384198   5.7374165  91.4628364  28.9145428   5.9460041
  99.9038161  22.1272332  46.2011597  99.9669302  23.0786425  46.2851879
 100.0921620  21.7962081  47.0793316   4.6900004  41.7896611   3.4866783
   4.2553156  42.6211411   3.6762306   5.1292961  41.5571172   4.3047115
   6.4157360  25.1271111  28.4072945   6.1215656  24.6256024  27.6469109
   7.1092385  25.6926400  28.0675098  96.3450266  46.8826825  21.8772480
  97.1542026  47.1917016  22.2846481  95.6660474  47.4613625  22.2241566
  58.1380523  41.4148099   4.6684525  57.2834481  41.8043477   4.8532269
  58.7693156  42.0665604   4.9733326   5.5708092  31.4950425   6.5104935
   5.1532381  32.2844846   6.8549416   5.0666064  31.2803704   5.7256767
  97.9295505  29.8564297  16.5434048  98.0934871  30.0735719  15.6256935
  97.0529104  29.4720704  16.5456841  35.3951430  51.5735483  88.7401390
  35.1354146  52.0557451  87.9551125  34.9196959  52.0013762  89.4522762
  19.3647707  98.3722878  68.4428835  20.0192356  97.7654743  68.0969381
  19.8771870  99.0825844  68.8290644  32.0020008  47.9191780  85.8131599
  32.2513294  48.0499172  86.7280197  31.9323564  46.9693422  85.7172775
  60.0119716 107.5129987   3.8539192  59.8865682 107.7101328   2.9256699
  59.1327781 107.3178961   4.1782352  83.9075214  15.6678920  81.3664532
  84.0416033  16.6141086  81.4205742  82.9635317  15.5531173  81.4757061
   5.9668177  49.7785622   4.8322651   6.4824646  50.2676160   4.1910526
   5.7722491  50.4158837   5.5194351  11.9832962  65.2216775   1.7950222
  11.4420908  64.5301205   2.1759197  12.6971739  64.7551114   1.3603565
  39.8277968  27.4437577  11.1708424  39.9621790  26.5013940  11.2715027
  40.4019278  27.6914937  10.4461166  30.1405978 102.2534180  89.4950199
  30.4091311 102.2672272  90.4136753  30.8360291 101.7695999  89.0494537
 107.4585141   5.4662282  22.0561668 107.6295341   5.6070763  21.1249611
 108.3267344   5.3672702  22.4468491  51.7936928  13.4822230  71.3143778
  51.2411720  14.2526202  71.1823225  51.5572769  12.8923755  70.5985403
  37.2907162  51.9898462  71.0690498  36.7329669  51.3156796  70.6809139
  37.6804137  51.5669584  71.8342543  51.4691353  83.3710766  94.0695000
  51.2326145  82.4498367  94.1771507  51.0658026  83.8109398  94.8178768
  87.3886783  32.5334222  20.5799744  87.1900160  32.6355607  19.6491978
  86.6933591  31.9657475  20.9123966  27.5622147   7.8080899   8.0984661
  27.9779976   7.0360095   8.4821865  26.7580240   7.9235083   8.6046097
  76.4020872 103.3425236  93.8894653  75.5873060 102.9383278  94.1877747
  76.5171623 104.1006088  94.4624329  90.2003337  36.5977437  38.6272022
  90.7393969  35.8089978  38.6866543  90.3550459  36.9274098  37.7419827
 112.5351847  52.3996312  26.6455814 112.8512300  53.3004338  26.7155907
 112.6855839  52.1635014  25.7302353  88.3953077  24.6227603  75.0796127
  87.8039963  24.3203693  75.7689190  87.9035455  25.3068309  74.6252489
  18.7818783  47.2563035  35.0847599  19.7131127  47.0906216  34.9378559
  18.6645716  48.1794602  34.8605797   9.9472635  56.7031533  11.5720532
  10.3244370  56.2844712  12.3457977   9.9615448  56.0216672  10.9000370
  17.8653448  66.6096551  11.2616798  18.2286804  65.8831460  10.7553169
  16.9578236  66.6780717  10.9651062 109.4110311  21.2242228  27.3735973
 109.3173874  22.1756608  27.3264191 108.5185994  20.8908183  27.2806618
  69.9640280  13.4781413  93.3519268  70.5879266  13.0116706  93.9081478
  69.8589451  12.9148250  92.5852013  97.2981722  20.7885509  89.5169640
  97.0442611  21.6165881  89.1094017  97.4772627  20.2040629  88.7803936
  63.1570339  89.1535187  95.1001358  63.8385201  89.5285511  94.5423222
  63.5576487  88.3679104  95.4723835  32.9265761 106.0883617  94.5693970
  33.5891962 105.6144905  94.0667915  33.3046961 106.1724949  95.4447079
 100.1111210  59.9621445  19.0543339 100.6555642  59.8733002  19.8365852
  99.8023904  59.0739781  18.8752529  12.1485728  23.9120490   7.2644398
  12.2092264  24.6415383   7.8812000  11.5066450  23.3198888   7.6562473
 101.3457263  22.7047784  37.4118015 102.2100914  22.4714524  37.0731804
 101.2665642  22.2102649  38.2275364  98.5173417  41.9916016   7.6606342
  97.7240170  41.5004594   7.4469826  98.2930506  42.9027993   7.4718449
 108.7194646  32.7160031  49.7865078 107.8510965  32.6613671  49.3875382
 108.5974062  32.3768288  50.6732437 107.4750358  18.8026004  92.4255753
 108.3328468  19.0448623  92.7744389 106.9245178  18.6897330  93.2004452
   0.6152218  66.3828999  17.9460690  -0.2537329  66.0392339  17.7385876
   1.1333197  65.6082017  18.1643555  76.6237671  25.5874210  92.9605961
  76.8978435  26.4862018  93.1431007  76.2887651  25.2646308  93.7971401
 104.9254025  58.4365327  22.0432922 104.3172587  58.7715966  22.7021763
 105.4114235  59.2078740  21.7516777  11.3645857  53.4449250  43.6269733
  11.7608326  52.8254468  43.0142185  12.1051901  53.8091428  44.1118214
  67.7692413  93.9138031  94.9653053  67.9748917  94.7468281  95.3895760
  67.5510406  94.1514397  94.0641117  15.2233999  76.1098916  -0.0553635
  15.3577393  75.8409554   0.8534023  14.6379488  75.4449994  -0.4178646
  27.6722592  54.6070439  32.5536320  28.1933993  54.1821439  33.2348892
  26.8297737  54.7841603  32.9720470  57.4507410   7.1547084  82.2269344
  57.7378983   7.5545554  81.4060211  57.5250584   7.8562408  82.8739071
 116.6778124  80.2604253  29.7010300 115.8704747  80.3709752  29.1988251
 117.3263801  79.9832589  29.0539047 100.5054933   3.8994556  74.6210718
 101.1852199   3.3979945  75.0713396 100.4610235   3.5116058  73.7470961
  25.0785034  61.4396912   1.7760918  24.7563427  61.0028035   2.5644848
  24.4300907  61.2297398   1.1039898  19.4336479  91.8331200  38.4438107
  18.4978312  91.7070062  38.6005661  19.8047989  91.9785649  39.3140575
  87.4947530  28.0052238  85.5921555  86.5759069  27.9508071  85.3294849
  87.7574140  28.8963180  85.3615379  24.4392985  64.4342572  21.3069603
  23.4929674  64.5774419  21.3207409  24.6756190  64.4840867  20.3807327
  31.3721156  96.9092846  94.5874786  30.7785296  97.2945499  95.2320385
  32.1740913  96.7291641  95.0780106   2.6422852  75.0552613  11.0337994
   2.5267761  75.9002168  10.5991241   3.5145872  74.7656781  10.7664940
  92.2582413  36.9894463   8.8516686  91.8260086  36.9585759   9.7051689
  91.8566526  37.7357346   8.4066841  95.2724327  76.2860257  11.1664269
  96.2087954  76.4275033  11.0269997  95.2261020  75.7570702  11.9628498
  35.7731741  37.7288014  19.9774334  35.6515663  37.7653176  19.0286896
  36.1565130  38.5764939  20.2025768  78.8843543   5.3174739  93.4193420
  78.7574584   4.8276668  94.2318821  78.0847937   5.1598029  92.9172707
  35.1962733  76.1425400  95.5648613  35.2211809  77.0978594  95.5102825
  35.7361507  75.8466005  94.8319340  38.1306100  95.3997898  68.6863804
  37.4728489  95.1663017  68.0313444  37.9903388  96.3333607  68.8444662
  59.3866491  80.8529186  70.5055761  59.4408894  79.9100208  70.6612158
  59.5753050  81.2474632  71.3570309  35.1397514  92.4811649  75.9550428
  35.9259248  93.0272102  75.9539270  34.9686742  92.3057270  75.0297403
  88.2582046  54.9707562   1.9275066  89.0215803  54.9181134   2.5025913
  88.4821613  54.4154221   1.1807320  84.5213223 100.6738091  73.8818836
  85.4047394 100.3717804  74.0930223  84.3545723 101.3808727  74.5051670
 106.4093173  54.0655095  14.2733357 106.3897742  54.8794991  13.7700817
 106.7096103  53.4050519  13.6489651  95.3222979  37.1351868  14.8691437
  95.5517579  37.7297932  14.1549847  94.6057404  36.6057736  14.5191452
  94.8958839  63.1877286  28.0895397  93.9825917  63.3210999  27.8358910
  94.8734976  63.1323964  29.0448830   4.3576210  58.6630780   1.2164375
   5.2042454  58.9978844   0.9208653   3.7157028  59.2540509   0.8228466
  20.3997803  95.6133652  92.2403431  21.2271309  96.0458851  92.4516296
  19.7350657  96.1352158  92.6898479 103.8422853  17.7962546  88.1652832
 104.5529968  18.0876403  88.7364388 103.0712206  17.7789359  88.7321949
 101.2578453  44.7127206  16.4618179 102.1059383  45.1372868  16.3325378
 101.3125981  43.9069230  15.9480831  96.6240824  40.4639775  14.1144535
  97.3346413  40.1363332  14.6658012  96.3115252  39.6919877  13.6426804
 106.7770899  71.9669778   5.8961746 107.1339000  72.0757634   6.7777035
 106.4061249  72.8226430   5.6806633  69.8147678  77.1350241  84.4216347
  69.6687651  77.1670675  85.3670883  70.6741381  77.5381088  84.2981911
  17.6589888  42.7107961   1.6780254  17.4075144  41.7874200   1.6586849
  18.6124867  42.6976640   1.7611286  10.4928749  70.8158452  11.9837544
   9.8895758  70.1582391  12.3298904   9.9298447  71.5466458  11.7284653
 108.4812010  38.0942685  12.9484531 108.3531679  38.3224923  12.0277187
 107.5986446  37.9254205  13.2783196   5.1704710  65.3985555  41.6810391
   4.3894785  65.9142739  41.8818161   4.8374098  64.5190770  41.5026352
 101.6642559 101.3271958  23.0208847 101.5097488 101.0751683  23.9312908
 102.4642528 100.8621079  22.7760765  73.6216671 110.1162054   8.2652065
  73.5571987 109.2465545   8.6599037  72.7280170 110.4581358   8.2917759
  22.2078293  33.7177998  12.6231644  21.3531607  33.2883698  12.6600620
  22.0740383  34.4681985  12.0441792   9.6300805  93.4481525  88.8094807
  10.1418221  93.2591248  89.5960045   9.7234744  94.3925190  88.6841965
 115.9076584  24.2091042  37.6025555 116.3896240  24.5837170  38.3398506
 116.1783660  24.7329099  36.8485138  99.4492323  18.4291225  85.4218006
  99.8512012  19.0049224  86.0722637  98.5464842  18.7396770  85.3523064
   5.0513142  57.8028447  29.1818115   4.9917954  58.5489518  28.5851357
   4.2933481  57.8965527  29.7588226  11.5879172  36.1143071   5.7865498
  10.6789559  36.3443047   5.5938599  11.7431467  35.3126008   5.2871487
  55.4004400  29.8778874  31.5028069  55.9891051  30.5705029  31.2028477
  55.7895106  29.0705640  31.1665222 106.6288031  40.5903012  22.8980801
 106.9461502  40.0283677  23.6050102 107.3809756  41.1368424  22.6705524
  79.2026836   2.8853946  80.6535149  78.6183221   3.0135589  79.9062967
  78.8727195   3.4863906  81.3214684 106.6749609  33.8777692  27.5766823
 107.5113548  34.3020398  27.3851940 106.1617053  33.9879662  26.7762634
  99.5786346  65.4086263  20.7098743  98.7759305  65.0272614  21.0654804
 100.1232208  64.6541554  20.4853222  73.9865953  12.4945502  81.6480541
  74.1474373  11.5865188  81.9046688  73.0695802  12.6487498  81.8750763
   6.0708159  50.5229432  26.2882969   5.8534163  51.2745911  25.7369492
   7.0269840  50.4819161  26.2711689  92.7598745   8.4956317  39.8025084
  92.5908071   8.6575370  40.7306433  92.5188381   7.5785785  39.6715665
   6.4997929  72.0972688  12.4967739   7.4226540  72.3305089  12.3959896
   6.3091057  72.2674138  13.4192249 112.5461639  77.9195363   6.9785664
 112.9204143  78.6219079   6.4467403 112.5574649  78.2634408   7.8717873
  30.6852310  73.4610326   4.8983070  29.8117417  73.3683450   4.5179627
  30.5252140  73.6410100   5.8247158  24.5572489  40.7746751  36.5829441
  24.2554634  40.3318936  35.7897827  24.9316090  40.0760323  37.1195766
  49.3943757  11.7724662  90.2924442  50.1749558  11.9074493  89.7551250
  49.6342963  11.0639625  90.8896732   6.9151228  63.4954602  19.9088070
   6.8030089  64.4168336  19.6748516   6.4635056  63.4047372  20.7478783
  16.1344879  78.6350877  19.4539234  16.7215031  77.9966504  19.8589394
  16.6078776  78.9378697  18.6790344 103.7913574  52.6408250  18.1421921
 103.3957160  53.5096127  18.2122490 104.7312225  52.7975900  18.2333633
  41.3204336 109.2916298  75.1458359  41.0585117 110.1188946  74.7417879
  40.8142233 109.2504978  75.9571838  23.8256090  85.6538255  11.5333054
  24.6465510  85.3423459  11.1521599  23.1616848  85.0521905  11.1964485
  24.6336334  22.4021632  21.7786381  25.4485768  22.8287417  21.5138123
  23.9439028  22.9827601  21.4570591  14.3814009  45.3700406  37.0776054
  14.5047301  45.4497678  36.1317417  13.5655039  44.8785168  37.1721813
  15.5451267  77.2615105  23.5127995  15.9575766  77.6381356  22.7354500
  16.1551636  77.4542672  24.2247936  63.6358404  93.9892387  86.7079926
  63.6243773  93.9688110  85.7510757  64.0788603  93.1788826  86.9595718
  15.9298819  38.6951501  35.6734440  15.2544516  38.4022481  35.0617096
  16.1962956  39.5531804  35.3432343  18.1959599  32.0425851  26.3770744
  18.6553210  31.8887383  27.2026321  17.3058241  31.7285973  26.5361568
  13.8251608  47.0569474  26.5356419  13.2019108  47.3675687  27.1923801
  14.0187376  47.8295857  26.0048077  89.5954967  77.4079282  16.1053536
  90.1245798  76.8299062  16.6550800  89.8657573  77.2010762  15.2107021
  17.6705950  63.6041695  32.9402706  16.7248266  63.5164506  33.0588409
  17.9479187  64.1851861  33.6486122  40.1158541  48.5716969   6.1835072
  40.0895041  47.6510865   5.9227058  41.0066431  48.7032563   6.5081760
   6.9040030  68.0657059  43.6400482   7.7606600  67.8370244  43.2793781
   6.7012852  67.3530537  44.2460701  88.8637048   8.8227801  71.9270849
  88.0597193   8.6034637  72.3979712  89.2133314   9.5833163  72.3913813
  98.0071241   1.9605880  82.0842552  98.5081941   2.0192103  81.2707901
  97.4154169   2.7124553  82.0557976   9.8567360  43.1337888  15.4521534
   9.5566481  43.8378484  16.0270283  10.8080309  43.2362420  15.4244587
 113.8425667  40.0229507  95.1918697 112.9064161  40.0496345  95.3897285
 113.9670784  40.7035976  94.5304775  17.8144043  41.3464028  10.8004162
  17.5962370  41.0453660   9.9183723  18.3370465  40.6364781  11.1733601
  34.1420620  48.4553773  27.3729012  34.0698117  49.3087727  27.8003761
  34.0334528  48.6444051  26.4408562  89.3469984  32.0762973  76.9038296
  88.9880640  31.1906104  76.9582653  89.7700245  32.1109824  76.0458755
 107.2283495  86.5888650  40.3215763 107.0681847  87.4489838  40.7098839
 107.2901095  86.7582185  39.3815014  92.7394391  36.5505845  27.1857712
  92.6586688  36.0524709  26.3723919  93.2248033  37.3373849  26.9375965
  98.6313005  17.1009040  73.6318731  98.7762137  16.9178450  72.7035809
  99.4977148  17.0185423  74.0303373   1.1172927  52.1755171  93.7292004
   1.5643746  51.5816069  93.1261921   1.8126187  52.7370930  94.0718174
  14.6768165  12.8038359  77.1081495  15.5373311  12.4125528  76.9576645
  14.7806513  13.3076632  77.9153681  19.3374979  11.4543104  81.5461254
  18.8127804  11.8958580  80.8783340  18.9465737  11.7262924  82.3764515
  65.6202442  87.2307231  19.9256584  65.9213788  86.3783290  19.6110603
  66.2524468  87.4733402  20.6021854  11.3052845  57.3212051  64.2797804
  11.2054336  57.3345137  65.2316666  10.7273936  56.6160536  63.9881706
  21.8959212  22.9848027  79.6692085  21.8843532  23.8304710  80.1174736
  21.9545960  23.2070446  78.7400150  57.3495752 105.4384186  14.4366238
  56.8305284 104.6553899  14.2530796  56.8537683 105.9015991  15.1118061
   8.5417843  39.7348070  90.3489590   8.8565439  39.0126801  90.8927345
   7.7601236  39.3878269  89.9190235 116.9000360  89.6048832  89.5468330
 117.4715821  89.3392563  90.2672577 116.9982389  88.9109802  88.8948441
  35.4690797  90.3255274  14.0568516  35.5133635  90.2727439  13.1021378
  35.5813319  91.2561394  14.2507431  97.7461882  20.9967756  95.9998703
  97.9557176  20.4491496  95.2432728  96.9197006  21.4200974  95.7676029
  67.3461491  88.3096506  22.0601818  68.0894763  88.7141229  21.6128513
  67.5914604  88.3152487  22.9853890  27.6090450 106.8679334  12.5260803
  27.9689533 106.5726091  11.6897270  26.7113024 106.5358736  12.5311253
 101.7886574  67.8967215   3.2433579 101.4158327  68.7399997   3.5004780
 102.7015383  67.9417505   3.5277054 105.5957313  38.8941646  91.8471336
 105.5464728  39.2310047  90.9525204 106.4155085  39.2484331  92.1916485
  51.4455587  81.8099906   8.5817406  51.2918157  80.8757545   8.7224457
  50.6508607  82.1208622   8.1481049 115.7015003  19.3208224   6.3481018
 115.2077759  18.5012681   6.3197968 116.6181434  19.0501506   6.2958214
  57.4809742  15.7619691  90.3204441  58.2048655  16.3356304  90.0691986
  56.7305231  16.0932696  89.8272038 110.4918082  48.2629633  71.8273258
 110.3279300  48.8460970  72.5684929 109.8819835  47.5362778  71.9549036
  16.1293423  46.5127182  85.9378433  15.3286934  46.1619616  85.5477619
  16.8255270  45.9452248  85.6069183  12.7163672   9.5040244  93.1358147
  13.5620391   9.3588853  93.5600853  12.2251248  10.0403821  93.7580967
  64.7974426  99.8976900  18.5355732  64.1996509  99.3222000  19.0127346
  64.6790272  99.6571733  17.6166794  22.9184794  53.5830545  71.0842562
  23.6720467  53.3757782  70.5316210  22.5762415  54.4017696  70.7253599
 110.8375598  75.8491087  58.5080671 110.4295482  76.4506626  59.1308784
 111.1271031  76.4096642  57.7882242  34.8650622  29.1356778  79.1719532
  35.4651570  29.2037368  78.4293318  35.2550459  29.6913838  79.8467398
  43.4402323  44.1141987  92.6600933  44.0643072  44.5449924  93.2441998
  43.4416914  44.6528053  91.8688011  26.7783594  31.3626504  66.5242529
  27.1566796  30.8031797  67.2025585  26.8843532  30.8627820  65.7148552
   4.0321314  36.8572807  67.0666265   4.8335057  37.0054173  66.5645409
   3.3833575  37.4292111  66.6564798   8.4356302  34.7703576  64.6829700
   7.6007885  34.3675423  64.9217463   8.2124996  35.3904366  63.9887476
  45.6205637 111.4453699  22.5993797  46.1458594 111.5706112  23.3896992
  45.1614345 110.6182815  22.7455303 104.9129713   5.3127009  18.0646297
 105.0927771   5.0643355  17.1578667 105.1266111   6.2449033  18.1044933
  79.3051297 105.8170273  11.3151142  80.2272064 105.7065536  11.0831711
  79.1487223 106.7578460  11.2336514  74.9415857  77.9554607  13.6371872
  74.0350277  78.0184366  13.3364842  74.8719317  77.8330638  14.5839664
  22.2392678   1.7268910  50.3853369  21.5079832   1.5707767  50.9829044
  21.8841982   1.5357621  49.5172215   2.4173644  15.2885687  79.3251991
   3.1530479  15.2497923  78.7140512   2.1181469  14.3822289  79.3976450
  37.0653892  12.6549351  60.0082970  37.5878501  12.2181273  60.6809521
  37.2654271  13.5847914  60.1159239  44.2169786  95.9868337   6.5535423
  43.6071593  95.5467393   5.9613678  44.6537525  95.2744199   7.0203659
  33.8295507  46.1556625  81.7174339  34.1152692  45.2646160  81.5158653
  33.2847118  46.4069605  80.9716225  54.6807117 100.1386263  28.1810543
  53.8788838 100.5570270  28.4944984  54.8700828  99.4646026  28.8337872
   3.5682720  21.3950872  75.3772116   3.7204242  22.3338008  75.4863024
   4.3923491  21.0581446  75.0256491 115.5314334  77.3371792  72.6764822
 116.1712564  77.8628016  73.1566715 115.2022205  76.7119026  73.3221436
  80.5802471  95.1821329  43.1698200  80.1056988  95.9536983  42.8604195
  81.4516956  95.5100133  43.3918640  41.7823159  94.2348911  29.4089767
  42.1681792  93.9818956  28.5703251  41.7306050  93.4178831  29.9050209
 108.2681651  20.4629803  88.1590271 108.1767400  21.1231446  88.8460922
 107.5384815  20.6342697  87.5636673  11.3793314  23.7269306  81.8917179
  10.7812476  24.4616795  81.7550659  12.1710002  23.9700556  81.4117336
   9.0389913  25.5553865  84.4610786   8.9350653  26.1409378  85.2111149
   8.1932139  25.1140738  84.3827534  48.9510692  99.3344833   0.4822323
  49.6946222  99.8872425   0.7226822  48.2830638  99.5328380   1.1384747
   4.2018485  22.2732878  55.2464151   4.2653769  22.6477361  54.3677855
   3.8892201  22.9948020  55.7922268  21.2406468  20.3291035  83.2715988
  21.8646908  20.8040690  83.8204288  20.6164575  20.9963059  82.9861927
  33.2807911  99.6264412   7.1109745  34.0689558 100.0377704   6.7562363
  33.5206724  98.7066700   7.2237274  19.9701333  35.9542775  92.8144455
  19.5759749  36.4789915  93.5112572  19.4376957  35.1594591  92.7827644
  26.0725403  32.1320033  90.1947308  26.2670040  31.2255502  89.9564934
  26.0643482  32.1315956  91.1518955  51.5436489  80.7166006  21.8125412
  51.2476868  81.1641289  22.6052353  50.7404036  80.5415465  21.3222572
  62.7761037  88.5887577  13.3688328  62.4265677  89.2597057  13.9552471
  62.0134622  88.0657484  13.1217072 113.0643966  72.5747325   6.1855003
 113.1978108  72.2370519   7.0711681 112.5009181  73.3395149   6.3031170
 113.1528021  34.4570613  82.8376389 113.3613239  34.3134856  81.9145298
 114.0038629  34.4757414  83.2753372  19.1895604  31.2879038  66.9330931
  19.3635082  32.0283604  66.3519716  18.4184349  30.8638930  66.5565109
  17.8468394  69.3472576  81.6461563  17.5144339  70.2099466  81.8941498
  18.7975013  69.4246626  81.7266655  74.7367555  57.0311394  27.4035713
  74.2985160  56.6634807  28.1710407  74.4256574  56.4981569  26.6718742
   9.7101939  80.1187611  93.9885139  10.0827622  79.3598032  93.5397339
   9.2846894  80.6223202  93.2945347   0.3723253  24.3639612  85.0865650
   0.5627756  24.7415280  85.9452820   1.1921093  23.9472342  84.8209953
 109.1187622  23.1012487  78.7252808 109.7846140  22.4147701  78.7655258
 108.9063235  23.1746078  77.7948380  43.4212235  94.3472482   1.5048477
  43.0346144  93.7003495   2.0950100  42.7371532  94.5204522   0.8581039
  28.0699515  39.8738742  80.7863998  27.3365974  39.6001625  80.2354813
  28.2337737  39.1232920  81.3573837  50.7417304  90.0687458  14.8821709
  49.8588235  89.9672414  14.5266411  50.9835548  89.1908194  15.1771233
  44.8448217 110.5309583   1.7141411  44.2403293 110.9178116   1.0807678
  45.6062454 111.1109211   1.7036316  22.5918269  35.4376817  86.3712883
  22.3817539  36.0322070  85.6511211  23.5189652  35.2328491  86.2500954
 112.9543348   4.7115180  81.8123055 112.9743411   5.4418331  82.4307442
 112.2248597   4.1669801  82.1082401  97.8571959  40.7612610  86.6037655
  97.9363818  41.4593601  87.2538567  98.5651119  40.1534891  86.8175220
  18.0441201  64.4127321  82.3875427  18.5223627  65.0395393  82.9303360
  18.4098744  64.5274544  81.5104485  77.8081114  43.9711894  36.6604111
  78.5085351  43.3194210  36.6315434  78.0696089  44.6323516  36.0195419
  24.9625134  19.0872371  82.5434399  24.8106837  19.0597284  83.4881210
  24.8629475  20.0105929  82.3116398 102.9698308  49.2453051  90.1236820
 102.8510053  49.6749640  89.2766285 102.8590067  49.9466324  90.7656288
  98.7449868  32.5114512  73.8640690  98.0711026  32.1329427  73.2994080
  98.2895894  33.1953311  74.3551445   7.7248925  14.9612486  88.5766506
   7.2615093  15.4053438  89.2867756   7.2707433  14.1240919  88.4809875
  52.2454882  62.7481508  92.2233391  51.8731499  63.5160351  92.6568604
  53.0274010  62.5400114  92.7347279  25.0869703  46.6892385  62.5685406
  24.7554421  47.4509382  62.0930147  24.6180892  46.7050505  63.4028864
  10.6569636  18.4616923  84.2538071  10.9000444  19.2411363  83.7541962
   9.8268104  18.6933708  84.6702194  29.4863391  58.4759188  89.6069717
  29.3070221  59.3040419  89.1616821  29.6182156  58.7202120  90.5230331
  14.0675259  16.0614705  80.4719543  14.2088199  17.0077813  80.4443169
  13.1155789  15.9615207  80.4781914  64.8590094  95.3522517   6.4339802
  64.2073375  95.8340027   6.9433567  64.6034915  94.4343044   6.5251610
 106.2561472  38.0267096  88.7363148 106.1258240  38.0139804  87.7881145
 106.3559027  38.9539552  88.9519501  67.9859692  94.1873290  16.5113804
  67.6477510  93.4902956  17.0735046  68.6930830  93.7737896  16.0162041
  55.2199620  91.4949061  27.3799011  55.4230541  91.2780859  28.2898304
  55.6549436  90.8127739  26.8683216  37.2621942  40.5001068  66.2866640
  37.7895474  41.2478971  66.5676212  36.8043017  40.2188253  67.0787764
  54.4186742  77.4998023   4.3886635  53.6083264  77.8697254   4.7389767
  54.3042165  77.5288703   3.4387753  60.1343781  98.0199291   8.4713051
  60.3280694  97.2352125   7.9585335  60.9934265  98.3672620   8.7113640
  56.2394232  91.6871144  18.8033745  56.2903744  92.3116519  19.5269653
  57.1425528  91.5995146  18.4985516  17.9144812  39.6859002  84.6596909
  17.2988224  39.0284395  84.3357468  17.6871443  40.4832029  84.1813087
  84.0420515  99.5259811   3.4551498  84.7156936  99.6175338   2.7813122
  84.5194751  99.2394354   4.2337296 103.7786765   7.3141068  77.3563957
 103.4378941   8.1514788  77.0418978 103.0047114   6.8388563  77.6586342
   8.7004542  47.2436714  88.8878632   7.9340732  46.8575716  89.3119144
   9.1706628  46.4969110  88.5170841  21.9247770  22.8843570  74.7227430
  22.5966930  22.3542929  74.2940331  22.4045110  23.4019947  75.3693771
  95.7799740  31.1682200  62.5598574  95.7020588  31.7242527  63.3350897
  96.1778708  31.7340779  61.8982601 103.5402436  41.4771080  95.0484657
 102.6397236  41.2820768  95.3078079 104.0788956  41.0577059  95.7194233
  22.4025423 106.8046667  37.9024765  22.5659246 107.5926353  38.4207794
  21.8784267 106.2452985  38.4757492   1.3368015  45.6328964  68.2971287
   1.0372026  44.7954559  68.6509085   1.7471924  45.4071856  67.4623442
  56.5155238  89.6772649  26.1463234  57.1096665  89.9824311  25.4606792
  56.3369948  88.7645604  25.9197590  43.1515691  90.4990794   1.4409897
  42.7643118  90.1543833   0.6363556  43.9799732  90.0276925   1.5291569
  42.6780510  33.7709332  63.4092951  42.1170139  33.4590411  62.6992321
  42.6423693  34.7250462  63.3412695  82.0686895 104.8545887  11.3710663
  81.4625246 104.1659357  11.6441128  82.5946457 104.4508316  10.6807205
  15.5345654  64.7648287  63.7767267  15.1336670  64.0071440  63.3507967
  16.4442754  64.7533369  63.4791946  41.7133187  83.7693478   4.0255615
  42.2907582  84.2718984   4.6002171  42.2893069  83.4405734   3.3353588
   8.5759896   1.0133845   0.0948975   9.2880219   1.3616139  -0.4417446
   9.0085095   0.6860263   0.8835575   7.5458878   5.4097373   6.2878868
   6.8897026   5.7255227   5.6666538   7.1019095   5.4290063   7.1356747
  20.9186053   6.6322964  69.2877960  21.3145423   5.7817703  69.0978718
  21.0581160   7.1446323  68.4913778  98.5117520   4.4457442  41.6170475
  98.0959440   3.5975606  41.4623901  97.9854024   5.0660474  41.1126587
  96.9722683 105.8761837   9.5203850  96.1256725 105.5502416   9.2149803
  96.7761690 106.7322876   9.9009869  13.5717010  37.4976969  72.7317333
  13.3796728  38.3945322  73.0056763  13.9215708  37.0770645  73.5171556
  27.0868659  10.4097533  96.3779354  27.7757716  10.4936886  95.7186985
  26.3347197  10.8633459  95.9974575  97.4152691  85.5399229  14.6683189
  97.2251350  86.3068630  14.1280529  96.6802484  85.4892351  15.2793858
   3.6205733  45.9166050  78.9431715   3.3891824  46.1176872  78.0363846
   2.7848142  45.7172203  79.3650532  82.0622621  17.0795018   0.0824139
  82.2713686  16.1724240  -0.1405457  81.8652589  17.0566613   1.0188458
  13.2753587  26.9031954  59.0372705  13.4755218  27.0826292  59.9559498
  14.1221416  26.9521475  58.5936546  20.5176306  34.2017746  50.7418156
  21.1079645  34.6709347  51.3314199  20.9959722  33.4067035  50.5066967
 113.7352084  55.8130980  92.6128483 114.5946850  55.7966375  93.0338669
 113.3939956  54.9265146  92.7301979   6.4418012  24.9975801  78.7993717
   5.5456400  24.6770334  78.9012384   6.9198883  24.6090055  79.5319510
  50.9959173  73.2491684  88.7717342  51.8397474  72.8488827  88.9813709
  51.1881447  73.8502121  88.0519962  75.9222442  85.7436563  37.3358986
  76.4454657  86.2867953  37.9253647  75.7714421  86.2978698  36.5701744
  41.3660622  31.6909409  83.6874676  42.2643948  31.9348574  83.9104843
  40.8825636  32.5168943  83.7036896  94.5573581  28.6576039   4.1053459
  95.0186289  27.8774316   4.4132206  95.2535463  29.2791707   3.8927242
  11.4081883  77.8187895  86.2947655  12.3201120  77.5689936  86.1456680
  11.0680985  78.0159426  85.4220104  25.5957556  48.4056473  80.9217167
  26.1548638  49.1521883  80.7065296  24.8656726  48.4678030  80.3058052
  53.3798105  97.4861910  17.5964996  52.7516479  97.5437309  18.3164475
  52.9071767  97.0267584  16.9024059   8.2225949  69.4443703  67.7560139
   7.3301446  69.3481159  68.0884266   8.4688056  68.5639238  67.4724054
  82.3355228  64.5164289  19.8160526  82.4837810  65.0180073  20.6177208
  81.8538505  65.1147027  19.2448303  87.7054615  17.8567273   8.8410637
  87.4171818  16.9764430   9.0823624  88.3533199  17.7157552   8.1506702
  12.3102796  35.3128123  89.2992973  11.5978348  35.2620006  88.6620522
  12.7054894  34.4410992  89.2867279  69.1551573   4.6533733  96.2080860
  69.4603497   3.7610870  96.0440254  68.8733131   4.9716048  95.3504658
  24.8128033  59.6842766  94.7552490  25.5677509  59.4043684  94.2376232
  24.0858865  59.1577578  94.4226742  21.7201781  61.2942266  90.9130478
  20.7670569  61.3794327  90.8899879  21.9376135  61.2881184  91.8452072
  34.5979285   7.8745526  77.2289515  34.1451931   7.2337270  77.7772284
  33.9875793   8.6091769  77.1654463  88.0714507  95.8223057  96.6256332
  88.2720800  95.3292561  95.8300972  87.5006886  95.2421188  97.1294594
  82.7409488  94.8397638  40.3742191  82.3934347  95.4241254  39.7004292
  82.7739412  95.3785207  41.1647198  85.0054879  21.2564046  27.1075508
  84.7871781  20.5546481  27.7208206  85.6676222  20.8739335  26.5317699
  10.6062889  80.3321552  82.6452827  11.5055943  80.5158138  82.9168510
  10.0999451  81.0740471  82.9761124 103.5612620   4.4019944   7.1962997
 102.9813469   4.5712859   6.4538166 103.6584891   3.4498746   7.2120354
  42.7710009  47.1993923  70.6208849  42.5711966  46.6106415  71.3486814
  43.3389997  46.6859341  70.0464535  94.7380657  84.8439598  77.7188683
  95.4182334  84.4463634  78.2624912  94.9070831  85.7845211  77.7735901
  15.3903186  66.9961739  90.3096867  14.4728279  67.0476341  90.5776310
  15.4597127  66.1579943  89.8526573  41.0065264 100.6018593  11.7359993
  41.5037574  99.8906089  12.1398708  40.7587530 101.1666443  12.4680206
  84.6289856 100.7672121  16.5307209  85.0520164  99.9183847  16.4012215
  84.7999222 101.2462093  15.7198116  93.5523159  90.6255247  17.3072788
  93.5614092  89.6702220  17.2477314  93.6592514  90.9228517  16.4037392
  68.7427927   9.9763829  19.4497845  69.3871988   9.8395879  18.7553284
  68.2020319   9.1867310  19.4336674  81.4188368 107.2932007  17.1874020
  81.3602573 107.4092151  16.2390682  82.3465997 107.1238519  17.3511288
  26.2110209   9.7211289  92.1565247  25.6189990  10.4536378  92.3273182
  26.0387778   9.4812459  91.2460136   7.6827401  90.3327751  75.6196260
   8.0741620  91.1627293  75.8920050   6.8189812  90.3285408  76.0320950
  39.0738654  56.4597034  88.9580536  39.8198175  56.3845539  89.5531559
  39.4679379  56.5621138  88.0917740  62.8193003  90.9184624   3.3297703
  62.5454265  90.8811905   2.4133465  62.0115358  90.7885267   3.8266251
  47.7618099  98.5748150  12.1039841  47.1507711  98.9732458  12.7237484
  47.4348903  98.8368036  11.2433312  84.7958882  16.8209273  15.0746414
  85.7383336  16.7746836  14.9137280  84.4211299  17.0752341  14.2313644
   6.2215179  19.0231931  76.6313887   5.2987671  18.7694585  76.6118622
   6.3067031  19.6707988  75.9316874  32.4917316  90.5771351  90.4641628
  32.3214221  90.9532452  91.3277435  33.3504033  90.9212303  90.2181625
  46.0118938  94.1656567   7.6243279  46.3661653  93.3043887   7.8455421
  46.6050774  94.7850396   8.0494473   1.8803063  27.9632258  93.4044361
   1.1327298  27.3663688  93.4379482   2.2723860  27.8080010  92.5451279
  83.3355505 102.5828888  13.2843277  82.4863035 102.7080251  13.7078259
  83.8815099 102.1770479  13.9577076  23.3986068  33.3900118  94.5416546
  23.8437819  34.0665054  94.0313530  23.4134722  32.6163340  93.9782429
  32.5483871  57.5932360  85.9211445  31.7132878  57.3783016  85.5056381
  32.7075768  58.5059929  85.6808090  27.9388088 104.8684885  17.1106121
  27.4017889 104.9498989  17.8987762  28.2959098 105.7457639  16.9724247
  65.6126267 109.9516727  10.0517056  65.0476104 110.5614282  10.5262444
  65.2613551 109.9431135   9.1613361   1.4080194  68.7007570  69.7224998
   0.8613019  69.0294933  69.0088749   2.0739743  68.1678343  69.2880678
  51.9845438  80.3521633  90.6844807  51.7194939  79.4658279  90.4387665
  52.2456646  80.7614422  89.8595333  97.1452917  15.4629046  19.7770569
  96.8560518  15.1739318  20.6425354  97.9020000  16.0224253  19.9518654
  86.2411434 103.9759304   5.5847427  86.6690094 104.5737220   6.1977741
  85.3652078 103.8464786   5.9483597  59.0014869 105.6354715   6.4381191
  59.1658539 104.7302009   6.1741039  59.3488867 105.6922056   7.3282406
  74.6015388  87.6207592   4.7367355  75.2102954  87.2060610   5.3480312
  75.1385409  88.2477977   4.2522976  22.8071761  24.2884779  89.2703629
  22.8016853  25.1823878  88.9281178  22.4369240  24.3663621  90.1496124
  51.1016971  69.3844487   1.8580410  51.4526612  68.6613752   2.3778698
  50.2287394  69.0905787   1.5976212   4.7123306  42.8178841  26.5365288
   4.4861191  42.2211987  25.8230660   4.3689793  43.6665303  26.2569782
  61.9666899  36.5362412  20.7132694  62.7736057  37.0496423  20.7525131
  62.1722032  35.8118493  20.1222870 103.1717808  52.2211220  23.2731316
 103.3431942  53.1619324  23.2315990 102.5084478  52.1284826  23.9569733
  17.5654840  45.9426546  94.2769241  17.8661227  46.6224480  93.6738205
  18.3652020  45.4911566  94.5467949  77.2186023  84.2198087   4.7774288
  76.9332177  85.1073672   4.9942848  76.4656264  83.6678149   4.9885151
  14.0383482  63.4596395  74.8594904  14.0370393  63.7259674  73.9400864
  13.1384373  63.6040401  75.1519585   3.0996791  35.1918626  74.9633312
   2.8938958  36.0155416  75.4054117   3.7971547  35.4180264  74.3480206
  51.2110550 103.8958980  22.6481411  50.9649557 103.4512331  21.8370125
  50.5351860 104.5626070  22.7703545  28.0679035  71.4053297  82.1019936
  28.3280802  71.3984203  81.1808586  28.7827039  71.8582535  82.5493813
  92.4940194  10.7641322  17.6513645  91.9816602  10.5936057  16.8610165
  92.1528352  11.5945203  17.9834530  14.1859758  49.7699356  71.3156176
  14.1686308  50.0845337  70.4117584  13.3789301  49.2637014  71.4085531
  68.2577879  95.2593209   2.6125881  67.4307186  95.6272175   2.3014042
  68.0443889  94.3567754   2.8494618 103.2027323  55.2954388  85.8099079
 102.5658436  55.6045818  85.1656723 102.8818066  55.6342745  86.6456318
  12.0553362  42.4045753  74.4432688  11.9274139  42.5028610  75.3867769
  11.5416133  41.6309643  74.2112160  44.1308508 102.7354433   4.1475365
  44.5344079 102.9606725   4.9857685  43.1895489 102.7888157   4.3128655
 117.1308381  69.5990610  72.9503679 117.3006985  70.5249405  73.1239223
 116.5719479  69.5996475  72.1732712  84.2658788 110.9076502  -0.0072983
  84.1087944 110.1187565   0.5115482  85.1218635 110.7626869  -0.4104164
 116.5043977  84.7932243  67.9010010 116.7211528  84.9932575  68.8116264
 117.3518247  84.7410679  67.4589825  18.0350208  22.1676469  93.9490795
  17.8542984  22.7751756  94.6663570  17.7800798  21.3107276  94.2910290
  15.5538130  86.8763542  47.9728985  16.3410592  86.4997864  47.5796127
  15.3460634  86.2905693  48.7008619  37.6474956 102.3061516  11.2607166
  37.2215099 101.8614008  11.9935009  38.1298517 103.0269338  11.6657326
  53.1846172  95.4857494   7.0658752  52.9377228  96.0534097   6.3357803
  52.7245623  94.6636678   6.8962833  42.6883268  48.9539623  93.8712215
  42.1580791  49.1050434  93.0887604  43.3650303  49.6300316  93.8361835
 110.1001991  27.8455025  22.6514504 109.8953927  27.5509221  23.5388634
 110.2142490  28.7923199  22.7337238  42.2134638  21.3622284  70.1753521
  41.6324615  20.6708312  70.4925823  42.3870802  21.9018269  70.9466648
  19.4887662  47.2260571  83.7093163  20.2720666  46.6901731  83.8338184
  19.5401847  47.8890085  84.3978500  -0.0268037  10.0224788  37.1917126
   0.4015535   9.3199307  36.7026588   0.0944298  10.8010442  36.6482327
  41.4977598  48.5296297  47.5913858  41.1994505  48.5197783  46.6819048
  42.2944021  47.9989958  47.5879145  15.9014017  66.2533213  37.7263233
  15.2234632  66.7620482  38.1711075  15.5451352  66.0916866  36.8527195
  32.2134709  60.9796715  80.0554085  32.7712011  61.7374039  80.2315044
  32.4536586  60.7060528  79.1701555  87.0375663  89.5079400  17.7287266
  87.0223219  89.6037366  18.6809990  86.5217048  88.7197067  17.5590107
  59.9518091  88.2710983  10.6072971  60.5218250  87.7622129  10.0308010
  59.1658670  88.4325768  10.0853226  40.7158089  36.3701010  86.6075611
  41.1809397  36.0062599  87.3608875  41.3809204  36.8694639  86.1337471
 113.0752672  35.5398518  18.2989189 112.4280871  35.3658158  17.6154682
 113.1602729  36.4931924  18.3111069  26.7347401  12.0589310  13.0887386
  27.6627320  11.8598372  12.9645702  26.5404671  11.7525155  13.9745113
  37.4769688  64.0033627  90.2819157  37.1731949  63.0958223  90.2999687
  37.5733542  64.2052078  89.3512154  66.2039596  70.5482067  34.3821117
  65.6583387  70.5683066  33.5959026  65.5957109  70.3371586  35.0904438
  11.1057746  62.6416540  94.3590069  11.4734280  62.5435305  93.4806919
  10.1644301  62.7386570  94.2151546  78.1670734  12.3174722  22.6212379
  78.4587630  11.4109713  22.7182266  77.2402964  12.2976929  22.8598282
   4.5615500   8.2202584   2.0948765   3.7675684   8.7177045   1.8989918
   4.3900936   7.3469550   1.7424843  44.9715347  92.1636678  15.7007191
  44.5666296  91.7108704  14.9609539  45.5932731  92.7704789  15.2989075
  34.9848771  52.7123499  86.1857700  34.9810815  53.6284399  85.9082890
  34.7974491  52.2193623  85.3869820  53.6013192  86.9936301  18.7878201
  53.4086198  87.8400089  18.3844063  53.1400723  87.0173575  19.6262238
  22.7245135  94.6605851  38.9460823  23.3305401  93.9376260  38.7839291
  22.1388108  94.3335773  39.6289131  94.5806123  22.6765878  12.5299332
  94.2291618  22.1258551  11.8303558  94.0792645  23.4897382  12.4693653
  63.8900549  76.2764432   4.1112778  63.9133126  76.9502331   4.7907612
  63.2026202  76.5652157   3.5110542  78.5504535   8.1520039  16.9392559
  78.3687934   8.3706338  16.0252354  79.2573929   8.7459428  17.1916554
   6.8455470  80.0481796  80.7579708   6.8788576  80.6531906  81.4989662
   6.7476547  80.6132603  79.9915934  89.6062351   7.0404918   2.7837727
  88.6983121   6.8175465   2.9892036  89.5756484   7.3636300   1.8832848
  60.5412060  90.0756766   5.0419113  60.5849320  89.8835780   5.9786198
  59.6468646  90.3871705   4.9027893   5.9903634  52.4412823  91.1412525
   6.7303133  52.1150541  90.6291199   6.2360501  52.2731590  92.0509815
   3.7351530   5.9581715  17.9576275   2.9725331   5.4513413  18.2365009
   4.2685431   6.0427720  18.7479279 108.0012763   7.6534612  20.1747391
 108.8513745   7.3614604  19.8456451 108.2136763   8.3155972  20.8325359
  83.9842756  44.0452344  14.1062138  84.6294291  44.7195393  13.8933155
  84.1654075  43.8200623  15.0187561  50.6290299 106.5051557  16.8379566
  49.9358958 105.9366085  17.1734402  50.6990964 106.2761261  15.9112045
  60.0355226  78.1266262  12.6802990  60.3568775  78.4550573  11.8405983
  59.1344578  78.4452583  12.7331135   9.0717781  38.1331539  92.6043034
   8.3226216  38.0118871  93.1876469   9.8257124  37.8471518  93.1200695
  11.9179559  69.4656754  80.3765011  11.1576021  70.0362778  80.2646637
  12.3344338  69.4499826  79.5147943  61.3062865  83.4113576   4.8151562
  62.2616321  83.4283878   4.7580978  61.0766942  84.2397167   5.2362701
  47.9759169  57.2247934  89.7957516  48.6712074  57.2760534  89.1398716
  48.3672190  56.7396355  90.5222034  96.4785183  17.6846415  47.1220657
  97.1080340  16.9740016  46.9998619  96.5579439  17.9185826  48.0468342
  64.1324193  96.7096092  27.3388168  63.5579831  96.6971828  28.1043884
  63.9660579  97.5581552  26.9282982  66.6926676  97.8494169  14.2313644
  67.3568017  98.4542991  14.5619270  66.9843871  96.9876053  14.5287010
  29.1772056  72.8573418  95.4844379  29.7087669  73.4339666  94.9356365
  28.5802746  72.4272633  94.8721123 102.4055828  26.3598592  12.7368996
 102.3394049  25.5498273  13.2425758 103.1861556  26.2412793  12.1957180
  53.7266111  22.7180934  91.1432838  54.0432692  22.3813820  91.9814873
  52.8035021  22.4662352  91.1173248  58.1678790 102.1325924   8.2763168
  58.9452905 102.2639324   8.8190910  58.2801003 102.7410509   7.5459644
 107.3849548   6.4089448   5.0267288 106.6678966   6.0363252   5.5397770
 107.5138153   7.2830779   5.3948471  89.8789531 102.5212719  10.0316879
  89.0878517 102.3081447   9.5367500  89.5552093 102.8676655  10.8632156
  76.6189442  25.8051831  19.6582195  75.9386892  26.4748723  19.7289345
  77.2504310  26.0322244  20.3407929  81.4278585  97.8831484  32.7258560
  81.6718799  98.8059618  32.7972862  80.4728920  97.8922464  32.6611397
  45.1223076  96.8235113   1.2113354  44.8046780  96.0874035   1.7342922
  45.8487744  97.1831466   1.7203972  30.9410810  74.0843391  83.5552311
  30.1944494  74.5086527  83.9780045  31.6288924  74.0910864  84.2208958
  54.6383721  82.6224019   2.2578213  54.7114033  83.4482958   2.7361462
  54.4328756  81.9733097   2.9306290 106.6653670  47.1708829  10.7666180
 106.7105831  47.0376832  11.7134258 105.8421792  47.6397759  10.6297562
  74.3883378  68.2877280  23.8221333  74.5275957  69.1890575  23.5315392
  73.4721858  68.1070854  23.6117432  72.4398548  96.8994381  20.0053093
  72.3636514  95.9810688  20.2641937  73.2860023  97.1776725  20.3558132
  90.2873875   1.2075621   8.5822365  90.6297339   1.2031514   9.4761059
  89.4032086   1.5645224   8.6661503  16.4432538  86.0857296  88.3355522
  15.7868290  85.8074284  88.9742184  16.5971088  87.0087719  88.5369492
  64.7449285 103.6956789  35.4534409  64.0509183 104.0910198  35.9809658
  64.4363457 103.7781049  34.5511028  24.6250200  70.3280354  66.1334705
  25.4468012  70.3268337  65.6426525  23.9666438  70.6080151  65.4975605
  72.8145320  95.0113608  10.3962776  73.0509741  94.1179802  10.6456730
  71.9076568  95.1090099  10.6865761   1.8230337  13.3758080  73.2295132
   2.2759172  12.8768301  73.9093304   2.4094303  14.1079891  73.0390406
   4.1598597  49.9950790  82.8637695   4.4264653  49.0777016  82.8039646
   4.6359572  50.3339291  83.6218834 106.2785633  83.1176090  80.8792877
 105.9089811  83.1694317  81.7607403 105.9524341  83.9010048  80.4363918
 104.3546308  29.8275334   3.8250706 103.8554038  29.1455228   4.2743656
 103.7196530  30.2451093   3.2431290 102.8451718  12.0982796  19.7615120
 103.0375136  12.9959494  20.0324890 103.5532368  11.5769679  20.1398060
  85.1183683 108.2030107  31.9387314  84.5140106 108.0425502  31.2139961
  85.9393579 107.7971985  31.6602871  19.0171206  63.6968184  65.4494333
  19.2654729  62.8015423  65.6797218  18.6223722  63.6199617  64.5808172
  10.1544833  59.7533512  83.1379032   9.3289590  60.1096058  83.4662724
  10.0098538  58.8078260  83.1019402  13.0072439  50.7112885  77.5469017
  13.5490322  50.7291937  76.7579937  12.1450686  51.0044622  77.2520542
  81.5429622  85.3906752  23.3189461  80.7068092  85.6581737  22.9374764
  82.1020967  86.1631562  23.2360432  87.9878379  11.5000922  26.5306828
  88.0227972  12.3840577  26.1651585  88.4182234  10.9522778  25.8742592
  64.5641667  99.2842199   8.3517525  63.6978394  99.0373232   8.6754105
  64.5349533 100.2392103   8.2937119  10.1717031  85.5050945  57.0324183
  10.9115744  85.4444981  57.6366949   9.5982540  86.1654758  57.4213648
  41.3039827  83.6836433  84.4581318  41.2275362  83.2247066  83.6216068
  42.1410036  83.3892345  84.8172283 117.7471817  21.4683301   9.3338177
 117.8421534  21.3782937   8.3855984 117.8438366  22.4066932   9.4961807
 103.3970529  91.1719038  46.4566490 103.2595760  90.4176332  47.0297119
 103.0866033  91.9199993  46.9667503  41.5168928 110.8331062  35.0603172
  42.1558008 110.2723886  35.5003426  41.6671104 111.7031957  35.4299328
  58.3746804  13.0944783  14.9042484  58.7870372  12.2361762  14.8067448
  58.1008686  13.1259114  15.8209106 113.3006684  72.9325867  91.6955471
 112.4375684  73.2704020  91.4564514 113.1163956  72.1409464  92.2010994
  81.1738514  11.9666201  13.7904713  80.2717722  12.2467143  13.6354515
  81.1089359  11.0240609  13.9441082   6.2347000  18.7371928  47.7248737
   5.8938997  19.5087535  47.2723457   6.9706696  19.0673739  48.2402012
  20.8226609  88.3032417  66.7130661  21.3729310  89.0802002  66.6142273
  19.9337482  88.6164570  66.5458393  65.1440174  98.2086994  12.1087906
  64.3268210  98.4739305  12.5307724  65.8243114  98.4266950  12.7459023
  57.1176512  96.8853714  14.3456051  56.6796881  97.5310137  13.7910149
  56.4634759  96.6524221  15.0044128  57.2151810 100.4930021  16.1926434
  56.3563389 100.1568891  16.4488670  57.2281701 100.4147340  15.2387402
   4.9815065  85.0478102  40.8583614   4.7127563  85.9533002  40.7031414
   5.9305054  85.0548841  40.7335350  28.7826705  47.5946140  96.1966801
  28.5100031  48.3542395  95.6820393  28.7768197  47.9043102  97.1023846
  96.8399687  58.5738516  76.4588308  96.6028185  59.2142820  77.1295357
  96.9034190  59.0845919  75.6517649  56.5099150  69.2512705  21.0985443
  56.4128310  68.4416737  21.5999004  57.3037357  69.6558847  21.4483521
 101.5683277  62.4963665  83.1942749 102.0139082  63.3275270  83.0303764
 101.3353367  62.1737766  82.3237038  90.2025009  36.8749959  23.7973282
  90.0066329  37.7923161  23.9881107  89.4286741  36.3976151  24.0965340
  31.8753242  55.8028269  88.2852459  31.5422463  56.6640759  88.0331707
  31.9779110  55.3339243  87.4570942  87.3897750   7.6157100   7.4439690
  88.1118447   8.2240111   7.6015064  86.9659407   7.5210196   8.2969830
  84.4206936  95.4755117  18.9939568  83.9894087  95.4213621  19.8467705
  85.2920133  95.1081087  19.1424439  45.9516198 102.5154258  10.7333633
  45.4922998 101.6829206  10.6229469  46.1578608 102.5531532  11.6673157
  53.6528338  35.4770333  45.1435635  53.4948171  34.7706563  44.5172283
  52.7953161  35.8840901  45.2668736  45.4254913  64.3982172  95.7360268
  44.8991442  64.5870161  96.5129089  46.3311815  64.4589996  96.0397720
   7.0737064  61.7157650  83.2011127   7.8829843  61.8972492  83.6789799
   7.3471940  61.6401291  82.2869301  61.2333185  78.7708451   4.0663788
  61.7391688  78.1065871   3.5982868  61.8839938  79.2497732   4.5796749
  66.6520697  73.9068689  12.8027508  65.7224495  73.7688972  12.6210854
  66.6640527  74.4509329  13.5902092  24.5463562  47.6048326  55.7412577
  24.7180939  46.6641378  55.7839775  25.3975320  48.0113316  55.9040213
 108.8116086  37.0766122  16.3059876 108.7332142  37.6192338  15.5213615
 108.3910883  36.2501389  16.0686371  54.9108762  93.8288595  31.3175461
  54.3169147  93.7732031  32.0661041  54.3356568  93.9678528  30.5651924
  13.5047841  24.5733738  69.8557425  13.7082767  25.4349637  70.2197313
  12.6186013  24.3858600  70.1651764  28.2618683  16.3477475   2.8292152
  28.5775679  16.5598828   1.9508240  28.4428805  15.4131896   2.9295704
  72.6829726  99.8107387  15.3749153  73.2318742  99.2893221  15.9606335
  72.3603064  99.1836883  14.7276756  88.0527240  99.2703487   5.2500889
  87.9033024 100.2098753   5.1442596  88.7246830  99.0601541   4.6016094
  57.6499557  72.2533274  70.9442377  57.2038126  73.0994844  70.9789801
  57.5609493  71.9728565  70.0333881  60.0747544 105.1160862   1.7768738
  59.9805433 106.0482599   1.5808746  60.9357793 104.8840238   1.4290020
  24.9688911  64.0365362  87.0413494  25.4505897  64.3306541  87.8144646
  25.6194019  63.5691547  86.5173054  38.4469769  68.8297214   2.1548626
  37.5942022  68.4594835   1.9269821  38.9733215  68.0747248   2.4178764
  16.4909625  43.8113594  87.3547173  15.8507216  44.5160389  87.4534702
  16.8986595  43.7355423  88.2174301  20.2679699  26.4514214  11.6294834
  19.6506470  26.7433411  12.3002502  21.1307018  26.6172177  12.0095322
  67.5940622   3.4736544   4.8416493  68.3383597   3.5111625   4.2409489
  66.8256141   3.4701163   4.2709515   7.4370462  54.1484690  95.9790134
   7.5451285  55.0722980  96.2050343   7.6704228  54.0998077  95.0519753
  47.1873212  91.7971112   8.4383652  48.0667764  92.1380378   8.2753918
  47.3294139  90.8946301   8.7239716 105.1276905  89.2969896   7.4827263
 105.9583742  89.1842248   7.0206806 104.4601137  89.0833952   6.8308422
  20.8306074  49.5646858  66.4751291  20.5828047  48.6536646  66.6328001
  20.0071597  50.0496960  66.5292835  53.3026499  65.0701924  16.3957951
  53.5345120  64.7657175  15.5184242  53.2949287  66.0246517  16.3238308
  35.9437799  36.7194057  65.3144884  35.0873303  36.9092321  65.6974936
  35.8078146  36.8025780  64.3706512 101.4463557  41.2864262  39.0943310
 100.5790652  41.4536816  39.4632027 101.7241920  40.4645306  39.4987366
  22.8253484  40.3526211  85.8828926  22.0351887  40.7311916  85.4974556
  22.6702929  40.3845310  86.8269062  58.0328960  45.8130302  14.0357468
  58.9828796  45.8168431  13.9184925  57.8758556  46.4429648  14.7391388
  16.7876792 106.3007164  94.2685413  17.6386595 105.9791183  93.9708138
  16.9737661 107.1638489  94.6381378  88.9972717 106.4802028   1.6264030
  89.8654587 106.8790676   1.6846153  89.1697103 105.5572559   1.4402172
  80.0857348   4.7951562  33.9711735  79.2391458   4.4661338  34.2732689
  80.4550497   4.0738732  33.4616634   3.1267660  12.1871859   2.0308849
   3.0282944  13.1355721   1.9466183   3.8935917  11.9776875   1.4976666
  50.0666761  23.9962459  87.3382759  50.1404715  23.9887667  86.3839531
  50.9270906  23.7126207  87.6472664  29.3055964  71.6637659  76.3878202
  29.6026659  72.5182390  76.0749960  30.1121068  71.1857128  76.5807867
 115.6845552  79.5311047  46.0261986 115.8419449  80.2522184  46.6356728
 115.9866029  79.8621299  45.1803753 116.3955368  11.0030324  23.1008503
 115.9917797  10.3383214  22.5428459 115.7344902  11.1898906  23.7674400
  96.1355997  34.7366673  16.5467236  96.0907055  35.4995972  15.9703896
  96.2305618  35.1052338  17.4250099  57.9290349  97.4905922   4.8104546
  58.3509332  98.2882168   5.1298687  57.2513777  97.3016693   5.4595539
  76.4546334  23.5865886  22.8416130  76.3401640  23.2111556  23.7146351
  76.1167673  24.4788796  22.9184219  89.5423401  21.3591201  56.4882156
  89.1612555  20.6490237  57.0047161  90.4684640  21.3609225  56.7301342
  11.6205424  13.3834798   7.5502846  10.7899302  13.8492114   7.6473019
  12.1007364  13.8848979   6.8913242 116.5511700  34.5445013  88.8272381
 115.7198839  34.8573232  88.4704018 116.5235928  33.5958838  88.7023544
  70.1629574  91.5303089   1.3575909  70.1608831  90.5954076   1.1521885
  69.4020373  91.8792083   0.8933613  35.7619736 100.7963707   6.7586205
  36.1435092 101.4263393   7.3700211  36.4872790 100.5504133   6.1844608
  42.4710608  54.1577768  88.3600712  41.6065931  53.8874769  88.6696911
  42.7027607  53.5065126  87.6979542  37.1889418  15.4187400   0.8257172
  38.0352514  15.3554541   0.3830120  37.2540539  16.2140567   1.3543579
  87.4141903  13.8393885   5.4337284  87.8057266  13.5642154   6.2627098
  86.7040915  14.4286734   5.6881687   8.2436054  10.3621871   9.5162746
   8.7473934  10.0253779   8.7753365   8.8996046  10.7502896  10.0953075
  94.8014904  18.3667046   2.7873776  95.5424477  17.7965886   2.9927609
  94.0299619  17.8211362   2.9401276   0.4935497  34.3070943  25.6767532
   1.3507050  34.1146905  25.2966187  -0.1279194  33.8508469  25.1094315
 103.0414594  19.3545157  21.2379524 102.0906461  19.4585330  21.2748501
 103.3710326  20.2319438  21.0437080  52.9902857  10.5949599  29.1159031
  52.7181547  10.8544738  28.2356617  53.3332461  11.3983924  29.5071957
  75.4754454  98.2855846   4.2256901  75.4620392  97.6968147   3.4711048
  74.5558125  98.3758928   4.4753906 109.4541140  49.8445272  82.7285290
 110.2535732  50.3701401  82.6997662 109.7199328  49.0270805  83.1496620
  83.9920373   7.8337008   5.6027958  83.4983400   7.0136887   5.5939457
  84.0764887   8.0524165   6.5308353  90.7816280  52.5259454  15.5544445
  89.8783339  52.8186280  15.4334995  91.3140369  53.2467229  15.2179024
  74.0835530  88.3980324  18.2947514  73.8241059  87.8096391  17.5857327
  74.7274334  88.9837076  17.8964588   9.1481096  16.2780952  62.2701120
   9.8431277  16.9358730  62.2926903   8.9765233  16.0792637  63.1905794
   6.3827378  46.2300587  82.5151157   5.5528426  46.4100981  82.0734310
   6.9694835  45.9438658  81.8150806  61.8724782 108.6356260   7.5061199
  62.0176417 107.8886701   6.9254086  60.9205133 108.6950447   7.5865147
  30.2284646  42.5848627  96.0394192  30.9627032  42.6621532  95.4301929
  29.8653865  43.4690666  96.0903263  12.2101038  31.6224152   3.2607433
  11.6062182  30.8943707   3.4073803  13.0760306  31.2545735   3.4370777
  97.7895904  25.5084855  21.1205074  97.9672779  26.4433438  21.2239525
  98.6557520  25.1029164  21.0816738  75.9547908  96.2846662  34.2506954
  75.8559257  97.2041656  34.0037510  76.6335446  95.9507848  33.6641380
  45.0285053  38.0984521  70.3004074  44.2881823  37.9857707  70.8966064
  45.7382107  37.5975561  70.7024670  25.8253098  78.4534168  92.4014568
  25.8171439  78.4556675  93.3586216  25.4607320  77.6017046  92.1608257
  53.6906344   7.8696494  82.2403812  54.2589277   8.5768275  81.9351482
  53.4844226   8.1019549  83.1457806  64.3018347  89.0125133   8.1095669
  63.9305789  88.1481148   8.2862446  64.1402847  89.1565420   7.1771500
 108.5433854  11.1523015  17.9691956 107.9880513  10.3944594  17.7861282
 109.3698920  10.9557015  17.5282166   1.8058264  47.3763561  83.2084274
   2.0851435  46.8793249  83.9773083   1.6024333  48.2480288  83.5476208
  85.5231292  31.3341100  28.9604351  85.9048367  32.1783978  28.7202236
  86.2625963  30.7263429  28.9537403  -0.0944931  40.1709134  25.8636066
   0.3574413  40.4454381  26.6614887   0.5396980  39.6178681  25.4073402
  57.8006476  42.4293382  13.2203934  57.2270792  43.1935746  13.1640121
  57.6685160  41.9690377  12.3916027  31.3278961  57.6697397  96.4269638
  32.0544219  57.0465803  96.4190960  31.7228842  58.5014486  96.1652851
 116.9510156 109.3385555  13.0353615 117.6105148 109.5421936  13.6985561
 117.0003158 110.0674059  12.4168369  41.1292171  90.0288105  83.1719398
  41.6370296  90.2932167  83.9390469  41.7845917  89.8813438  82.4900532
 115.7592253  50.0426531  91.1789799 116.2434368  49.5129299  90.5455971
 116.3385630  50.7812929  91.3660908   4.7609823  24.2712075  34.4762680
   4.5160835  23.3557803  34.6113560   5.5035370  24.2340333  33.8733933
  29.8401451  78.8287258  73.7254333  29.2882037  79.0153313  72.9659796
  29.3600035  78.1583548  74.2115402  73.9800344   2.9286773   2.7024338
  74.6974907   2.7268750   2.1018002  73.8270182   2.1110589   3.1760571
  76.4221913 108.1747724   7.8135464  75.7162077 107.6917888   8.2431385
  76.4174802 107.8541519   6.9116566  37.7408587 110.5050565  13.5261604
  37.3840715 111.1222460  14.1649220  37.9544360 111.0447885  12.7650330
   4.5828888  95.8766937  78.0368137   4.3441311  95.7188225  77.1234083
   5.4766250  96.2169170  77.9953861 103.1657637  31.1056763   1.4636490
 103.7904967  30.9943539   0.7470295 102.4826730  31.6693646   1.1005089
   9.2135459  80.4376125  78.0782413   9.2145199  79.4810009  78.1116819
   9.0872020  80.6447792  77.1523094  11.9414585  14.9153334  18.9111397
  12.6772993  15.0417430  18.3121559  11.3114374  15.5917746  18.6626694
  27.8085566  67.4690437  89.2000866  27.7271700  67.5308990  88.2483673
  27.8841209  66.5307283  89.3735313   7.6830137  57.4213314  63.2615042
   7.7113962  58.3291054  62.9592228   7.1599549  57.4518871  64.0625715
  45.4064369  68.6138010  75.4626846  45.2166939  68.5143900  76.3956070
  44.6260023  69.0355730  75.1031542  53.9404995 102.1535351  49.6516010
  54.4155616 102.9397680  49.3825600  53.2074661 102.4828197  50.1716587
  13.1413507  46.3743353  95.8109951  12.8146601  45.6109095  95.3348732
  14.0941596  46.2923193  95.7702446  27.8729296  78.2310629  89.7302341
  27.2663307  78.0436945  89.0138817  27.3137522  78.3101940  90.5030823
 108.1948049  47.2619438  66.6529751 108.6099513  47.4346590  65.8079576
 108.6054225  46.4539671  66.9608736   5.2124578  73.2341623  89.1165066
   4.4152042  73.6254501  88.7594223   5.8531165  73.9452887  89.1074085
  51.9139547  83.5635688   1.5500423  51.2960703  83.5070087   0.8211681
  52.6480431  83.0092646   1.2852833  91.4969326  11.7767436  21.7411205
  91.3533689  11.9892842  20.8189175  92.2676123  12.2881419  21.9876072
 109.4312991  44.2727334  28.6254665 109.1359032  44.6333558  29.4614861
 109.7604502  45.0298077  28.1409714  54.0063763  50.7447195  94.2805099
  53.5358000  51.5779161  94.2566586  54.5921659  50.7787561  93.5242558
  19.7488898  43.7763840  23.6761639  19.2723959  43.6925752  22.8502342
  19.1698378  44.2944199  24.2352459  16.4489818  48.8553381  87.1152210
  16.0301149  48.1287575  86.6538525  17.2035384  48.4591532  87.5510120
  22.8098655  61.2543917  60.7113171  22.1939301  60.9066200  60.0664091
  22.4496722  60.9848070  61.5561962  70.5915815  72.2311653  23.7876102
  69.7120387  72.4285390  24.1095993  70.4806477  71.4432182  23.2555744
  88.4338028  83.9719464   7.6195595  87.7403862  83.7493755   6.9983837
  88.2316572  84.8664715   7.8937695 110.2169860  30.0346810   0.7031700
 109.3345273  30.3914029   0.6019566 110.0787962  29.1215665   0.9548924
   9.8649228  75.0731945  88.6061954   8.9899963  75.3489065  88.3328533
  10.1958859  74.5606804  87.8686142  31.7603779  28.0410910  95.8950901
  32.2260785  27.3449326  96.3584709  32.2767854  28.1884575  95.1027298
  33.6439443  77.1165228  91.9312096  32.9876137  76.9664288  91.2508202
  33.1651139  77.5580072  92.6326656  23.3408325  26.0662896   5.3644917
  23.4766262  26.3242680   6.2762234  23.2448023  26.8938596   4.8931763
  34.1952395  63.5714054  93.5663414  34.1855645  63.6348486  94.5213890
  33.8151670  64.3975496  93.2675648 100.8823074  25.4104859  37.2605583
 100.2640713  25.4752595  37.9884407 101.0786689  24.4759042  37.1955368
 111.6824634  77.6837111  92.4439621 111.2022139  77.6638699  91.6161919
 111.0968174  77.2591782  93.0708694 101.3517244  30.1135564  86.5250778
 101.3234933  29.1752100  86.3381481 102.1613021  30.4155636  86.1132431
  45.2352905  55.5925751  70.4724407  45.0892544  54.6543503  70.3514671
  46.1749172  55.7088280  70.3316402  46.5761757  75.5575705  60.1625109
  47.3985434  75.9460115  59.8640823  45.9538889  76.2848854  60.1626205
  94.8672086 107.1464922  17.5011513  95.5928070 107.0598652  18.1193993
  94.3602115 107.8890754  17.8294060   4.3509310   2.6905829   0.9318993
   4.8526972   2.2612197   1.6247913   4.9900263   3.2409579   0.4792664
  74.6510631  84.0267922  23.8462803  74.2774183  84.7829963  23.3937618
  74.3592674  84.1219951  24.7529385  93.4908844  25.4228265  54.7998879
  93.8483394  25.5457837  55.6792900  92.5877703  25.1411111  54.9456760
  44.3845844  55.1690817  82.4459743  43.5218573  55.0387573  82.0523357
  44.3610144  54.6520901  83.2511997   0.3402594  64.8128748  84.8449230
   1.1480349  65.3170061  84.9428177   0.4981346  64.2527199  84.0849686
 107.4584235   2.9799277  12.2967884 108.3034099   2.7137048  12.6592228
 107.3632182   2.4560315  11.5013668  15.7413542  43.6789989  74.4509840
  16.4860559  44.1846609  74.1254711  14.9815536  44.2363882  74.2828989
  16.9164050  47.9386187  82.7438164  17.7945864  47.7947760  83.0964279
  16.6010153  47.0625782  82.5217438  48.3928013  81.3188457  89.7165585
  48.6583042  81.4423180  88.8052464  48.5433960  82.1702003  90.1273537
  92.2972233 103.9274646  11.2581131  92.4161989 103.1658127  10.6906960
  92.2184927 103.5602571  12.1385643  21.4040732  69.8204279  93.1876945
  21.7492342  70.3926992  93.8729668  22.0453978  69.8808193  92.4796772
 114.6878375  35.9878022  10.9663078 114.8007048  36.7381055  10.3827545
 113.7611497  36.0074860  11.2052414  43.0424404  37.0570779  81.7771912
  43.8670492  37.0184040  82.2617149  42.5804949  37.8079128  82.1501350
  25.7174969  53.8371944  77.4551916  26.4439774  53.2425976  77.2683334
  25.3969288  53.5612488  78.3138657  90.5802137 110.5909254  28.6787579
  90.7276136 111.4933111  28.3955452  89.6849853 110.5894329  29.0175793
  32.3810601  53.9248323  77.8286600  32.9871082  54.0095758  78.5647011
  32.4891663  53.0211353  77.5322104   3.0876272  32.8969914  29.2009518
   2.4006527  32.4043423  29.6499416   3.7838429  32.2569138  29.0532467
  75.6796056 110.3626825   3.6468575  75.6440813 110.6865932   4.5468876
  76.2715799 110.9664346   3.1982109  10.8510888  57.9792929  87.4594116
  10.8670020  57.2330141  88.0586243  10.5117869  58.7025833  87.9866314
  28.0678105 106.3896561  54.7287178  28.0474973 106.8003368  55.5931044
  28.9843798 106.1449051  54.6013069  16.6320532  54.5327145  34.3913052
  16.6523951  54.4464356  35.3443977  16.4786881  53.6429459  34.0734837
  32.7930093  96.4479542  85.6723118  32.3432183  95.7030010  85.2736092
  33.1170750  96.1126518  86.5082455  58.6904520 102.8106024   5.5935642
  59.4352085 102.2093298   5.5872509  58.5926837 103.0803920   4.6803925
  33.8921475  80.9468269  95.6313038  33.0648994  80.9757710  95.1506233
  34.2215395  80.0595951  95.4879475  35.7981277  81.1675549  76.9770765
  35.1465321  81.5684795  76.4018250  35.2922344  80.8414078  77.7213430
   9.8812025  41.8324525  19.7297546  10.4946154  42.5447137  19.5490715
   9.1676300  41.9669015  19.1060802 102.6336611  38.5329587   8.8663742
 101.9658793  38.9653451   8.3340809 103.3553232  39.1607911   8.9017269
  91.9639636  22.5599391   5.8316395  91.2308825  22.1319491   5.3893158
  92.1307505  23.3465726   5.3123924  23.9667463  20.5193353  64.3072939
  24.2922139  20.3793430  65.1965094  23.1482649  20.0243497  64.2711210
  51.8369579  97.4471664  90.3404903  51.0352325  96.9292736  90.4129696
  51.6254854  98.2770538  90.7680321  16.8581551  25.8640439   8.1477901
  16.8279093  25.8450658   7.1912548  17.7679556  26.0780103   8.3544514
  41.9473386 100.1057913  27.6331493  41.2134383  99.4986965  27.7283451
  41.5360824 100.9617569  27.5130531  92.8572405  34.1159684   4.3312714
  93.4310127  34.3316037   3.5960743  92.5807858  33.2151181   4.1631290
  41.4220142  48.8723230  62.7294493  41.0603666  49.5049286  63.3501339
  41.3338614  48.0271673  63.1700993  82.0861799  40.7120950  28.3738396
  81.2422005  40.7994992  28.8168881  82.1763209  39.7727544  28.2133934
  39.6651864  63.1652451  81.4632225  39.5058227  62.7268410  80.6273842
  40.6155539  63.1335974  81.5729141  17.6048439  66.3484437  48.7784454
  18.1954926  67.0561845  48.5206101  17.0139664  66.2458379  48.0324146
  77.3573930 102.5801279  12.7608463  78.2034928 102.9485609  13.0150196
  77.5788743 101.8285419  12.2110340   6.1251646  46.8160820  79.0747213
   6.1522949  47.7546501  79.2606974   5.1930380  46.5984392  79.0763330
 112.7228910 110.3473903   6.7245171 113.4289867 110.4026748   6.0806152
 112.7920706 111.1596681   7.2261688  42.3235815   7.9732472  22.0579788
  42.9060477   8.1533963  22.7958939  42.7760046   7.2956330  21.5556023
   7.3080700  34.0126092   8.2134411   6.5126723  33.8435036   7.7084896
   7.9519766  34.2880494   7.5609467  35.7479429  66.0958719  90.7108593
  34.8239017  65.9546709  90.9168720  36.1983991  65.3501320  91.1073399
 109.9021138   3.0662209   3.3516094 110.6496037   3.4289176   2.8762791
 109.9887908   2.1186835   3.2472298  29.2014998   7.1845490  22.4577782
  29.5721548   6.5111453  23.0281899  28.3423155   6.8426425  22.2105190
 111.8208869  71.4654541  87.8413010 112.6710434  71.5917110  88.2626438
 111.7512770  72.1905756  87.2203445  24.8772686  46.3058240   8.5868713
  25.3246611  47.0666177   8.9573738  24.5604628  45.8199651   9.3483135
  63.7240791  71.6924143  95.1833916  64.4250536  72.1490717  95.6485081
  63.2736015  72.3805714  94.6937561  23.8396900   9.5906073  23.6395046
  24.5184057   9.1830451  24.1775295  23.5888642  10.3764397  24.1250870
  19.4183462   1.9905764  13.1695816  18.5745352   1.5402896  13.2077667
  19.8021668   1.8539101  14.0357372  61.3669783  90.1539280  27.9117844
  62.1588666  90.5607130  28.2634518  61.6684086  89.3250229  27.5399181
 117.9586209   7.6984317  42.1928188 117.1797741   8.0140931  42.6510593
 118.5246242   8.4673602  42.1248409  96.4194728  16.1724574   2.9485771
  96.4744080  15.8049590   3.8307163  95.8801044  15.5487735   2.4624416
  36.8687904   3.0296855  89.0020084  36.0595525   3.3393054  88.5951900
  36.6871444   3.0490546  89.9416161  95.3524126  28.2171017  20.0079033
  96.2241162  28.3863694  20.3652641  95.1122261  29.0317113  19.5663807
  92.0968641  20.4598815  15.4255173  92.9494751  20.5029971  14.9925873
  91.6767837  19.6857650  15.0506756   5.3945112  82.0012093  95.1164818
   5.4437339  82.6537418  95.8150673   6.1413455  82.1986580  94.5512486
  -0.1562268   5.5972583  25.3666946  -0.3458888   5.0594050  26.1354420
   0.6836289   5.2687461  25.0458214  84.8438735  14.6035106  76.3678333
  84.1365964  14.0267712  76.0790989  84.3977899  15.3310496  76.8013355
  18.3917260  57.7795935  80.0456715  18.6540508  57.2209835  79.3139839
  18.1634009  58.6154795  79.6389818  34.4433022  90.6173038  94.2833900
  34.5527053  91.3560200  93.6845779  34.4750786  89.8447990  93.7190628
 105.7773174  23.5874516  10.8231136 105.2264441  23.5238368  10.0429127
 106.6675008  23.4487445  10.4997513   3.0191487  53.4323842   8.0200455
   2.9234665  53.4654385   7.0682118   2.1320265  53.5638863   8.3546516
 100.7078947   7.8057105  28.0753490 101.6399516   7.6202351  28.1898090
 100.5837763   8.6657721  28.4767506  44.3834972  81.0880947  79.0837526
  43.9056063  81.1221123  79.9124241  44.6693945  80.1776218  79.0093470
   9.1471260  30.6070668   0.5287621   9.0116995  29.9062020  -0.1089504
   9.1101187  31.4117677   0.0117466  80.2969152  97.4003746   5.3626320
  79.4620020  97.7837230   5.6313393  80.8005649  98.1390096   5.0205967
   1.8663948  47.6591641   7.4748394   1.6005581  47.3699338   8.3477089
   1.0495823  47.7020318   6.9776318 104.7750414  15.5759627  12.9202625
 104.8076571  15.8070618  11.9919560 103.8551272  15.3673608  13.0829784
 100.4477299  23.1048447  41.9880936 101.3870252  23.0710513  41.8069336
 100.1750506  22.1875865  42.0108864  53.6230183  54.2977381  88.8318348
  53.8166714  54.3969059  89.7639751  54.3459129  54.7416830  88.3884716
  44.4802952  52.9537630  84.3697834  44.5268726  52.7488899  85.3036404
  44.7487783  52.1451807  83.9335060 116.2230910   4.7966582  17.9790089
 116.4205421   3.8903434  18.2153198 117.0676983   5.1666552  17.7221653
  36.8842244  62.0469856  93.1277180  37.0898175  61.8197489  92.2208977
  36.1615419  62.6710176  93.0603123  28.2933348  11.2232596   8.8677761
  27.7819937  11.1846310   8.0595181  27.7204340  10.8403737   9.5321629
   0.9061592  35.2455098   1.4711544   0.7769364  35.8576543   2.1955940
   1.1662071  34.4265992   1.8930599   7.8141344  77.7695084  95.6128788
   8.5401773  78.3379889  95.3561211   7.1487254  78.3687782  95.9510136
 108.0871070  13.2480151   9.7725079 108.4801877  13.7020261   9.0271256
 107.6234234  12.5063092   9.3837807  12.3608416  37.7557141  13.3327457
  12.0345753  36.8774468  13.5287640  12.2533386  38.2394559  14.1516945
  59.2863989  50.0795126  95.2330112  60.0800085  50.4296732  94.8282909
  59.2624760  50.4822731  96.1010265  47.9223585  88.5509300  65.9057665
  48.6708593  88.6338043  66.4966202  47.2077417  88.9967632  66.3605070
  83.8705046   8.9938027   2.9361221  84.6379955   9.2465360   2.4229786
  84.2322464   8.5946280   3.7273476   5.5334538  21.3964898   5.2046463
   5.4449433  21.6728217   6.1168072   6.0738581  22.0751530   4.8001549
 104.2659421  99.1913033  90.4955673 104.6694226  98.4082699  90.1210117
 103.3266206  99.0078831  90.4792404  94.4583178  13.4071690  14.3037388
  93.9855004  14.2224080  14.4712326  94.3318988  12.8892810  15.0987503
 110.2828372  19.7143084  22.3321793 109.8818935  18.9972169  21.8409988
 110.4547251  20.3883178  21.6746113  25.7128304  48.1922585   3.7537167
  25.8834332  47.4826390   4.3730518  25.9637278  48.9868218   4.2248318
  68.3705742  97.2008039  11.2532780  68.1458003  98.0237962  11.6873238
  67.5302870  96.7610790  11.1236927  41.6809082  87.0905113  95.7168293
  42.3696327  86.5190887  95.3771782  41.6986275  86.9503593  96.6635418
  71.5136242  94.7776604  96.1950684  72.4494028  94.5801258  96.1559582
  71.2926054  94.7073936  97.1237373  83.9379198  21.1109786  66.0065508
  83.3071501  20.4257732  66.2275934  83.5273916  21.5915923  65.2877283
  22.3195910  63.7591553  77.6783085  22.3485351  64.4286585  78.3617973
  21.5594625  63.9932775  77.1457434 109.7072662  20.7422358  15.4044888
 110.2943719  20.8028514  16.1580536 110.0332750  19.9925525  14.9065659
  22.6613730  66.2443311  13.3526871  22.6161879  65.2908952  13.4243938
  23.4205788  66.4067036  12.7928040  99.2128886  12.8902394   0.8893559
  99.6843732  12.0579535   0.9244988  98.8241960  12.9822308   1.7592308
  31.1499518  24.9433858   3.7138435  30.4920643  24.2730767   3.5291550
  31.9213169  24.6642453   3.2205841  59.8821306  77.9025221  82.3698902
  60.0514507  77.0498228  81.9693089  60.3273153  78.5282326  81.7984676
  96.8247617  59.2756421  13.9146206  96.7509235  58.3335740  13.7620041
  97.1850289  59.3475682  14.7985146   9.2412674  44.8174810  85.1826954
   8.8776624  45.6937361  85.0553989   8.7401044  44.4539309  85.9126949
  14.0695226  52.6560831  93.8386726  14.2880130  52.0718336  94.5647240
  14.9091828  53.0293751  93.5706139  36.0749483  36.4917445  85.0864887
  35.2046943  36.5841126  85.4742432  36.6555285  36.9594526  85.6868267
  55.2187109  51.3711405  91.9741344  54.9057198  51.3492441  91.0698223
  56.1725998  51.3477612  91.8980694  77.0745379 103.8944675  29.9505684
  77.0795042 104.4247057  30.7474777  76.6835267 104.4629146  29.2870876
  97.1183217   3.4483439  10.8237240  97.3591865   2.8797538  11.5551064
  96.2525869   3.1401927  10.5558083  39.7290897  79.4833803  86.1157799
  39.3119311  80.1341534  86.6803169  40.1620770  79.9989033  85.4353523
  79.6277029 100.7555200  37.1033165  80.4672844 100.9520055  36.6877148
  79.0028126 101.3338758  36.6659996  24.1172838  63.7382126  80.3753662
  24.3642759  62.9445362  79.9007034  23.7608981  64.3184757  79.7026682
  19.1830754  45.1415873  58.8105774  19.1504109  45.8492327  59.4543171
  19.3805242  44.3588352  59.3249130  82.4032861  88.2680442  20.4959843
  82.6252491  87.3373343  20.4687283  82.2789127  88.5115840  19.5786831
 108.7801779  29.5284421   5.1983902 108.1829012  30.2495343   4.9995968
 109.6444810  29.8588521   4.9533531   3.7982216  81.0084248  80.3106499
   3.9581600  80.0791359  80.1461124   3.8674149  81.0987568  81.2610626
  78.6301166  99.0018322  55.2010223  79.0945083  99.4020225  55.9361527
  78.0160982  98.3914854  55.6092999  71.9223309  13.9078004  30.9360477
  71.7427594  13.3244378  30.1987049  72.3828680  14.6511418  30.5467102
  75.9160859  42.9000336   3.4066841  75.4722438  43.4849793   2.7926228
  75.7299195  43.2718999   4.2688248  92.5868476   8.6855609  14.0348122
  92.1705557   9.0326697  14.8237679  92.6800538   9.4447858  13.4593746
  91.8294407  16.9447667  55.7748291  91.1556161  16.5403897  55.2283165
  91.4554692  16.9440514  56.6559479 104.8986829  33.5784871  25.3739235
 104.2681087  33.1109673  25.9216854 104.5388211  33.5174901  24.4890472
   2.1174933  98.1210995  94.7967911   3.0125633  97.7918625  94.8785686
   1.6441616  97.7103424  95.5202961  53.5354335  97.3952295  38.2136414
  52.8700608  96.8439914  37.8017590  53.5379583  97.1225073  39.1311619
   1.2685888  49.7148609  72.5631475   0.8226776  50.3093290  71.9598246
   0.5688579  49.3624592  73.1130743  22.6182604  88.6702347  57.6873589
  21.9807315  88.9193535  57.0182323  22.0867848  88.4174156  58.4422398
  13.6345744  76.1328506  76.8196344  13.3640480  76.5463066  77.6394510
  14.5317876  76.4369631  76.6826773   9.5061320   1.4218575  19.4603989
  10.3438395   0.9627206  19.5209953   8.9062279   0.7771451  19.0853188
   6.5804690  46.3417012  27.1828720   6.0135287  46.8497903  26.6026566
   7.4640864  46.6539342  26.9880173   3.9467061  54.6933985  73.4801435
   3.9778778  53.7813044  73.1914568   3.0412778  54.9627352  73.3255768
   8.0824286  36.1011457  89.7927761   8.8863260  35.6839228  90.1024532
   7.9308057  35.7174087  88.9290714   8.0719203  56.7929602  93.8129234
   8.4488517  55.9401703  93.5963440   8.6275989  57.1287870  94.5162487
  89.9290210 103.4150602  22.1363899  90.0273973 103.3754064  21.1850903
  89.6327287 104.3086340  22.3095009  72.4986870  92.5602056  32.6030609
  73.2513005  91.9802071  32.4872658  72.7309853  93.3533289  32.1201202
  98.0035621  89.3295600  18.3791992  98.7495310  89.9150898  18.2491276
  97.5646955  89.6702816  19.1586468  91.3754130  13.5867554   0.3709766
  90.8220268  12.8406436   0.1400826  92.1041740  13.5451276  -0.2482250
  76.4636106  36.3119847  31.2414810  76.1377169  36.6363866  30.4019615
  76.5910693  35.3735501  31.1024639  80.5367738  94.5301606   0.7533237
  80.9615261  95.1998784   0.2173302  81.0204155  94.5421244   1.5792629
  40.6280613  58.0234289  79.6295214  39.6926928  57.9913282  79.4287920
  41.0582876  57.9621744  78.7766552  12.5085104  57.7007008  61.8760586
  12.0602930  57.6370049  62.7194309  12.4691868  56.8145180  61.5163898
  45.8801651  90.3775597  91.4602375  45.1467133  90.7261658  90.9535313
  46.6409922  90.8677483  91.1486435   8.3946245   7.9462773   5.1349709
   8.0480355   7.8609235   4.2468140   8.3536547   7.0600135   5.4942581
  46.2905598  79.7546673  90.7487679  47.0380640  80.3485489  90.6796455
  46.4815426  79.0554714  90.1235580  24.1508222  80.3018093  78.6593533
  23.4673071  79.6333122  78.7058020  23.8187432  81.0215855  79.1958952
 113.9899410  21.0533768  21.2299606 114.4581855  20.7633788  20.4470989
 113.1317843  21.3287551  20.9075233 107.5673617  13.8889796  25.3325436
 107.0843066  14.4055564  25.9775612 108.2208551  14.4941289  24.9818680
  17.7572506  36.1174161  12.9902908  17.2102183  36.8856484  12.8265926
  18.6011523  36.3356263  12.5947544  97.6293982  40.1474721  18.3716366
  97.7336849  40.0200230  19.3145630  96.6879428  40.2694661  18.2491085
   4.9626845  11.0381514  21.2948772   5.3400152  10.7940013  20.4497501
   4.1603869  11.5100676  21.0716126 101.7255224  26.7243344  29.3494007
 102.3875321  26.0359437  29.2854282 101.6957510  26.9421727  30.2810070
  39.2098355  90.8641052  65.5701494  38.8090038  90.8955860  66.4388084
  40.1200867  90.6182480  65.7351589  10.8322781  31.7161805  15.8264133
  11.1130923  31.2570626  16.6179821   9.9175232  31.9434697  15.9931156
  90.3313995  24.0152509  10.0049088  90.5170763  24.7002656   9.3626377
  89.4542170  24.2212254  10.3279564  14.4630974  54.7628648   7.7974484
  13.6014622  54.7802407   7.3808834  14.4370859  53.9959580   8.3696339
  50.4107046  98.7135124  94.4380188  50.4136419  97.9274464  93.8918304
  49.8012257  98.5099316  95.1474667  67.2263098  92.7134418  69.5341444
  67.8548002  92.4375629  68.8669682  67.5022697  93.5986900  69.7716761
  26.1318278  73.7662125  96.3144302  26.9725466  73.5744762  95.8988953
  25.6861925  74.3461561  95.6969261  33.3760715 103.3364391  81.9642735
  32.7627087 103.5244560  82.6746750  33.4778905 104.1718960  81.5083408
  24.1548300  80.5219555  92.0038891  24.7962141  81.2001610  91.7920303
  24.6821880  79.7552872  92.2282791  40.3300255   3.2856708  72.1554947
  40.6897600   3.7309699  71.3883352  40.7325478   3.7305694  72.9013300
 113.0465973  66.4934594  16.7545864 112.8273691  65.7640988  17.3344109
 112.7827729  67.2741849  17.2415230   9.3864315  19.6624524   4.7892830
  10.1811474  19.4270379   4.3104908   9.7027796  19.9997575   5.6273624
 108.5725511   6.6082293  12.3339245 108.8282050   7.0262391  11.5116474
 109.2800868   5.9905965  12.5187466  17.1913588  55.8390617  75.1134825
  16.6619778  56.5205240  75.5277252  18.0170918  56.2737179  74.9002409
  27.1795177  66.6975307  79.9733067  27.0503330  65.9156990  80.5102253
  26.3803959  66.7638302  79.4505835 115.1170529  50.6012208  22.3833248
 116.0340155  50.4217774  22.5911972 115.1531948  51.1929662  21.6318199
   0.9180563  23.8673264  18.3719322   0.7609480  23.4846455  17.5087425
   1.6164702  24.5057256  18.2273838  58.2957840 108.8484764  81.7245770
  57.7433968 108.5394764  82.4426365  58.0192947 108.3295345  80.9692764
 117.2376550  17.2978312  22.5097534 117.8729905  18.0137545  22.5040314
 117.7306355  16.5376431  22.2010204 103.7294544  25.5656297  43.6559269
 103.6491931  25.5681569  44.6097538 103.6777628  24.6410424  43.4136650
  40.9275961  59.4749308  69.6403408  40.3062487  58.8090086  69.9347925
  40.4043818  60.2726126  69.5616722   7.8103655  22.2641856   1.9689438
   8.6957043  22.1586663   1.6207096   7.6999157  21.5272815   2.5697872
  50.1553965  96.3048267  92.9991722  49.9983168  95.8994675  92.1463871
  50.9375763  95.8653927  93.3328152  94.8321832  -0.0036519   5.2833054
  94.1207934  -0.6281942   5.1415321  94.3915368   0.8089406   5.5318234
  50.2772284  83.0749702  70.5920601  51.2092829  83.0619431  70.3744745
  49.8685694  82.5192070  69.9284649  51.6915989  76.5074444  87.7633762
  52.4803162  76.7661333  87.2866821  51.0866880  77.2390223  87.6404572
  98.4046246  15.7644803  11.8525478  99.0133990  16.4890820  11.7090961
  98.9193071  15.1088340  12.3231384  40.1958847  66.7617702  64.3181753
  41.0836363  66.4948893  64.0796280  40.2730274  67.6933670  64.5240927
  97.7129293  35.4108674  35.9928867  97.9713024  35.3103787  36.9090626
  98.5193718  35.6625230  35.5428288 112.2120870  52.2966153  13.2898209
 112.9715265  52.6170403  13.7764523 112.2652162  52.7405793  12.4434635
  53.3387613  40.3370094  95.9032822  53.1053972  39.5431113  96.3844299
  52.7190018  40.9966803  96.2146664  52.2297668  85.5729961  90.5692005
  52.2434568  86.0388660  89.7331333  53.0974197  85.1742172  90.6354141
  19.4387978  30.6523473   5.0499508  19.6974772  31.2749917   5.7293770
  20.1022976  30.7532365   4.3674347 113.4319819  28.0452592  24.1710827
 113.2974995  27.3464639  23.5309002 114.2644490  28.4445340  23.9184830
  30.7295203  69.0688181  74.2479515  30.1040506  69.1080952  74.9714661
  31.3592124  69.7643185  74.4376850  88.4534741  54.6153695  14.7535679
  88.4605379  54.1873318  13.8974354  89.3006934  55.0575978  14.8072502
  33.9530301  52.6769495  92.0029926  34.2703176  51.7876911  92.1603966
  33.0310202  52.6510763  92.2588444  21.9491118  46.0603673  18.9694950
  21.6579693  45.1785237  18.7374851  21.7878931  46.1259324  19.9107430
   4.8844116  27.5364358   5.9056637   5.3613966  28.0274636   6.5747044
   5.5667465  27.1910626   5.3300163  49.8024225 105.7368088  93.1374073
  49.5794630 105.4591084  94.0258884  50.5503416 106.3234043  93.2504082
  61.9934226  39.8323972   1.1234924  62.1595980  40.6668526   1.5620110
  61.5847076  40.0755936   0.2928040  59.2504478  22.0563752   8.2997677
  58.6393798  21.3204343   8.3346912  60.0707973  21.7030722   8.6439106
  31.9344997  79.7740221  84.6926689  32.6446390  79.5386600  85.2897739
  31.1441636  79.4400883  85.1170444  64.1166830  74.8120546  74.4189787
  64.9130869  74.6802521  73.9045906  63.4509897  74.2937565  73.9668226
  43.0131912 106.1635399  90.2522755  43.2851076 105.2888107  90.5300045
  43.5212088 106.7586231  90.8036709 111.3394750  26.9193322   6.5403721
 111.7816699  27.6276452   6.0724041 111.8803442  26.7704064   7.3159477
  78.7099988  96.2437154  21.8799946  78.1838757  95.4853560  22.1335957
  79.4225675  95.8766939  21.3567516  96.1470021  30.0238473  24.4826672
  97.0975185  30.0507981  24.3730042  95.9293080  29.0920693  24.4573566
   8.1427925   2.1087462  21.6841671   8.7220305   2.6836592  22.1843597
   8.6111801   1.9512994  20.8643791 113.1629241  14.7214848  37.1782753
 112.5519169  14.1797740  37.6777241 113.9853061  14.2319304  37.1943352
  18.9233511  35.1829106  31.1043617  19.6226805  35.8345467  31.0540173
  18.3232706  35.4204804  30.3974697 114.3119110  55.3785664   6.9577667
 114.2683733  56.2733704   6.6206333 114.7566856  55.4617936   7.8012535
  87.6647777  58.9163644  22.5955078  88.2420147  59.3051869  23.2526657
  88.0310977  58.0458218  22.4399445  89.9971706  96.3200332  23.0726120
  90.2654964  95.5323054  23.5456059  90.8182222  96.7127659  22.7761910
  94.3570120  92.5135876  11.2304661  93.4396583  92.5226165  10.9573147
  94.4324190  93.2471229  11.8407700 108.5191358  39.3546635  19.3284676
 107.8146518  39.1751344  18.7058041 109.3136443  39.3651444  18.7947247
  27.2090912  73.8951302  73.5714436  27.6969099  74.7185993  73.5843039
  26.9366002  73.7639618  74.4796133  17.6303261  48.3875043  29.2733357
  16.8785113  47.9665810  29.6902725  17.7252978  47.9332883  28.4361431
 114.6935350 109.5034506  14.5653984 115.2242119 109.3794967  13.7784740
 114.9853403 110.3427412  14.9213192  77.8984308 108.7385082  77.1421909
  78.2166815 107.8357983  77.1342468  77.0681572 108.7039471  76.6671324
  49.8870182  71.7011261  86.6346645  50.0747442  72.3782969  87.2846127
  49.7280407  72.1846819  85.8240318 107.2428668  44.3598229  12.8304836
 106.6295041  45.0466973  12.5693008 108.0864347  44.8064954  12.9019329
   4.9243580 108.4133484  11.5847942   5.2364003 107.7275612  10.9944031
   4.1549717 108.7757351  11.1455318  11.6649246  71.5062428  77.8317308
  11.8404257  72.4257612  78.0315256  12.1344483  71.3451338  77.0133018
  53.5910559  42.7304602  84.3635845  53.2569075  43.3254910  85.0347805
  53.5072803  43.2206774  83.5457230  92.8044153  18.6955506  18.5248062
  93.3005906  18.9442069  17.7449295  92.1733559  18.0479438  18.2108089
  22.7528453  91.4604092  64.0213490  21.9863081  92.0014191  63.8317060
  22.4252033  90.7776260  64.6067476  76.3805467 107.5820543  34.8170731
  75.5093796 107.4839498  35.2013657  76.6098100 106.7029096  34.5157883
   6.9238526  98.4577274  54.1520596   7.7997965  98.7814045  54.3622589
   6.9058275  97.5684834  54.5058203  53.4699297  65.9912300  94.5319843
  52.7658606  66.5887880  94.2800999  53.7538290  66.3041210  95.3909016
  22.2965258  48.6288888  33.9983341  23.0504769  48.1508309  34.3436596
  22.6755112  49.3953759  33.5681030 114.9715866  32.2697026  13.9905331
 114.4808234  32.7539117  13.3265087 114.3034137  31.9515378  14.5976231
 115.8974708  62.0704228  16.0482380 115.1154936  62.5630719  16.2973091
 116.5510977  62.3104817  16.7050240 112.6151861  21.5458876  66.4953205
 112.5670851  20.5965573  66.6079876 111.7094053  21.8434007  66.5806171
  57.1866369  84.2914677  64.4299507  56.4041471  84.8200226  64.2732096
  57.9142427  84.8603058  64.1784811  49.1260576  87.7354717  90.3840065
  49.9901819  87.4757385  90.0645447  48.5137033  87.3563004  89.7535419
 117.2363604  15.3434235   3.3478996 116.4553226  15.8529193   3.5638306
 117.9234994  15.7113225   3.9035294  83.0130238  53.9115769   9.1972992
  82.6300226  53.4447057   8.4546158  82.3321087  54.5262391   9.4707462
  43.8866806  49.6449614  70.0108051  44.5731354  49.3473768  70.6078434
  43.2200336  48.9592838  70.0515270  94.6081127  53.4033830  13.9817593
  94.6657122  54.1004998  13.3283493  95.0765193  52.6671178  13.5883877
 103.5220612  21.4914471  33.3157036 102.7163351  21.5433080  32.8015587
 103.2612480  21.7581136  34.1972420  66.7599058  95.8603191  65.1971817
  67.6351118  95.5678177  65.4515362  66.1656380  95.2999020  65.6961918
  96.2898982  44.5527703  17.9354736  95.8229698  43.8698918  17.4539253
  97.2067083  44.4379002  17.6854775 112.1461279  79.3645407  12.1718761
 111.4959127  80.0404264  11.9804832 112.5293857  79.1529967  11.3206455
  65.7700539  79.9565554  83.1590748  66.4161205  80.1301003  82.4744511
  65.3587675  80.8055782  83.3210373  30.2502125  33.5647446   9.1165993
  30.3497236  34.4309384   9.5116207  31.0272473  33.4613091   8.5672829
  76.3928461  81.4609718  74.4426060  77.0416546  81.0620975  75.0224161
  75.8272552  80.7346153  74.1804075   2.2882431  39.0050465   2.4574825
   2.1297806  39.4801289   1.6417477   1.4457100  39.0210015   2.9114792
  78.8701200  88.2417679  90.4318810  79.3573856  88.2353115  91.2557507
  79.5286512  88.0554008  89.7626686   9.2012232  34.5969064  22.3006508
  10.1374262  34.4626672  22.1532032   8.7795227  33.8740022  21.8360970
  40.2770996  71.9250679  87.3485947  40.8337450  72.5263405  87.8434181
  39.4348502  71.9497728  87.8027344  60.0306320  68.6507082  85.5902004
  59.2746544  68.4492779  86.1417007  60.7590294  68.1873989  86.0037422
 115.3125847  57.0800359  12.9047367 115.4077614  57.6611192  12.1500656
 115.0076641  57.6511247  13.6097977  46.3679409  71.3707256  75.0143814
  45.9084558  70.7412481  75.5701399  45.7285547  71.6089535  74.3430710
  18.3348196   4.7171695  32.0629761  18.1951922   5.2789790  31.3006661
  19.2768257   4.5473344  32.0660183  11.7371195  43.1817395   9.8770115
  12.3841780  42.4842221   9.7720692  11.9662493  43.8240392   9.2053196
  11.0935515  36.1566693  27.4906227  10.3939932  36.5100629  26.9411156
  10.9268492  36.5262276  28.3577320  13.3973956  94.4331646  94.1968250
  13.9207315  93.7792683  94.6602535  13.4225130  95.2048492  94.7626114
 105.0229723 108.6360790  40.2151463 105.2226240 107.8148510  39.7657558
 104.2176801 108.9461519  39.8009083  27.3656154  61.3181877  65.4858017
  26.5079999  61.1407852  65.0994730  27.9162335  61.5660572  64.7430992
  59.0828085  79.3388748  85.1812077  59.3202925  78.4118652  85.2033138
  58.4358740  79.4037008  84.4787121  38.0235934  87.1745777  80.6443501
  37.5875092  87.0342350  81.4848042  37.3454213  87.5492191  80.0822449
  13.2027590  67.3223448  81.5062428  13.3819127  67.4935484  82.4308109
  12.7132308  68.0900764  81.2109756  94.1885758  48.2370526  23.0555698
  93.2760299  48.1258351  22.7888844  94.3339265  47.5489003  23.7048409
 114.7478307  41.3814599  18.1484673 114.2824377  41.1718995  17.3387024
 114.0710247  41.7250878  18.7316391 117.0288909  40.7191903  13.9509937
 117.0045007  39.7792584  13.7716648 117.7236904  40.8209664  14.6014759
   4.5967770  85.4116917  84.3043900   4.3641615  86.0616112  83.6412716
   4.7736639  84.6138096  83.8060665  34.0010595  81.8732262  86.8505573
  33.8215876  81.8303299  87.7898026  34.4696856  82.6996517  86.7337608
  92.6658798  29.2204530  15.7834026  91.8894566  29.7366292  16.0001251
  92.4299777  28.3229405  16.0180351  18.8241261  36.7431599   7.6205036
  18.4418314  37.4426896   7.0906517  19.0299862  36.0515553   6.9915840
  65.1455450  73.4816933  90.1998043  64.6926260  72.6731157  89.9604321
  65.7393742  73.2238626  90.9048748  14.9048870  30.1103551   9.9820969
  15.8160752  29.9718243   9.7236797  14.9104231  30.0234944  10.9353325
  52.1225595  84.1200352  86.3934040  52.9297113  83.8041306  86.7995453
  52.0005369  84.9981117  86.7544079  27.4574137  49.9805212  91.5690708
  28.1348848  49.3804598  91.2573147  27.5776267  50.0051022  92.5183773
  69.5336677  14.0695531  59.7460529  70.4244442  13.8036019  59.9741337
  68.9830209  13.3480794  60.0501892  62.3845911  77.5417805  79.7529602
  61.6988420  76.9037533  79.9502134  61.9529009  78.3917475  79.8392010
  13.2394617  42.2541196  51.0870525  12.3840540  42.3965508  50.6818172
  13.3167856  42.9539067  51.7355511  10.6021088  13.2774216  26.7060253
  10.6557053  13.0908877  27.6433441  10.7469624  14.2213637  26.6410038
  29.7389317  67.0486927  92.8292751  28.8923693  67.1850348  93.2546902
  30.3311920  66.8147421  93.5439205 109.2990810  92.1144153  21.8569252
 108.6736471  92.2292425  22.5723812 108.8663799  91.5083815  21.2554905
  10.8813256  25.5159718  11.3289234  11.2959927  25.8722359  10.5432007
  10.1118487  26.0687405  11.4652512  26.8503159   6.9832475  16.4067909
  27.7768582   6.7429597  16.4040920  26.4389675   6.3578994  15.8101627
  82.0474375  26.6335065   8.7634918  81.3376770  26.3359219   9.3326256
  82.8465174  26.3631112   9.2158100 112.4921406  63.8234193   5.7436249
 112.1748222  62.9898793   5.3961250 113.0321516  64.1857106   5.0412247
 108.3297981  40.2222211   2.9920170 107.9886259  40.8052308   3.6701939
 107.5492967  39.8567063   2.5755379   5.1111895  95.7997322  91.6208935
   5.2931237  95.2635384  90.8491230   4.3406206  96.3136196  91.3792706
  15.7453459  13.4316451   7.7084515  16.5487498  13.4828717   8.2262775
  15.3276222  14.2843444   7.8294441  36.2955826  20.5400569  44.5330689
  35.7398289  19.7609383  44.5144531  37.0504301  20.2832181  45.0626537
  10.7766264  45.2510888  42.9617474  10.8243197  44.3100793  42.7930615
  11.5884321  45.6015736  42.5952026  17.0704525  34.0276772  32.7655289
  16.4750641  33.7084634  32.0874092  17.7667683  34.4729001  32.2826645
  31.0334277  81.5735149  60.6924200  30.6639314  81.5944290  59.8096609
  30.4299784  82.0995426  61.2171793  57.2621781  17.1201282  77.3841143
  57.8860218  16.6866355  76.8017626  56.7249805  17.6576953  76.8021584
  80.8944003  28.4516770   3.2847759  81.1101606  27.9003674   2.5326130
  80.1155988  28.0447728   3.6644241  16.7992353  71.6085243  91.0849762
  17.3635304  71.1042404  91.6710663  15.9917438  71.0973310  91.0314274
  51.4174938  94.7103691  87.2993374  51.2015200  93.8104534  87.5437355
  50.5692959  95.1461315  87.2162724  31.0482979  76.1789370  65.8015823
  30.6862044  76.8193865  65.1892567  31.3740921  76.7040539  66.5325689
  40.8618402  61.2182570  83.4841251  41.5454769  61.0155153  84.1226959
  41.2300920  61.9263268  82.9556751  25.3620100  68.4678698  74.1411066
  24.5895076  68.1999159  74.6387768  25.7668471  69.1504145  74.6763325
  56.7084551  65.6006241  96.1161041  56.1480474  66.1958981  96.6139317
  57.2542810  66.1768198  95.5810356   3.9193791  37.6565987  27.0789215
   3.2771795  37.8562886  26.3977978   3.7120360  36.7619283  27.3487255
  97.8255237  19.4075877  18.2756588  97.7229334  18.4602172  18.1851646
  97.3634458  19.6222216  19.0859959 110.5283321  22.6457316   1.8032047
 109.8670686  22.8531272   1.1429379 110.2741135  21.7844254   2.1344921
  12.0096469  50.9890890  86.5395164  11.6465211  50.5719852  85.7582378
  11.7397165  50.4214811  87.2614479  38.2156420  72.8059006  80.9209919
  39.0350080  72.6761150  80.4434681  37.8711915  71.9222260  81.0502434
 109.9173320  58.2225854   7.1716091 109.9107970  58.4985310   6.2550613
 109.3212951  58.8305623   7.6090309 109.1664327  12.9162843  32.3100063
 109.5970715  12.8933150  31.4554569 108.5882677  13.6778981  32.2664616
  53.1965780  90.2197552  87.9895782  52.6845741  91.0224724  87.8909683
  54.0336752  90.5123520  88.3499622  79.9374104  69.3521070  83.8380909
  79.7355509  69.5320702  82.9198837  80.2983284  68.4655666  83.8346672
 112.3435718 108.7245752  11.7826054 111.5253908 108.6483051  11.2916824
 112.1400863 109.3312456  12.4944851  45.1776171  77.1141768  75.0058603
  45.9468889  76.7640686  75.4551744  45.4211283  78.0113459  74.7777796
  42.9259634 102.0422459  69.3996048  42.5995636 102.9395103  69.3316793
  43.8004494 102.0754910  69.0117884  36.7197490  97.3937607  83.9634800
  36.6011381  97.8491211  84.7970295  36.3508868  97.9889202  83.3108234
  13.5872620  39.4776303  19.4431374  12.8408545  38.9297730  19.2003319
  13.4241265  39.7136361  20.3563377  36.1451357  50.6157739   7.9721233
  35.9645193  51.4778954   7.5975010  35.7748812  49.9982220   7.3414299
 107.7351368  88.7343747   6.5156147 108.2820667  87.9540402   6.6060516
 107.9607881  89.0865475   5.6546375  93.1967193  99.7775652   8.1323406
  92.7376253  99.2763759   7.4583504  94.1039497  99.4772340   8.0778572
 109.3075121  14.0337664  12.1896431 110.2029336  13.7026269  12.2589275
 108.8893617  13.4609038  11.5468285  78.3545562  25.8796174   7.1032211
  77.5364462  26.3666303   7.0044777  78.3937278  25.6635720   8.0348942
  97.7994669  27.6886327   0.8234093  97.7067769  26.8092973   1.1900208
  98.5110081  28.0842358   1.3268253  58.2907295  92.1100807  90.2388573
  58.8085556  92.8793716  90.0016308  58.9284134  91.4940834  90.5996037
  87.3024780   3.5278945  90.4747200  87.2040922   4.4347625  90.1846600
  86.6422874   3.0445724  89.9779510  44.9237108 105.4491901  96.2543392
  45.6053352 104.9521828  96.7066765  45.3677654 105.8298492  95.4966164
   2.7354782  12.5257594   8.2784054   3.4625881  12.3659331   7.6767418
   3.1259745  13.0178077   9.0006516  10.7598942  42.4102933   7.1825001
  11.4974612  42.9463441   7.4738380  11.1349886  41.5401322   7.0470211
  78.4994370  98.3666708  37.5997803  77.5760013  98.5372402  37.4142906
  78.9142687  99.2285301  37.5630924 116.4146770  55.4857022  24.3191502
 116.0643471  54.7326238  24.7949478 116.5866888  55.1534612  23.4380981
 113.1963027  10.7769687   2.5673077 114.1003478  10.8142335   2.8796265
 113.2524908  10.3270585   1.7242977   9.1252201   0.3476531  48.9331600
   8.3670157  -0.2017921  49.1318199   9.3647593   0.7382304  49.7735855
 118.5787166  53.6375195   8.1009361 117.6911558  53.6033685   8.4577248
 118.4538902  53.7054593   7.1543381 103.6938704  14.6617276  39.2707989
 103.8872589  14.1094214  40.0282929 103.9726294  15.5381877  39.5360252
 100.9660924  11.0463244  21.9472096 100.9914578  11.2859542  21.0208389
 101.5190900  11.6978747  22.3783752  98.3863956 103.9415647   4.7586796
  97.9085714 104.3841650   5.4601166  99.0740425 103.4515144   5.2094719
  27.3944586  65.1792580   0.9530422  27.8124302  64.3182618   0.9380409
  26.6517990  65.0954205   0.3549931  60.6575012  69.1243076  89.0912533
  60.7020140  70.0366974  88.8052368  59.7417641  68.9951038  89.3381500
  38.5155286 105.2800419  31.4685318  39.1861242 105.7332946  30.9575531
  38.2152307 104.5737125  30.8965561  11.7204254  29.4756085  10.7683537
  12.4278753  28.9874226  11.1895725  12.0558375  29.6776730   9.8949120
   3.3784264  33.6767728   4.2768261   3.3315581  32.7692086   4.5774242
   4.2523449  33.7577206   3.8948032  39.0856552  88.2866573  60.2717781
  40.0125551  88.2229042  60.0414991  38.7513447  87.3957157  60.1683712
  -0.1004726  58.1119878   6.7496368  -0.3588158  57.3713548   7.2982380
   0.7351416  58.4014184   7.1159813  56.4046478 100.9057331  92.4315929
  56.7508507 101.7979717  92.4487019  57.1708441 100.3488350  92.5695896
  68.2216883  72.7932978  86.0986328  69.0098810  73.1053448  86.5431690
  68.5367966  72.4589443  85.2589035  85.5016596  48.0276925  37.5742409
  86.1539317  48.6199338  37.2000477  85.5685414  48.1640488  38.5193131
 103.0052937  15.9313018   8.7132999 102.9741896  15.6100280   7.8121635
 102.8550209  16.8735463   8.6369679 103.5721935  40.3961427  28.0979511
 104.4860853  40.3402669  27.8188297 103.1586684  40.9676415  27.4509499
 103.9902652  15.2635485  16.2944767 103.5872806  15.3318269  17.1600220
 103.2716239  15.0106580  15.7149670   9.9819535   2.7423436  26.0371182
   9.3094938   3.1951148  25.5281708  10.0116270   3.2150657  26.8689129
 111.5783204  25.4977471  17.9858658 111.0869635  25.6665093  17.1819279
 111.7532671  24.5568711  17.9666016 118.2285339  59.8773384  47.1715689
 118.3615240  60.5664921  47.8224230 117.2778897  59.7798109  47.1168375
  75.4949093  80.2540588  71.7581129  76.2812853  80.7969379  71.7021275
  75.6380272  79.7038507  72.5281858  27.9211831  36.4114070  96.6551495
  27.0128655  36.4847922  96.3622284  28.3874655  36.0499549  95.9013844
  32.7668810  48.6713314  70.8005667  32.9274726  49.4873571  70.3267050
  31.9137645  48.3744049  70.4839325  35.5145645  74.9970770  86.8228531
  35.0406313  75.7513952  87.1730137  36.1448503  74.7715425  87.5070286
  41.8005466  65.2863407  87.1131229  41.1845636  64.5538616  87.0966053
  41.5681458  65.7769966  87.9014587  40.6580591 104.6674919  90.0357723
  40.0819397 105.1639938  89.4545650  41.3876915 105.2608967  90.2139091
 100.5441822  14.4740588  40.6356213 100.3714384  14.6498973  39.7107002
 101.4858211  14.3069369  40.6758472  64.9431849  80.4818344  66.5424109
  65.4052496  80.9783459  67.2178364  64.4866896  79.7912312  67.0229483
 110.2768935  19.2395980  10.0186417 109.3931378  19.3948037   9.6853039
 110.7388509  20.0638253   9.8654339 113.7921179  45.4914529  25.1825497
 114.5534218  45.2861840  24.6398613 113.0430354  45.1915891  24.6675846
  88.8994581   3.9115481  73.1015396  88.2101995   4.5694594  73.1926727
  89.7085077   4.3832736  73.2993841  79.5580673  73.3924532  80.6899834
  80.1372814  73.0204296  80.0248909  78.8489532  72.7549791  80.7737064
  23.3617926  89.8587513  78.2838821  22.5812411  90.3507900  78.0291843
  24.0932512  90.4201031  78.0268049 115.1824177   9.5972258  21.1294338
 114.9749053   9.3821866  20.2200863 114.7353471   8.9242417  21.6427109
  51.7584562 108.7700748  90.1493549  51.9506884 107.8405857  90.0254822
  52.6087332 109.1675472  90.3371716  70.5936956 104.0667534  86.2249088
  70.1809263 104.8283958  85.8177853  70.8003950 103.4862423  85.4924393
  82.3921871  79.2844820  62.0893478  82.9462624  78.5559702  62.3695230
  82.5214100  79.3331909  61.1421633 110.9654606  12.4928004   8.9455673
 110.9263314  12.6346165   9.8913929 111.0778011  11.5470702   8.8496182
 113.1303609  19.4477374   4.8000023 112.8587593  18.7134749   4.2492554
 113.0923451  19.1044289   5.6927082 116.8420399  40.2447182  20.2177784
 116.4492382  40.5394418  19.3961498 117.7816261  40.3816945  20.0967571
  49.2519236  80.7137680  96.2224770  49.4328356  79.9567413  96.7796230
  50.0014067  80.7587719  95.6287766  95.0438274  71.1891419  12.4759171
  94.9692703  72.1356923  12.5971958  94.6829010  70.8154923  13.2798740
   0.3276985  32.8474480  21.0319778   1.1105984  32.3707635  21.3077995
  -0.0241906  33.2186276  21.8410656  52.9888010  66.2754917  84.5100594
  53.2344007  66.4347982  85.4213905  53.6225653  65.6282187  84.2008495
  15.2824610  36.2481267  31.8613312  15.7890290  36.3188989  31.0522530
  15.7750004  35.6278378  32.3988125  59.0439350 108.8334085   6.9984219
  58.1434602 108.7483026   7.3116848  59.0013236 108.5820438   6.0757992
  14.2701596  30.6440026  39.6420929  14.7714346  31.3817174  39.9895260
  14.9058884  29.9312360  39.5784161 113.0779589  60.7792050  39.9932262
 112.9016221  61.7169339  39.9170467 112.6837076  60.3968961  39.2092392
  15.3417080   2.4252612   0.6256363  14.7516030   2.8014190   1.2787125
  15.6119364   3.1706912   0.0894138  23.8039273  98.8056523   2.6356384
  24.5310467  98.9108331   2.0220730  23.3123701  99.6241242   2.5670692
  13.2659066  86.7872524  93.4941578  13.9773726  86.3922215  92.9901791
  12.8297019  87.3722744  92.8747272  62.1228123  86.2754154  74.1339588
  61.8883705  85.4861355  74.6221161  61.5242577  86.2817001  73.3870125
  85.8210952  49.9502236  32.7979919  85.1268304  50.1822049  33.4147617
  85.3577257  49.7021348  31.9980118  29.7523897  40.3563363  20.1999542
  29.3954819  39.5371110  19.8568604  30.5003756  40.5473286  19.6340344
  40.1695317  57.6845319   5.1932404  39.4448536  57.8431660   4.5883438
  40.5188578  56.8329865   4.9304268  82.4544144  98.7516212  87.3545647
  82.1371555  98.0867767  86.7433643  82.1027756  98.4837437  88.2035828
   7.3142784  53.5981995   0.9354183   8.1438559  53.4605939   1.3926765
   6.8994110  54.3220956   1.4045593 115.1483096  38.9647061   2.2826454
 114.5003737  38.9338738   2.9865334 114.7770704  38.4166962   1.5912029
  56.5831709  97.3143578  94.7782993  57.1510172  97.2246838  94.0129662
  56.4901066  98.2594585  94.8980713 105.5795223  10.2321105  87.3361778
 105.0617964  10.2054839  86.5315151 106.4723140  10.0344138  87.0532036
  15.5133599  42.8084237   9.8079369  15.1704758  41.9461495   9.5731041
  16.3582342  42.6262910  10.2193329  60.6498814  71.9386482  88.4292889
  61.5059948  71.8820190  88.0049133  60.0822973  72.3395777  87.7710056
  12.8305977  37.6302678  32.0331738  13.6222523  37.1117169  31.8895886
  12.8501862  37.8439957  32.9660008  24.9643486  31.0595948  -0.2841785
  24.4509714  30.2624757  -0.1527336  25.4335612  31.1811215   0.5412266
  12.7387398  11.8165213   9.7240326  13.6766403  11.6260869   9.7415707
  12.5635546  12.0742947   8.8189957  14.3588989  29.7286088   3.4877750
  14.4889420  28.8248784   3.2003948  15.2369993  30.1096112   3.4847424
  33.4274214  49.1205937  20.8726475  33.0140560  48.2597596  20.9383556
  34.2931574  48.9431340  20.5049107  35.2801037  81.3872051  82.7852440
  35.3480029  82.1366501  83.3768177  34.3689966  81.1037922  82.8613281
  34.5872688  90.4807186  80.0730419  34.9992466  89.9193668  80.7298374
  34.7764587  91.3718224  80.3669262  76.9987345  84.2542648  87.4844551
  76.9821358  85.1452637  87.8338528  77.7266979  84.2542458  86.8629265
  30.9810894  61.0578019   4.7015163  31.5137404  61.3909203   5.4237053
  30.1183336  60.9096486   5.0887272  61.7315340  90.1431370  91.1026287
  62.0138311  89.7638226  90.2703667  62.4791241  90.0203133  91.6876507
  18.0107659  34.1652161  35.7220432  17.6320904  34.4115407  34.8781464
  18.5396069  34.9212128  35.9770748  45.2759552 103.9337540  83.1225014
  45.3658819 104.6083546  83.7955856  46.0900879 103.4330845  83.1749058
   8.6721962 100.5557782  51.0519096   9.4232100 100.6067807  50.4606316
   8.3517187 101.4558465  51.1102364  49.6988886  25.4961926   5.4579231
  49.0430945  26.1290032   5.1651356  49.6753615  25.5515248   6.4132282
  29.5153826  43.0352933  27.6007912  29.7156256  43.1456239  26.6712925
  29.7783535  43.8634164  28.0023930  46.8059397 107.7669621  51.7545748
  47.0878172 107.8001404  52.6687288  47.0649767 106.8953419  51.4555502
  72.1723563  15.7947879  84.5160961  72.8333694  15.4618125  85.1230717
  71.5239698  16.2196975  85.0776005  37.5156801  37.5821740  11.6846153
  38.1122940  37.8250081  12.3926518  37.2648972  38.4156377  11.2862751
   0.6578701  62.7111298  11.3903687   0.0858253  63.0827195  12.0618698
   1.5437287  62.8621251  11.7200443  22.5063723  58.7717492  38.4847042
  22.5197142  59.5654828  37.9498646  21.8412846  58.2182748  38.0753777
  23.5696905  38.9396531  12.4253532  23.4391993  38.6021001  11.5392086
  22.7219456  38.8216073  12.8538677   7.3433030  82.2494698  78.7455654
   7.7294964  82.5868893  79.5537949   7.9864049  81.6212940  78.4168673
  61.8974400  72.7811337  93.1304359  62.3525190  73.5076332  92.7046108
  61.4293909  72.3423672  92.4200535  14.2903250  68.3613450   4.4899818
  14.9755209  67.7913052   4.8389790  14.0053433  67.9283196   3.6853001
   2.5037020  74.5555550  13.6639854   2.5193566  74.8557813  12.7552292
   2.9868859  73.7293488  13.6516354 114.2894734  32.0907933   2.7216789
 114.2705477  32.9301030   2.2618649 114.8502482  31.5342290   2.1812985
   8.3766287  47.5620992  13.6403915   7.9543465  47.3017461  14.4589970
   8.3904808  46.7631585  13.1133816  53.8995439   2.0367580  56.7119598
  53.0190498   1.6624980  56.7418003  53.8364703   2.7467780  56.0731173
  64.9835825  90.7973766  68.3991385  65.2537632  89.9470615  68.7458324
  65.2483368  91.4252186  69.0714121 101.5974123   8.0105643  96.6303158
 101.5642912   8.8444858  96.1615944 100.7979089   7.5553661  96.3660622
   8.2084339  51.9073159  28.5639736   8.4017771  51.1841161  27.9674503
   7.8241127  52.5826508  28.0049965  12.7199667  44.0524918  15.0137112
  13.4748095  43.9321191  14.4375584  13.0177038  44.6823556  15.6701061
  82.7887279   6.0755687  81.1917591  83.4851391   6.1600356  80.5405235
  82.9144651   6.8238406  81.7753029  89.1605551  19.9321418  87.2336197
  90.0025446  19.7100024  86.8362045  88.5139019  19.7138744  86.5624809
  19.6470087  23.6998851  11.7049000  19.8335760  24.6373231  11.6535351
  18.7213295  23.6268193  11.4724896  91.8107677  56.8824918  19.0351841
  91.0922945  56.8033368  18.4076759  92.2583927  56.0373837  18.9946243
  41.9813919  89.3715954  94.2058468  41.6625690  88.6847591  94.7913742
  41.3809586  90.1037216  94.3461704  50.5089617  78.8703203  86.5487766
  50.6978130  78.4322166  85.7189465  49.5755053  78.7160873  86.6940498
  16.2482422  52.2987611   6.3664124  16.1349838  52.5475365   7.2837517
  16.9424504  51.6399056   6.3808796  23.7337464  34.2256505  28.4767410
  24.3290203  33.9591653  27.7761242  24.3054884  34.5978410  29.1481754
 111.4342941  12.2807032  11.5878937 111.4094938  11.4025075  11.9678757
 112.2226680  12.6790673  11.9566795  85.6132251   6.1765437  95.9140968
  85.6594974   5.4614406  96.5486908  84.6895820   6.2173896  95.6662083
  33.9561575  58.0558450   6.0488770  33.3642500  58.1707246   5.3054497
  34.8167771  58.3025033   5.7101605  67.1704578 100.8781052  66.3414049
  67.3950529 101.4198685  65.5849123  67.9747391 100.3985023  66.5397787
  43.6304110  20.0080735  12.5569508  44.3127840  20.4974658  12.0974991
  43.0190294  20.6784446  12.8619835  29.8187035  46.5802533   9.1927883
  30.2140873  47.4494035   9.1257927  30.5567711  45.9751183   9.1200039
  15.6540030  47.9036862   3.9423439  15.1396960  48.6721665   3.6950371
  16.2091606  47.7321011   3.1816933  49.3987942  69.9040222  84.0175152
  48.8435316  70.5321264  83.5555649  49.8361969  70.4224348  84.6929073
  83.5017586  89.9941540  81.9659615  83.0107975  89.3328285  81.4782715
  84.4133759  89.7085953  81.9055557  26.1342877   8.9937169  17.8620312
  26.3358467   8.2477671  17.2970840  26.4425867   8.7281853  18.7284443
  67.3028428 110.9761430   5.8399555  67.1847159 110.0283195   5.7774231
  66.9926483 111.3121654   4.9990723  96.0569412   4.3685393  90.4338932
  96.5378315   3.5490184  90.3183460  95.4727775   4.4122462  89.6768761
  85.9436030  38.8500268  21.6773674  85.5788470  39.6816308  21.3746807
  85.8005352  38.8560635  22.6237938  16.1545962  50.0574738  12.6250431
  16.0631340  50.8635289  12.1169636  17.0971316  49.9693734  12.7668354
  73.6779213  91.6242504  72.1502733  72.7358150  91.7908859  72.1802998
  73.8195801  90.9328270  72.7968740  20.1985281  12.6129681  29.8582432
  19.2811077  12.4101645  30.0411198  20.6839913  12.1812589  30.5612251
  54.6745539  98.5501862  82.1835804  54.7921753  98.5287476  81.2338734
  54.1266775  99.3193817  82.3397636  19.0612626  75.5661297  93.4543037
  19.1784501  76.5029955  93.2968998  19.0329146  75.4851437  94.4076538
  41.4988232  83.6879063  72.4625540  41.0448456  83.8954926  73.2792807
  42.3988771  83.5012722  72.7295780  42.0581293  74.2396593  91.1460876
  42.7701139  74.3151045  91.7813969  41.8266773  73.3109045  91.1549091
   8.4260117   6.8723159  45.7580519   7.9333245   7.6898723  45.8293962
   8.0419957   6.4263492  45.0031471  55.8959770 104.0069962  83.2636547
  56.3589096 104.5321655  82.6108646  56.4675951 103.2542038  83.4146023
  57.6606512  86.6933441  95.1543713  57.5207996  87.0101547  96.0467243
  56.7788458  86.5667343  94.8042011  19.6132576  92.6497555  51.0673618
  18.7246692  92.6654053  50.7118416  19.6465850  93.3991718  51.6619110
  59.6962738  96.9766331  86.9990158  60.6033182  96.7403793  86.8048859
  59.6669340  97.0505905  87.9528999  57.2494888  78.7742758  76.1505270
  56.7715693  77.9893017  75.8828640  57.2498417  78.7399435  77.1071100
 114.0790111   2.5565772  88.9879990 114.0525228   2.8969627  89.8822403
 113.9764959   3.3304267  88.4340286  23.4173601  43.0267674  37.6499245
  23.9346379  42.2982079  37.3066303  23.1431406  42.7367837  38.5199520
  38.8510102  47.5114972  29.5772717  38.3300036  48.0521447  28.9835712
  39.7255676  47.8995759  29.5493481   1.6392058  28.4346825  28.6352512
   2.5821369  28.5901982  28.5811398   1.4031952  28.0915696  27.7733871
  95.7952321  52.5029141   7.0565674  96.5335036  53.1118066   7.0357487
  95.0221778  53.0653436   7.1044323  47.3852366  37.8990228   1.2776730
  47.6315611  38.2352788   2.1393463  46.4796561  37.6077706   1.3841412
  56.0399008 100.8095932  87.5777721  55.6756639  99.9292469  87.6702595
  56.8806839 100.6761646  87.1401501  55.7349825  95.9384727  82.7971554
  55.2760077  95.1560116  82.4916553  55.2358484  96.6678047  82.4294949
  53.6946678  70.8194065  84.2315960  53.0682039  70.6441498  84.9337769
  54.0705442  69.9632549  84.0267563  52.7728701  84.3310356  73.0988836
  53.5053349  84.8376179  72.7480412  51.9975328  84.8479176  72.8799915
  66.2209225  85.7469940  92.8005695  66.0673809  85.5353165  93.7213612
  65.8014250  86.5985107  92.6773834  18.8800871  34.4342995  57.8643799
  18.4541047  35.1055479  58.3974838  18.1951320  34.1315460  57.2682142
  31.0527056  34.1790635  -0.0483826  30.8913868  33.8699300   0.8430454
  30.6583088  35.0508363  -0.0746277 101.4097274  50.3663213  35.2514622
 101.9971384  49.6202714  35.1306507 101.4344657  50.5407483  36.1923096
   0.1548975   6.4692838  17.2078011  -0.1703197   7.2428757  16.7473480
   1.0526484   6.3630635  16.8931648  36.9480443  98.8115978  86.5963936
  36.0327601  98.5317326  86.6092110  37.0835471  99.2266273  87.4482250
  75.5184460 109.2128277  75.4262114  74.6702290 109.4417477  75.0462675
  75.3308582 108.4712124  76.0015774  98.6013109 106.3284160   1.4402649
  99.3505508 106.2231161   2.0265934  97.8672344 106.5243580   2.0224735
   9.5397728  63.3577401   1.2178013   8.8522976  63.7358338   0.6694767
  10.2581089  63.1778962   0.6112644  86.3316852  11.2953334  81.5619659
  86.7472488  11.8281226  82.2399521  86.2368185  10.4306750  81.9614410
  47.6119709  90.3729343  81.7727280  48.4801912  90.7718754  81.8298912
  47.0359993  91.0898113  81.5070629 115.3890432  35.9495503  21.0948059
 115.4436267  35.0177724  21.3070652 115.9045852  36.0433156  20.2937672
  52.9843729  33.4158475   3.4177563  53.3623141  34.2537457   3.6848042
  52.1574324  33.3625275   3.8968727  51.1616373  93.6754990  77.1376276
  50.7463932  94.0435886  76.3576841  50.5888033  93.9352798  77.8591585
  63.7170982  69.8372221  93.4299088  63.7646866  70.5704737  94.0433502
  64.6208429  69.5318317  93.3511066  16.6159123  25.4460007  14.7762177
  16.9901770  24.5829446  14.5992825  15.7113951  25.3822476  14.4695923
  57.1397394  27.1254306  86.7848396  57.6819236  27.9137950  86.8123817
  57.5936133  26.5437942  86.1749840 115.2285279  50.3272397  36.9618771
 114.5126022  50.4041917  36.3311932 115.0603617  49.5013005  37.4155018
  14.7358101  56.9115216  11.0748837  14.1045922  56.8408067  10.3587791
  15.4782217  56.3768822  10.7934162  20.0082272  69.5050771  10.5105564
  20.9276741  69.2665250  10.3924629  19.6019715  69.3193681   9.6639702
  49.4092846  75.8911896  94.9148750  49.5822954  75.1142883  94.3831635
  48.5428810  76.1855936  94.6339798  93.7724287   0.6733661  94.5836926
  93.4729273   1.3852935  95.1490974  94.0173227   1.1045890  93.7649632
 100.3928852  86.6074562  78.5322475 100.4982758  86.9531536  79.4186020
 100.9463310  87.1685123  77.9889679  28.6141610 111.0995007  87.9394436
  28.4904432 110.2994919  87.4286461  29.1125512 110.8189297  88.7069893
  57.2028732  94.8368168  87.4551201  57.8366661  94.4520378  88.0604935
  57.7255106  95.1037884  86.6989326  34.3437212  28.7990338   3.5457298
  34.0549534  28.1563050   4.1935989  35.1929587  28.4734399   3.2473633
  94.8351801  72.0052010  58.0998585  94.2441023  71.5145547  57.5287792
  94.3468655  72.7965695  58.3268234 107.8243715   0.2971606  66.3313627
 108.0583269   1.0815196  65.8351088 107.0845634   0.5691390  66.8744469
  88.0926771  44.7161729  12.8412506  88.1419940  45.6549603  13.0214664
  88.7984438  44.5551163  12.2150013  55.1310301  75.0457716  80.7095814
  56.0600328  75.1041985  80.4864883  54.6912003  75.5751514  80.0443459
  69.6002960 109.3323898  94.7282028  69.4418621 108.7631989  93.9751053
  70.3864479 108.9727020  95.1390839   3.2218396 101.2677385  14.1349575
   3.5463177 102.1532680  14.2986271   3.9272725 100.6948044  14.4355270
  29.9147289  65.9887845  30.3763077  30.7879132  66.3707120  30.4652569
  29.7434967  65.5821664  31.2257645  63.9176828  21.9690280  95.2708530
  63.1034881  21.4661651  95.2920914  64.6046168  21.3088279  95.1787567
  43.4135723  90.7922173  87.8987312  44.2414331  91.2659740  87.9788780
  43.2814693  90.6987286  86.9553185  26.6591620  79.0549755  84.3080330
  27.1460581  79.1020775  83.4852695  27.2075248  79.5226526  84.9379635
  82.8778345  15.1290565  71.7798281  82.5763542  15.0209861  72.6818609
  82.5574857  15.9934669  71.5221548  74.1629392   5.2084594  87.3846054
  75.0385672   4.8270183  87.4478722  74.2289502   6.0391479  87.8555965
 117.4897779  63.7346417  13.5772965 118.1141580  63.8664681  14.2907402
 116.9773401  62.9718930  13.8453552  79.5462418  97.0449162  65.3754663
  80.4187202  97.3918915  65.5615425  79.6217012  96.1052799  65.5416727
  39.1345859 108.7693310  88.1774616  39.1729355 109.0305519  89.0975285
  39.9609089 109.0783787  87.8061008   8.2157009  10.3750951  34.5436928
   7.4760550   9.9501521  34.1094372   7.8125399  10.9869725  35.1595661
 111.9746811   0.2446513  60.9452152 112.5196630   1.0105090  60.7643890
 112.2768480  -0.4167027  60.3226948  26.9596356  57.1892125  22.6930496
  27.1474379  56.9517571  23.6011097  26.0861319  57.5794751  22.7232811
  44.4178581  84.0258312  85.5261707  45.1756430  84.6078205  85.5834770
  44.1282892  84.0984917  84.6167183  56.8919420 108.0242825  83.9866829
  56.8595600 107.4512196  84.7527027  56.1656189 107.7304077  83.4368420
  16.0190886  12.7903039  16.8773815  16.9087713  12.7205092  16.5312264
  15.9687536  12.1088654  17.5477097 110.3450662  18.8935619  84.0004921
 110.7302458  19.5138698  84.6194363 109.7996790  19.4334655  83.4284019
  30.5900591  19.8879439  24.0410683  30.4436033  19.0462596  24.4727585
  31.0843008  19.6691567  23.2510826  68.2779360  93.5600185  76.1628389
  67.5952291  93.6213684  76.8309546  68.3213520  94.4377613  75.7834625
  58.9387655  69.0041924  78.3508635  58.4027481  69.6212292  78.8490486
  59.8405886  69.2435122  78.5645580  69.3422079 103.7714672  93.6072254
  69.4069958 104.0406895  94.5234966  70.1166153 104.1500187  93.1910324
  42.7964163  92.1745491  79.0042877  43.0828762  91.4853001  78.4050274
  41.8469238  92.2126102  78.8892031  84.4458384   6.9816596  14.0962479
  83.7771476   7.1105439  13.4235832  83.9552469   6.9422681  14.9172184
  56.1426687  75.5754280  88.8210869  56.9586945  75.8741903  88.4197426
  55.5494261  75.4366589  88.0828190  12.0151633  61.4735753  12.5777409
  11.5493124  60.7586438  13.0114243  12.2768515  61.1104733  11.7316219
  69.2142803   2.2384696  61.0973740  69.5103986   2.7848773  60.3693771
  70.0098926   2.0516639  61.5957069  87.3304081  87.2614098  56.6272974
  88.1540775  86.7748642  56.5944815  86.9452477  87.1390915  55.7595873
  97.0058662   3.0481868  85.1657581  96.6530639   2.7019076  85.9854221
  96.2384063   3.1682735  84.6064568  31.9616144  62.0549924   7.3179600
  32.7723902  62.0062024   6.8115112  32.0277994  62.8810365   7.7970192
  68.1291151 103.3627701  89.5723438  68.5559559 103.9896297  90.1563740
  67.3771286 103.8381577  89.2191410  21.8431807  89.6818638  84.7703838
  21.4726663  89.6091557  83.8908005  21.6098094  88.8576221  85.1974773
  88.9952391  30.6222207  41.6146824  89.4147604  31.1601121  40.9431812
  88.9911764  31.1748463  42.3962280  31.3412064  48.3762128  12.7025864
  31.3652771  47.5414998  13.1704685  30.4984968  48.7613065  12.9429504
 117.3625148  32.4650723  18.6140129 116.6492284  31.9434125  18.9818737
 117.9377306  32.6427991  19.3581650 104.2248357  46.3064915   7.4021313
 103.8890398  46.4412553   6.5159485 103.7575711  45.5341107   7.7204392
  24.2557448  37.3872620  54.2078182  24.8681706  38.0688435  54.4846031
  24.7630089  36.8377072  53.6104080  93.2419395  82.6476860  35.5445933
  92.4380207  82.6361084  35.0251579  93.1515408  83.4156513  36.1087561
  28.8408297  27.3978288   1.0294220  28.1837528  28.0874974   1.1234066
  29.4436520  27.5402886   1.7591831  26.7907208  41.5103490  47.7949879
  26.0222691  41.5701253  48.3625671  26.4345616  41.5302808  46.9067452
  26.9873493  61.0579354  14.2363140  26.0504120  61.2252957  14.3381760
  27.0460814  60.1167352  14.0722439  17.1942251  30.6848103  30.7468960
  16.9042223  30.2242619  29.9594852  17.6962345  30.0320870  31.2349293
  54.0352392  58.0275917  90.9076595  54.6405458  58.1190348  90.1718140
  54.5885849  58.1087208  91.6844845 106.7174608  14.6606116  95.0574207
 107.6262409  14.3641238  95.0079155 106.2414963  14.0729480  94.4706154
  10.1397198  59.3750150  33.4712288   9.5616310  59.3856580  32.7083847
   9.5922392  59.0413911  34.1819927   2.2667282  20.4756886  24.1234467
   1.7143934  19.9368817  23.5570118   2.6198405  21.1497075  23.5427258
  30.0798321  74.0838146  93.0556297  30.7067680  74.5580387  92.5094700
  30.1343775  73.1778860  92.7514076  46.4644527  87.6518250  91.7579269
  46.5413857  88.5997581  91.6495991  47.1244335  87.2889042  91.1672115
  39.1523862 102.5269604  84.8614502  38.2417440 102.5885582  84.5730591
  39.5606589 101.9254780  84.2387390  14.4535702  19.0425116  13.8133118
  15.3515404  18.8180215  14.0572044  14.4072359  19.9927766  13.9185783
  47.8040171  82.9930019  59.0704584  47.6780987  83.9090157  59.3180370
  48.6437321  82.7523613  59.4618750  42.2009897  95.3014755  74.8250437
  42.7277279  95.5359459  74.0609789  41.8533421  96.1353397  75.1413298
 113.3131994  35.0691373  27.2908375 113.1000746  34.3284756  27.8584930
 113.4051479  35.8106953  27.8890583 106.6129476   5.9411006  68.9840317
 105.7157118   6.1744456  68.7458086 106.9199497   6.6781097  69.5120430
  31.8517035  49.5269830   4.9635860  31.2107437  49.8521478   4.3313858
  31.9862383  50.2585084   5.5660793 111.1930019   8.1292777  70.0209856
 110.2475626   8.0372481  70.1388979 111.4251262   8.8998084  70.5392885
  79.4346887   4.8628574  64.2188215  79.2365414   4.2429881  63.5168743
  78.6756212   4.8170428  64.8001575  51.9695663 106.1713409  74.9063587
  52.7253199 105.6375790  74.6610498  51.5579224 105.6886005  75.6231165
  76.8030340  11.8721442  64.0449286  76.2221748  12.1557384  63.3389473
  76.8632418  12.6311450  64.6250248  14.8624933  57.2034168  84.4283867
  15.4750586  57.8349018  84.8055172  14.1946816  57.0848036  85.1038074
  21.3455885  18.5831219  33.7945625  20.5686682  18.3394963  34.2978260
  21.2876862  18.0588204  32.9958221  39.6014183  23.8080746  31.4718792
  38.6468094  23.7624032  31.4183590  39.7960203  23.6733872  32.3993561
  99.4607145   1.3156467  85.0651169  98.6934454   1.8186526  85.3380871
  99.1893179   0.8861308  84.2538834  54.9814272  61.8925238  89.1413689
  54.5886278  61.5683651  89.9518394  55.9246397  61.8511009  89.2990589
  28.5385102  46.1650235   6.8860123  28.8673323  46.3749463   7.7601120
  29.2536896  46.4053780   6.2969658  86.6671926  13.0090861  74.8981762
  87.4457151  13.4921603  74.6211052  86.1811287  13.6294322  75.4414463
  12.6803082  44.4914491   7.7084324  13.3149355  43.8843781   7.3277351
  12.6636332  45.2319104   7.1020767   5.9238404  40.6520612   1.1808369
   6.6882914  40.1322419   1.4290783   5.6468361  41.0741097   1.9940826
 114.8041500  55.5375726  16.7636177 114.9653972  56.4569718  16.5516445
 114.2775572  55.5647523  17.5624821 113.4538234  38.0655820  21.0627243
 112.7347744  38.0976064  21.6937420 113.9582075  37.2916467  21.3134453
  48.4772301  37.8602409  88.0596542  48.2723522  38.5507536  88.6900902
  49.3064404  37.4937963  88.3668423  22.5490015  24.1621072   9.4735977
  21.6528528  24.4581181   9.6333668  23.0865639  24.9426705   9.6076462
 103.4450854  37.3982579  11.1626789 103.0495680  37.9681260  10.5030891
 102.7924455  36.7137772  11.3102314  76.7423350   4.9918990  91.7833424
  76.0184175   4.3693786  91.7151642  76.9808227   5.1822047  90.8760738
  71.6869783  66.8761444  59.3162251  70.7779264  66.6494322  59.5123434
  71.7427826  67.8154612  59.4917393  78.7494761  24.5344501  91.3566399
  79.4614679  24.9991660  91.7963409  77.9737503  24.7335868  91.8808842
  57.6374054  85.7529640  88.9785290  57.9458952  86.1900330  88.1847763
  58.4328651  85.5837822  89.4833565  85.1620674  78.4023857  89.3442726
  84.7620296  78.7469625  88.5458565  85.0471115  77.4542999  89.2798424
  50.9416979  46.7875153   3.7115929  51.0686701  45.9978539   4.2374775
  50.0556582  46.7011411   3.3598873  89.7376663   4.8374705  94.1913319
  90.6363231   4.6774440  93.9031792  89.2205459   4.1652446  93.7475491
  60.5522442 107.2563171  72.2825527  59.8932457 107.9196358  72.4873972
  61.2085009 107.3494148  72.9731274   4.0890091  35.4490334  14.8187515
   3.6129444  35.2536637  15.6258556   3.9815062  36.3926942  14.6997139
  41.7520827  37.8465802   7.0752499  40.8401316  37.5595242   7.1219894
  42.2093790  37.1227605   6.6472408  22.6310080  26.9147260  13.2383892
  23.0148190  26.0445744  13.1299183  23.2633322  27.3899037  13.7774632
   8.0201071  41.5859372  14.2635128   8.5847729  41.9060666  14.9670097
   8.4691351  40.8087975  13.9308617  92.9849339 102.6784229  96.1275387
  93.8180351 102.6392555  95.6578064  92.3208332 102.6733017  95.4382038
  27.2913807  34.3543107   9.9671814  26.7556303  33.5757500  10.1189777
  28.1091612  34.0150983   9.6033165 101.5434564  31.4863831  10.1359627
 102.1064938  31.3789613  10.9025642 100.7595862  30.9768254  10.3412220
  89.3960953 102.2092915  88.3238602  89.4159985 102.8149319  89.0648270
  90.2449226 102.3251915  87.8969097 109.5426000  77.1835286  22.0503017
 110.1891268  76.4790589  22.0946095 109.5847739  77.4907166  21.1447117
  44.8164082 100.5666924  78.5958576  45.4321623 101.2607002  78.8313103
  43.9574003 100.9200573  78.8270950  83.3171749  72.8356123  87.9810524
  83.1343365  72.7057791  87.0504951  84.1358566  72.3633003  88.1324673
  85.1150924   3.5851722  92.3386383  86.0042459   3.8846736  92.1490669
  85.2345354   2.7432399  92.7780819  35.7526224  56.6609246  23.3598301
  35.2336376  56.1166245  23.9519665  35.1048201  57.1720750  22.8747437
   9.4502848  49.2010934   9.8075172  10.3033989  48.8639790   9.5340607
   9.2677658  49.9149281   9.1964790   9.4982212  31.8602521   7.9598972
   9.8485249  31.6207558   8.8178894   8.7960737  32.4815518   8.1527874
  70.4690742 109.9177742  62.5555992  71.1328363 110.6073284  62.5423574
  70.4178953 109.6171379  61.6482782  85.9313995  26.1465221  95.5151081
  86.6089231  25.8745723  94.8960495  85.2551204  26.5475230  94.9691391
  23.7635105  39.3529946   1.9262764  24.6760910  39.2025048   1.6797421
  23.3117693  38.5470731   1.6759655  80.6667692   0.7908492  66.3439560
  81.0333139   1.6488032  66.5579510  79.7964555   0.7960754  66.7423916
  97.8703815  16.8353515  89.1330338  98.5795290  16.9754462  89.7604942
  97.9877979  17.5259929  88.4807587 112.6219715  80.8886678   1.3931248
 111.9545878  81.3272054   1.9208595 112.3445953  81.0325581   0.4883644
  11.1274164  62.9906613  42.3712132  11.9216793  63.3987767  42.7159283
  11.3730353  62.6898724  41.4963219 107.7338773  35.7879024  89.1222954
 107.3663217  35.3517490  88.3535862 107.2446090  36.6078811  89.1892242
   7.3474251   8.9345889  43.1831312   6.4241539   9.1316180  43.0251217
   7.8178727   9.6859985  42.8221703  51.9773245  83.7654591  77.4709606
  52.8720331  83.8010025  77.1326303  51.9140005  84.5171928  78.0601168
  79.4679165 100.4132462  89.1921616  78.5245943 100.5677414  89.1420841
  79.6364021  99.7432804  88.5296059  91.8883801  93.2308388  48.2130098
  91.6445541  92.4172688  48.6544609  92.4049091  93.7095737  48.8612652
  45.1767778 104.0786552  45.2918625  45.8457899 104.5228291  45.8127975
  45.3747797 103.1474686  45.3914547  41.0440558  44.5907647  13.6955044
  41.0939997  45.2379090  14.3990299  41.9451063  44.2872960  13.5848114
  36.5074015 107.7205276  82.9874420  35.7622409 108.2930565  83.1695938
  36.7560816 107.3714542  83.8433266 100.6844200  39.8974759   7.8024456
 100.1966179  40.7068116   7.9549667 100.0651229  39.2002637   8.0182907
 115.4997886  74.0526826   8.5899326 115.7138456  74.5766789   9.3618366
 114.8518837  73.4207589   8.9015648 102.9106838  22.2020583  75.2193308
 103.2849533  22.4222808  76.0723591 102.3785431  21.4238410  75.3849554
  88.4691030   1.1142497  83.2080936  88.9794714   0.4044299  83.5978508
  88.1219274   0.7423930  82.3972797  16.7632406  57.9220254  -0.1680687
  17.4477213  57.3212201   0.1264736  16.0780304  57.8486592   0.4962704
   6.9170987   2.4172835  93.2208633   6.1082112   1.9059425  93.1995869
   7.5248181   1.8830161  93.7322140  94.2717582   3.7200980  88.2628441
  94.5829851   2.8863387  87.9104137  93.3487207   3.5656028  88.4637451
  13.9185303  61.3743836  15.1395103  14.5794123  60.6973416  14.9943134
  13.3688277  61.3443429  14.3564674  49.6388865 101.4412594  84.7505474
  50.3760624 101.8571568  85.1975727  49.3238783 100.7828045  85.3697681
  12.8283947  64.9160725  24.5795414  13.5797137  64.4978768  24.1589996
  13.2145565  65.5429322  25.1912281  32.2878855  43.8040025  16.7822525
  31.9289129  43.6337239  15.9114048  32.9232519  43.1016499  16.9209454
  86.3134480  88.1221867  86.1119366  85.8713818  88.9645290  86.0058022
  86.9651508  88.2781601  86.7954445  96.7636329  57.2122245  84.8950005
  96.6323692  56.2643485  84.9182892  97.3693449  57.3523193  84.1671848
  13.9777249  48.6480767  12.1234963  14.8481863  49.0229565  12.2576496
  14.0050143  48.2908017  11.2358925 114.1383154   6.9807868  93.4381390
 113.7929327   6.4340167  94.1438198 114.9572069   6.5551238  93.1842422
  75.5105591  99.7329903  91.7068005  75.9575558  99.2775726  90.9933376
  76.1427832  99.7310162  92.4254894  97.2623569  19.6877723  83.9204597
  96.4930565  19.2706637  83.5326004  96.9117004  20.4384189  84.3998337
  15.3460728   5.3741317  89.6575642  16.2568985   5.0862556  89.5963669
  15.0429284   5.0325732  90.4987907  78.5549719   1.5397887  91.1169338
  78.4662348   1.2167220  92.0135784  79.4822532   1.7619186  91.0330486
  58.2043856  15.9355456   5.9867355  58.9133948  15.3573710   6.2682602
  57.5356310  15.8423335   6.6651890 100.6426460  15.5294376  85.7949448
 100.3378469  14.9580340  85.0900841 100.1919586  16.3599067  85.6418610
  38.3959985 101.3367081  64.3635654  37.9083872 102.0610332  63.9713717
  37.8405571 101.0356236  65.0826406 112.0418436  15.4883819  67.6571512
 111.6876537  15.5534701  68.5440254 112.9239971  15.8538203  67.7241278
  47.1080321  54.7214753  17.2819492  47.3486346  55.0190980  18.1593105
  47.2571009  55.4829652  16.7214558  47.2648257  60.7545811  10.7898590
  47.3027151  60.6892354   9.8356506  46.3293284  60.7640034  10.9923336
  73.8688404  19.7256618  65.3809500  73.4153253  20.1587634  64.6577787
  73.3959252  18.9022021  65.5013800 101.9189913  30.5029540  65.0650501
 101.3931066  30.1029925  64.3724442 102.7631551  30.6828551  64.6512175
  67.7257759  26.2599998  78.3130074  67.6614386  25.3402667  78.0557585
  66.8742353  26.6327338  78.0845737  67.6610088 106.3373947  87.5860882
  66.8933058 106.5988255  88.0945396  67.3010254 105.9926319  86.7689133
  79.6706915  81.8955231  95.2576160  78.9088488  82.4149227  95.0006008
  79.7128439  81.1942482  94.6074963  87.9246140 109.0452671  92.3094177
  87.7008247 108.3858776  92.9662037  87.2674751 108.9319706  91.6227055
  84.2664606   6.8686633  75.6439209  83.4285766   6.8804412  75.1812696
  84.9124367   7.0966487  74.9753618  74.3888408  14.0748267  87.6556778
  75.0384862  13.5426097  87.1963978  74.3617946  14.8961501  87.1648502
   7.1861475  37.2814328   7.1678135   6.4515656  36.8750722   6.7079231
   7.8790968  36.6215760   7.1425316  63.4587812 106.1422348  86.1840820
  63.1122780 105.7442188  85.3854942  62.7001286 106.2173462  86.7629051
  78.3133871  11.4816241  67.5361824  77.4912841  11.9489818  67.3879957
  78.3762223  11.4034419  68.4881163  73.9927309  70.2471215  12.8554890
  74.7293871  70.8152730  12.6301739  74.3479460  69.6407849  13.5054276
  18.1963890  86.0543019  35.0095341  17.5067394  86.6487176  35.3049633
  18.0682533  85.2612550  35.5300114  39.6749752  61.3118226  22.4006340
  40.0667780  60.5245168  22.7786133  39.9394482  61.2930734  21.4808914
   8.0237597  72.5305325  31.8579838   8.5169714  73.1101376  31.2774441
   8.0461901  71.6788632  31.4216492  40.6879729  76.1587579  14.8845169
  41.3053816  76.8901975  14.8894188  40.6728762  75.8641679  13.9739010
  19.7194975  46.6149480  29.5229599  19.0157383  47.2347028  29.3309471
  19.6124142  46.4113004  30.4520962   0.4069775  44.4808823   1.0286018
   1.1307495  44.1456086   1.5577290  -0.3288204  44.5382554   1.6381428
  77.8858900 101.8385029  64.0048885  78.7231207 102.1956539  64.3010569
  77.9000616 100.9254265  64.2918158 114.8124630  42.8692298  70.4688454
 114.1539652  42.9399257  71.1599445 115.5772287  42.4927478  70.9043074
  61.3596535  83.7973499  86.3556671  61.5861750  82.8673363  86.3576031
  61.9463825  84.1854191  85.7065296   8.3552664  58.7645680  14.9306843
   9.2553824  58.4746987  14.7823689   7.8371113  57.9601914  14.9039242
  98.0389244   8.6628585  80.1352215  98.8016874   9.2150550  80.3069878
  97.6377231   9.0447097  79.3545389  31.7784916  34.0682559  63.3247614
  32.1506344  33.3142905  63.7822390  31.5001046  34.6593623  64.0242720
  76.6542370   1.4371448  96.1975670  75.8903319   1.1311584  96.6864967
  76.4520604   1.2324004  95.2846432  26.2852638  71.6613919  18.8373825
  26.8243902  71.8331582  19.6094391  25.7548493  72.4515874  18.7350246
  29.9929732  86.2354047  30.6291649  30.1604574  87.1314580  30.3371784
  30.8117979  85.7704503  30.4571697  62.7613932  24.4493346  75.8637619
  62.9411132  24.6092181  76.7902470  63.5921580  24.6300273  75.4239798
  51.6455889  92.2179508  79.7954416  51.5387344  93.0714035  79.3754053
  51.1415291  92.2853279  80.6063747  24.6048945  52.4903733   3.8099739
  24.9974364  51.7250020   3.3900330  25.0173586  53.2384259   3.3780930
  50.3263092  97.2630882  64.6629572  50.8397579  97.3623562  65.4646730
  50.1123142  96.3307190  64.6294832  43.2605410  90.4378319  85.1618481
  43.4969664  91.0507011  84.4656277  43.4809494  89.5763302  84.8076344
  10.8272093  30.4708630  18.6908505  10.3500860  29.6445233  18.7666390
  11.6969221  30.2782685  19.0411922 115.6169189  23.3899791  33.7188789
 116.4445055  22.9094512  33.6982033 114.9631370  22.7310521  33.9525864
   6.5329491  17.1582656  95.1986027   5.6034886  17.3361449  95.0547695
   6.9190156  18.0187850  95.3619671  27.6093721 102.7460003  94.1954708
  28.1166649 103.0425262  94.9510956  27.4309087 103.5444164  93.6985588
  84.7044355   0.9028106  66.6537523  85.4095251   1.5019565  66.8989086
  83.9293749   1.4603191  66.5852261  19.6260851   6.8868691  14.7456333
  19.3711584   7.2542340  13.8992950  20.2283543   6.1758954  14.5264980
  99.1083748  20.4627185  64.2996836  98.4276516  19.8537974  64.5861530
  99.8490268  20.2837997  64.8790407  69.5728857  11.4521937  87.1320820
  68.7592084  11.3413100  87.6238823  70.1045877  12.0328097  87.6765156
  22.6573628  68.6537034  11.0276100  22.8119629  68.3709199  11.9289181
  23.2987087  69.3490655  10.8814022  11.8550717  37.8119521  58.7341022
  11.3985955  38.6379390  58.8941574  12.4565445  38.0060821  58.0152321
  26.2202233  67.2108800   6.1309311  27.0719164  66.8318135   5.9137604
  25.7542008  67.2471577   5.2956173 105.9089882  30.3229575  73.1867790
 106.4336807  29.5928149  72.8584194 105.0028879  30.0531535  73.0370474
   5.0817412  45.2229935   1.2298843   5.1767033  44.3059117   1.4871380
   5.3099077  45.7174260   2.0170948  90.9770442  16.9897181  17.4247334
  90.1944304  17.3676402  17.0235798  90.6406630  16.3282449  18.0293247
  57.4183702  69.9804783  87.9532528  56.9484949  70.6127977  87.4095440
  57.3259544  69.1491175  87.4879265  27.5220698  62.2366578  11.8006870
  26.7231529  62.7600343  11.7370960  27.4122446  61.7286259  12.6044724
  70.1153183  89.9521828  93.1868839  70.6412983  89.2426872  93.5559177
  70.3413439  90.7176876  93.7152195  21.0445248  16.2845187  77.4416828
  20.2543866  16.7524581  77.1716070  21.5353905  16.9224124  77.9597187
   2.6083868   9.0282685  25.1137611   1.9049137   8.5281379  25.5275604
   2.1986550   9.4284303  24.3468067  64.0226793 108.2167912  52.7606535
  64.4394159 108.8061237  53.3893394  64.7128296 108.0131149  52.1294355
  95.9484607  23.2772594  72.8867292  95.3763468  23.8093143  72.3337078
  96.5811426  23.8995509  73.2454729  94.9788666  74.1699743  68.8044977
  94.8287868  73.3348274  68.3615112  94.9995708  74.8155022  68.0980301
  23.3323496  60.2428109  11.4996502  22.7177208  59.5403630  11.7118523
  23.2886666  60.8343465  12.2509167  50.3557110  80.7094860  82.6228809
  51.3091707  80.7919693  82.6043320  50.0616741  81.1496258  81.8253517
  83.8155061  22.4032931  92.1862030  83.9068014  22.6234584  91.2591553
  84.7121937  22.2552734  92.4866581  22.9365319   6.3601453  16.5709183
  22.1703165   5.7898337  16.6332600  22.6260966   7.2125823  16.8762276
  57.6101112  90.7288074  95.6651688  57.0987320  90.0744820  95.1891613
  57.0785809  91.5238476  95.6249619  91.5603382   8.7221675  79.0561581
  91.2577898   7.9686122  78.5493660  90.9339601   9.4161563  78.8505697
 108.9395410   9.2680316  74.6562767 109.7086078   8.8581233  75.0521803
 108.9289409  10.1549678  75.0160980  72.3096609 101.0546780  66.5824175
  73.1079721 101.3499355  66.1445284  72.5454521 100.2101803  66.9664288
  57.3063677 100.9113271  21.4222881  56.4073485 100.6795937  21.6552708
  57.5281542 100.3183991  20.7043144  51.1618918  93.8586385   6.1048386
  50.5770796  94.5705277   5.8451530  50.9375590  93.1376797   5.5165073
  61.3338375 101.0478878  82.0150471  61.1222744 101.9346809  82.3066902
  60.9900284 100.4804325  82.7049923 109.9641353  30.7503085  92.8926659
 110.0729639  29.9033980  93.3252525 109.5119936  31.2929111  93.5387325
  60.7731921  15.3681712  88.4465599  61.2624580  15.5083900  87.6358891
  60.6238634  14.4231467  88.4757805  35.1730037  18.5492622  28.9370319
  35.7765913  18.0254852  28.4101650  35.6612205  19.3477737  29.1376755
  92.8634071 107.8400707  80.2588940  93.8045597 108.0076027  80.3078175
  92.4639416 108.5841656  80.7094288  91.2202454  76.4628506  71.7020702
  91.1565971  75.6739378  71.1637402  91.9046211  76.2625217  72.3406029
  16.7906319  26.3235908  77.5009775  16.9880520  25.7121997  78.2105255
  16.5254437  27.1287875  77.9454565  49.1697043  88.9691693   1.8932888
  49.9335020  89.5067937   2.1026012  48.4205549  89.5378644   2.0710060
  38.6244553  81.3436562  12.8551456  37.8547352  81.8042714  12.5210831
  39.0406388  80.9759671  12.0755074  89.9304039  42.3634582  63.0897808
  89.5469076  42.8532844  62.3622942  89.8247320  41.4448981  62.8421545
 105.7266695  34.5421844  84.1257668 106.1687452  34.5083099  84.9740887
 104.7968036  34.6092467  84.3427563  42.9658812  55.7355458   1.9452164
  43.2900732  55.7164723   1.0447857  42.6061075  54.8602444   2.0888397
  36.3167691  48.9757252  58.4429407  36.5545011  49.5351505  57.7035093
  36.6017294  49.4649649  59.2147446  13.6094916  28.9262605  82.0224953
  12.9300058  28.7691426  81.3668728  13.2824600  28.4981561  82.8137016
  42.9651714 106.1398317   1.6173718  43.2586426 105.4704763   0.9992477
  42.3504425 106.6756679   1.1161491  41.0812664  11.2759364  79.0072489
  41.6317797  10.5147421  79.1909742  40.1863909  10.9377241  79.0395403
   9.4761050  26.5941715  54.3562651   9.2844629  25.6567717  54.3843126
   9.0746552  26.8964386  53.5415840  59.9547297  70.7150389  17.8416321
  59.0663666  70.8590771  17.5156090  60.2290136  69.8933412  17.4344322
 105.8301629 102.1127094  31.4663649 106.3594044 101.8874634  32.2314787
 105.0139559 101.6278345  31.5885639  13.0768454  38.5727763  56.7044544
  13.9493597  38.2336140  56.5046549  13.1601810  39.5212269  56.6058207
  31.5332622 105.7984211  10.4883549  30.5829221 105.8113529  10.3746960
  31.6671283 106.0158064  11.4108822   6.0053688   4.4533235  48.5598135
   5.2424401   3.8786530  48.6224651   5.7324243   5.2618909  48.9933443
  28.0833983  45.2726603  79.7518301  27.8297853  45.9006691  79.0754271
  27.2550321  44.9919033  80.1406956  18.1206155  30.7345533  85.9709549
  17.4252105  30.8963799  86.6084957  17.9281986  29.8640728  85.6224251
 113.7435879  26.0710144  94.2551041 114.0673016  25.1892376  94.0709496
 114.4086654  26.4559889  94.8258018  25.5704045  24.0159416  77.5669765
  26.3712764  23.6972952  77.9832697  25.1862383  24.6110177  78.2108164
  38.3344412  36.3331056  75.5756187  37.7695823  36.0962749  76.3112020
  38.6194205  37.2259331  75.7702398  73.0947954  39.4683518  23.0452892
  73.6448771  39.4295217  22.2628948  72.3058683  39.9297156  22.7607414
  10.6349456  73.8454628  68.2902861  11.2742496  73.7578869  68.9972878
  11.0446167  73.4116268  67.5418329  22.2276092  71.9487286  79.7818565
  22.2654891  72.8254080  80.1642609  22.8927374  71.4510489  80.2574062
   0.8126848  89.8726530  56.0088253   1.5466326  89.5489139  56.5310764
   0.0687474  89.3362660  56.2828350   7.4058586  45.2834129  73.2368088
   7.5834417  44.3881750  73.5253382   6.6920471  45.1943827  72.6053190
 110.5192460  16.3514268  64.8311853 111.3974555  16.5128171  65.1760530
 109.9927862  16.1452043  65.6035471 117.8937512  13.6800647  49.3041515
 117.5293718  13.3411241  50.1218224 118.8273868  13.7889719  49.4849730
 107.3710854  17.3889124  83.0735111 107.4453755  17.0535445  83.9669609
 106.4994021  17.7827179  83.0372143  33.7279415  17.4858773  36.7984796
  34.1334486  17.3104763  35.9493446  34.4605398  17.5057817  37.4142170
  40.0836754  51.5851116  41.9850159  40.4886484  52.4243450  41.7661142
  40.7571650  51.1152172  42.4767923  31.7683172  11.6979873  87.5690269
  31.6098928  12.5950742  87.2751331  32.7017665  11.5557981  87.4118996
  44.6853233  51.4798914  11.1128399  44.9781144  50.8084281  11.7289993
  43.8554115  51.7910977  11.4742729  97.4931468 109.5963303  65.8730602
  97.0809532 108.7640996  65.6412840  96.9341184 109.9570229  66.5612602
  20.2548933   3.0219948  69.8201036  20.0509501   2.3805982  69.1394758
  21.0281205   3.4813079  69.4924116  42.0568940  84.6759202   7.4480698
  42.4387879  85.0890614   8.2224724  42.5599477  85.0303151   6.7148754
  23.4415102  35.6060576  89.3839645  23.0813646  34.7474051  89.6058846
  23.3594418  35.6614208  88.4319019  48.0151356  80.0440790   4.2118141
  48.8185311  80.2330138   4.6966812  48.2955516  79.9814154   3.2987568
  91.1060459  82.5862076  10.4044315  91.6487438  81.9022729  10.7967922
  91.4200765  82.6532962   9.5027039  94.3388081  15.3851640  93.8671684
  93.8112164  14.6162438  93.6512089  93.7139606  16.1102557  93.8735867
  72.5576575 106.0962928  78.9714050  73.1671442 106.7363907  79.3388700
  71.8138767 106.1004556  79.5739031 112.2013296 106.9739036  82.1675587
 111.6858114 107.3744683  82.8675747 112.8791560 106.4757324  82.6242924
  10.8276117   7.6527423  72.4300575   9.9587220   7.2652441  72.5354481
  10.8852160   7.8616399  71.4977074  77.0279550 110.4336583  85.7290649
  76.8126299 111.3654504  85.6886864  76.1982230 109.9884264  85.5571747
  48.9425564  62.0621109  68.3494091  48.5014534  61.3121176  67.9504442
  48.3438778  62.7953815  68.2075214  79.1245109  49.6685065   2.1487019
  79.7897226  49.8572792   1.4868137  79.0386254  48.7152411   2.1368763
   7.7900624  15.5742252  72.6835918   7.1020341  16.2311697  72.7897596
   7.8417033  15.4320800  71.7384148 116.7128269  25.3546858  48.1376505
 115.8724861  25.8053088  48.2213116 117.2537976  25.7252908  48.8349581
  48.3877087  65.2770472  70.8506632  48.1919146  65.0531769  69.9408436
  47.9341888  66.1073780  70.9959364  59.1388137  99.6410276   0.6785366
  58.6454088  98.8610698   0.4246780  59.4095701 100.0337888  -0.1513222
   4.6821049  38.7229824  76.3829088   4.7143197  38.9162707  75.4459810
   4.0567860  38.0021071  76.4573860   6.8751383  13.7022865  77.4331284
   7.4147123  13.8360310  76.6538954   7.3862374  13.1044304  77.9786348
  28.0380416  23.7074828  81.9984055  28.1114745  22.8245592  82.3607445
  27.5315237  24.1924024  82.6499653  29.3648839  24.5815468  62.7470207
  28.6869335  25.0695586  63.2144213  29.1416860  24.6874046  61.8222475
  46.0828400  34.3711352  89.9486923  45.7534456  34.1047859  90.8070564
  47.0250845  34.2084265  89.9927044  22.4402642  28.0142117  89.5849514
  23.1968880  27.5009012  89.8682690  22.8079391  28.8583207  89.3231773
  27.1536619  98.3054163  32.8790638  26.9132656  97.9478456  33.7338039
  26.5598745  97.8751327  32.2638294  82.9812128 110.8634569  49.2314503
  83.0568058 111.5885927  49.8516914  82.4847490 110.1950933  49.7037193
 115.0922190  26.8077874  83.4271049 115.7814202  26.3675594  83.9245319
 114.6367724  27.3465443  84.0740490  27.5067115  13.6737168  84.7152328
  26.6429663  14.0296996  84.9236870  27.4267697  13.3640158  83.8130474
  99.4217808  74.9124803   4.9363110  99.4814903  73.9624287   4.8359654
  98.5035211  75.0731291   5.1536152  23.8090491  11.7546439  92.4216080
  23.3520031  12.4183333  92.9381943  23.5061836  11.8984807  91.5250492
  21.5760469  14.3592191  91.5410709  21.4905620  14.8262501  92.3722172
  21.0130572  13.5912883  91.6388416 103.2965530 109.5317992  55.5187798
 102.6949705 109.6377305  54.7818184 104.1246689 109.2701879  55.1162720
  92.3009916  71.7072344  60.0075960  91.4955778  71.3030910  59.6847773
  92.6835866  71.0488081  60.5875301 112.8263082  49.2015314  73.6208391
 112.0673998  49.4049644  73.0741167 113.2341559  50.0507975  73.7900496
   5.9414846   6.0347164  77.5674152   6.1340046   5.8395016  78.4845066
   5.9432715   5.1806307  77.1352482  89.6806575  89.9915094  80.0494099
  90.4196180  89.3928594  79.9408436  88.9411856  89.4228001  80.2638340
   7.2956425  14.7499776  50.3429079   7.2612238  14.7840667  51.2988806
   8.1881171  15.0192475  50.1256180  53.6598272  78.0329467  10.4815838
  52.9551369  77.4692680  10.8008167  53.2213611  78.8462879  10.2316734
 107.6306231  36.9417548  41.7796278 108.5022534  37.2472358  42.0309734
 107.7084203  35.9879923  41.7568874  21.3739657  11.9800532  33.4007525
  21.2305284  11.9093883  34.3445015  22.1136546  12.5815415  33.3152866
  53.5072810  71.6165628   5.5330345  53.5521144  72.5691654   5.4507610
  53.5679502  71.4543535   6.4744446 102.4325903  24.7252107  93.9471245
 101.5815504  24.2954183  94.0322208 102.7536161  24.8008776  94.8457050
  17.0613623   2.5274742  59.7701597  17.3214555   2.6321450  60.6853819
  17.8875256   2.5075027  59.2871618  79.9386401   7.5596869  60.7134342
  80.3113218   7.0159590  61.4074802  80.5908580   8.2454783  60.5701494
 103.9363690  19.6243298  72.4363279 104.0639003  20.5379796  72.6916981
 104.7850938  19.3525791  72.0869732   4.9480182  89.6112156  68.9251471
   5.5963987  90.2677631  68.6706257   4.3404678  90.0828934  69.4949150
   8.9863127   9.7068185  93.9220142   8.9390969   9.2896432  93.0618000
   9.0337735  10.6436813  93.7315750  86.6406835 107.2504223  78.4716320
  86.6934062 106.9144927  79.3663979  85.9073384 106.7756955  78.0803919
 103.3926435  63.9354992  85.5259037 102.5817878  63.5970926  85.9056664
 103.1158335  64.6855354  84.9995422   9.5139712   7.6051182  95.9601974
   8.7276244   7.4944544  96.4946556   9.3190300   8.3563697  95.3999710
  18.3817708  39.2255735  58.7096357  19.2703342  39.4300222  59.0009928
  18.1473458  39.9498940  58.1294346  44.2198849  39.1897678  89.5533943
  44.0790939  39.3342614  88.6176968  44.3107128  40.0690842  89.9205303
  66.5993864  87.3212005  26.6947052  67.0827800  88.1425502  26.7838451
  66.2677342  87.1417858  27.5745079  55.7556254  70.2169921  14.2066166
  55.0099272  69.7005703  13.9008781  56.1178321  70.6084825  13.4117767
  56.0060674  94.0469505  20.4223702  55.9026093  94.7974040  21.0074684
  55.2438504  93.4964492  20.6018326 108.8967194  51.5933561  95.1800060
 108.8675316  52.4593973  94.7733688 108.1407876  51.5787792  95.7670212
  61.6456849  77.3451163  16.4072105  61.2241513  78.1214644  16.0386631
  62.1103603  76.9515301  15.6686947  65.2159071  28.2480860  83.3381367
  64.9049807  28.9407921  82.7552891  65.5928040  27.5925064  82.7512836
  48.6554528  94.6642114   3.8591835  47.7728546  94.8368074   4.1869995
  48.7790496  93.7237694   3.9877483  64.7769982  74.3844272   5.8732101
  65.7103521  74.5818330   5.7950279  64.3580777  74.9451317   5.2202580
  14.3210733   9.6988434  43.3897257  15.1234627   9.4166583  42.9506636
  13.6172593   9.4253063  42.8014612  40.2214086 111.2115814   0.0686619
  39.3866933 110.8030464   0.2979633  40.0094248 112.1368839  -0.0542572
  98.1089343 107.9100106  41.6127682  97.9899765 107.2057770  42.2500563
  98.3346511 107.4604736  40.7983971  20.2172232  25.9271407  92.8261566
  20.5477953  26.6972995  93.2885456  19.3537545  26.1909485  92.5082588
  11.5231299  38.2093859  62.6854467  10.9924805  38.0395699  61.9071102
  10.9213853  38.6324334  63.2979536  79.1640383  72.8996839   3.3627197
  79.7530777  73.2847478   4.0115521  79.2264301  73.4831442   2.6064655
  15.0721383   9.9728525  46.2177372  14.8959458  10.0322628  45.2787685
  14.4614005   9.3072993  46.5343904  18.2633102   5.5846095  95.7845592
  18.0634749   6.1478287  96.5322781  18.2258177   6.1692274  95.0275612
  23.0811906  38.1188250  56.5963125  22.3001432  37.6016593  56.7931223
  23.1471109  38.0992413  55.6415844  56.7002726  13.6280215  59.2661762
  55.9280396  14.1561663  59.0638018  57.4200583  14.0761662  58.8219833
  19.6070600  26.1893225  82.0056534  20.0313854  26.2951779  82.8571033
  20.2558923  25.7331848  81.4697552  18.6751354  55.7982779  81.8406487
  17.9783165  55.8202314  82.4965382  18.4532654  56.5027809  81.2318134
  29.4659805  45.7080698  66.1548948  28.9097857  46.3128567  66.6459227
  29.3364358  45.9536076  65.2388382 110.1122625  34.0570188  60.9101725
 109.2688014  33.8862062  60.4910898 110.2254875  33.3320355  61.5248346
  17.2041070  27.6254249  62.1145439  17.9602206  28.0636048  62.5050831
  16.4496863  28.1232858  62.4295282  46.2312031  14.3953228  94.2459583
  45.5261374  14.2052317  93.6271095  46.8973494  14.8392081  93.7211323
   5.4365945  43.8436460  78.9040852   5.0028926  43.1674528  79.4245625
   5.1199728  44.6687603  79.2717457   5.7478601  10.7709408  75.4141665
   6.6920584  10.7258582  75.5647945   5.4336059   9.8854738  75.5969858
  23.4475040  16.3157809  64.7388887  24.2765546  16.6759801  64.4239902
  23.0311942  17.0425713  65.2022409  91.3026381  89.3810243  93.6993504
  90.5172742  88.9333720  94.0140724  91.9570459  88.6873121  93.6172104
  26.1960602  22.3883653  87.0419979  26.5804005  22.1452188  87.8842545
  26.3840461  21.6447496  86.4693451  94.2779804 107.7400900  55.6356907
  93.5834743 108.2929392  55.2775717  93.8510383 107.2393523  56.3308239
  82.9774423  10.3269255  86.8205070  83.8718243  10.0147974  86.9579411
  82.6079316   9.7201580  86.1789989  30.7557559  13.4781277  60.5851412
  31.3968825  13.7261128  61.2512398  29.9479365  13.3253551  61.0753632
  43.8871717  29.4808507  58.3814669  44.0032625  29.9435043  57.5515842
  44.6243143  29.7674775  58.9206314  49.7016382  34.8394227  84.2603874
  50.1444387  34.0522552  83.9433289  50.0553322  35.5468106  83.7211895
  67.9561812  88.9955665   5.8138821  68.8169367  89.2276742   6.1623833
  67.5244743  89.8363353   5.6623337  50.5022675  85.8983328  17.9414341
  50.1756424  85.2922012  18.6063740  51.4373023  85.7034995  17.8783485
  12.9470205  26.3097167  79.5739889  13.7696159  26.6884255  79.2639112
  13.1766117  25.4170489  79.8321819 117.5452168  36.9222832  62.4080372
 118.3568772  37.3114419  62.0824671 116.8977995  37.6236939  62.3365831
  50.9471232  69.0946104  16.6375324  50.7299155  68.7391974  15.7757160
  51.8677468  68.8660540  16.7657826   7.7370214  56.4457512  91.1526585
   7.7128464  56.5181446  92.1068096   8.3366650  55.7192755  90.9826946
   2.0587589  36.2519479  36.4195204   2.2681142  37.1803665  36.3173437
   2.8773052  35.8528876  36.7144179  13.6270070   0.9866584  74.9377489
  13.6090839   1.2509963  75.8575487  14.5004106   0.6156916  74.8121262
  70.6953913  68.4695424   0.9654686  70.6847650  67.7926423   0.2887699
  69.9170334  68.2923962   1.4936802  71.0339123 106.6158964  30.3545258
  71.8895179 106.8202736  29.9771664  71.2352330 106.1537458  31.1682293
  19.0097332  39.2633605  81.8445683  18.5142875  39.9938607  82.2148895
  18.9301586  38.5657525  82.4951458  10.6029403  10.9427607  88.9564514
  10.3456056  11.8644047  88.9323044   9.8372918  10.4716206  88.6277485
  13.3113837  41.7438078  83.8359737  13.1397235  40.8292055  84.0601826
  12.4488091  42.1586657  83.8453388  11.6333413  51.8130445  71.3333178
  12.1093428  51.2746191  71.9655752  10.7224643  51.7762995  71.6251802
   3.8081628  76.8842936  48.6023426   4.2162514  76.2679338  47.9942369
   3.0303964  76.4265442  48.9213705  47.6446772  18.2397854  77.0422983
  47.1908426  18.2567000  76.1996937  47.8919888  17.3229671  77.1627760
  23.4728622  43.1289768  85.4455280  23.6514902  42.6727629  86.2678337
  24.3336272  43.4114599  85.1364613  11.3323486  60.7209110  81.0451984
  11.8200564  61.4089537  81.4979362  10.9164310  60.2205610  81.7472649
  14.6838576 101.0635187  15.3200218  14.3290216 100.3868438  15.8965942
  15.5789453 101.1982013  15.6313202 108.0371638  66.2160587  71.2014008
 108.8471325  65.8875370  70.8112049 107.4919577  65.4372501  71.3129282
  63.9371711  90.8148410   5.8531448  63.4333569  90.7377221   5.0429222
  63.5146338  91.5285851   6.3309166  35.0023532  18.1772470  81.2358665
  35.9055352  17.8620970  81.2701607  34.8159313  18.2687593  80.3014660
  61.7515087  37.0191669  61.6961861  61.3182402  36.9144011  62.5432587
  62.3333025  36.2620044  61.6294718 116.5573516  68.4684181  68.2837725
 115.6356569  68.5102987  68.5386419 116.7310230  67.5345325  68.1657648
  42.2962374 102.9508020  14.9260399  42.6882196 102.0856382  14.8074028
  43.0424333 103.5360386  15.0561306  38.3385098  87.6428796  22.8976414
  38.5984204  87.5890519  21.9779846  38.3230748  86.7334296  23.1957981
  55.2449036  19.9443853  85.5663204  56.1524820  20.2406549  85.6353188
  54.7707796  20.7025146  85.2247429   9.8837829  48.5367203  66.6740084
   9.5627928  48.6751080  65.7829142   9.0942419  48.5332489  67.2151566
  41.0653782  54.6298647  49.9789095  41.6696739  54.7759819  50.7067204
  40.2319098  54.4169044  50.3986835 117.3878532  21.7576981  80.9862137
 117.9931700  21.0430646  80.7884216 116.9667582  21.4952660  81.8047714
  21.1326981  40.7560730  78.5361147  21.3224149  40.6289816  79.4656754
  20.7513428  39.9248004  78.2536554  74.7989804  85.0930359   8.8114521
  75.1771456  84.9705388   9.6822140  74.8289758  86.0389806   8.6682102
  79.3866859  12.4363524   2.4815628  79.8119518  12.3793656   3.3372089
  78.6624797  13.0480201   2.6143047  18.7286282  27.3818779  38.7445545
  19.5544052  27.5603867  38.2946014  18.9865077  26.9304180  39.5482421
  40.5396308  98.4499981   8.4209797  41.2862574  99.0298368   8.2707665
  40.6108545  97.7854015   7.7358028  12.5559413  17.3825312  75.4241228
  12.9524958  16.5249145  75.5773211  11.8237615  17.4212193  76.0394669
  86.9418461  96.7255933  58.9105797  87.4198867  97.4431891  59.3262291
  86.7263992  97.0550198  58.0380583  27.1049309  62.5086546  77.9373837
  27.5155354  62.6772451  78.7854481  26.3751531  61.9222879  78.1369543
  55.7996017  70.7354678  26.4609310  56.6462046  70.4180183  26.1467335
  55.6211931  70.2099563  27.2408268  38.5115027  20.2751207  84.3978214
  38.0585408  20.5669570  85.1889515  38.6243510  21.0714841  83.8788795
  69.7917706  60.8153077  18.8458035  70.7380301  60.9020688  18.9611122
  69.6938354  60.3287889  18.0273125   4.7203147  17.7523685  83.9207268
   4.5038089  17.3564756  83.0765533   4.0656415  18.4408736  84.0373230
  55.7844741  80.2214839  33.7891838  56.6205162  80.2640750  34.2533466
  56.0058421  80.4167391  32.8786251 113.0939092  30.6982517  64.7798252
 113.2413490  30.5058360  63.8538313 112.7897634  31.6057825  64.7904015
  55.6074095  44.8550463  58.0049467  55.9484243  45.4251099  58.6941290
  54.8893404  44.3786478  58.4216595  14.1876895  63.8117804   1.3525650
  14.2294986  63.6051650   0.4188702  14.9605376  63.3884652   1.7263958
  40.0727606  10.4540384  59.1566372  40.9601307  10.4515684  59.5155191
  39.6695328  11.2423372  59.5202637  95.5768377  69.0916993   9.8325512
  95.0974304  69.8591711  10.1446220  95.2251274  68.3644773  10.3460476
  30.5992079  29.1332197  46.3767862  31.2632465  28.4877825  46.1345196
  30.2006435  29.3904424  45.5453968  50.4966945  68.8216986  28.3479092
  49.7559041  68.2197382  28.4193489  50.5458671  69.0313532  27.4152443
  37.0490336  40.2185297  19.4999921  37.2133780  41.0379648  19.0333557
  37.4482322  40.3485489  20.3602052 117.4752867  69.2146015  92.6319695
 117.1394588  69.2059612  93.5282803 116.7034425  69.3732071  92.0885277
  13.1164277  16.1015439  61.7018175  12.4834573  16.1752236  62.4160671
  13.9591205  16.3075233  62.1063852  26.2273908  45.5689573  68.8932562
  25.5744600  45.0656319  68.4068680  26.4318490  46.3101625  68.3231306
   0.3884675  24.2390060  80.1329041   0.9085634  23.9816570  79.3716526
   0.0637447  23.4130287  80.4914379  10.6060827  38.7168884  78.8491535
  10.7075644  37.7752948  78.9882088   9.7755396  38.9334321  79.2728758
  27.2387171  49.3356133  50.7622862  27.6287889  48.5412741  50.3974533
  26.6661143  49.0216255  51.4621210  14.5630705  48.4244061  89.1084290
  13.6224592  48.4786844  88.9395046  14.9695051  48.7687588  88.3131599
  15.0550056  25.5974364  56.2586117  14.1646600  25.8868694  56.0592556
  15.6169629  26.2747598  55.8822203  28.4428120  10.2722073  76.0425997
  28.9902401  10.5201459  75.2975655  28.8066983   9.4383919  76.3402081
  30.7195210  40.3285027  89.5182419  30.7406569  40.2506351  90.4720306
  30.1109934  41.0479832  89.3500900 113.7537427  35.4991293  62.7176380
 114.2517726  35.2974701  63.5098028 114.3286420  36.0748100  62.2133398
  45.6004858  23.3162856  86.9598866  44.7405529  22.9101110  87.0683575
  45.4613256  24.0004969  86.3051128  25.9027886  57.3423147  74.3410683
  25.2849221  56.6528177  74.0980339  25.4977965  58.1495380  74.0238857
  51.6277403  75.3586842  18.7959549  51.8829829  75.8952691  18.0455181
  52.3026568  74.6818461  18.8470623  50.2411318  44.0670490  58.0954695
  49.6203041  44.4124651  58.7369490  49.6960402  43.7941265  57.3574877
  11.5911293   9.0987509  60.6206465  12.4586391   8.9482921  60.2451181
  11.1240900   8.2747418  60.4823828  53.8691473  26.4783120  79.3459606
  54.6743536  26.9550538  79.5474339  54.0627050  26.0148764  78.5311031
  40.1762819  58.4523535  95.9296608  39.5447683  58.8385773  95.3228283
  40.1423454  57.5136805  95.7453537  84.3720943 106.5021421   6.8144581
  84.1386301 107.3754312   6.4996597  84.8584158 106.6612293   7.6234123
   2.4143539  29.7082543  59.2350340   2.7044678  29.4134140  58.3718204
   2.4625778  30.6632066  59.1906548  44.8705864  32.4012017  74.1987562
  44.2289066  31.6979074  74.2980289  44.6718645  32.7881455  73.3461046
  16.5515578  31.5135980  54.6532583  17.1872449  30.9111309  54.2670393
  16.0994565  30.9919882  55.3164005  75.6497240  32.9057336  87.9926205
  75.4825306  33.3968210  87.1881866  75.2158117  33.4138632  88.6780071
  46.9137621  68.8661040   8.0011437  46.6912139  67.9462661   8.1446812
  47.5496269  68.8498868   7.2858498  91.6455484  95.9283347  96.5842342
  91.0855568  95.8430560  95.8126259  91.9725216  96.8270893  96.5447235
  61.3034565  79.8846461   0.4997799  60.9705884  79.8503162  -0.3970173
  61.3835198  80.8193471   0.6899235  15.0383985  31.8315840  52.0850706
  15.4441977  32.1193457  52.9028416  15.4128635  30.9655881  51.9236326
 100.6724258  66.1408663  90.0381184 100.4757245  65.7133770  89.2045784
 100.9117623  67.0359230  89.7976494  33.1304407  49.6053791  96.0278702
  33.3597398  50.3200436  95.4338074  33.7882376  49.6503353  96.7217827
  61.7832786  56.6029211  24.8793480  62.5341756  56.2803073  24.3810436
  62.0930940  57.4148362  25.2806446  19.4886899  33.4025526  69.2263031
  19.3589890  32.7760005  68.5143709  19.1321492  32.9642940  69.9989843
  36.4324880  23.6925220  64.4576740  36.0488820  22.9828596  64.9729013
  37.3696828  23.6462665  64.6467686  13.9995062  23.7356353  77.4845266
  14.8428607  23.5427594  77.8941393  14.1993570  24.4020987  76.8271732
   4.4377849  71.8065643  60.9574032   4.5472640  71.6315269  61.8920708
   5.3309447  71.8842649  60.6220531  80.8777199  11.6864020   4.9569771
  81.6456459  11.4319617   5.4686138  80.2375315  10.9951550   5.1259777
  34.8496628  38.4893894  89.3545532  34.8321676  39.3800783  89.7046947
  35.7789493  38.3027077  89.2210960 107.2353442  25.7759857  84.7535706
 107.5613220  25.0133872  85.2314949 107.3284705  26.5025687  85.3697205
   2.3820332   9.3662757  38.8732123   1.7118961   8.8289285  39.2955947
   3.0433834   9.5015836  39.5518446  17.7201080  32.7286363  81.3949203
  18.6438870  32.9119515  81.5659714  17.2504640  33.4430957  81.8252850
   3.5714051  36.6493273  85.2058125   3.6911070  35.8213282  84.7407055
   3.8544482  37.3176718  84.5817661  39.2850095  90.1039197   3.5432789
  40.1668400  89.7316219   3.5442516  38.8562984  89.7062613   4.3011066
  66.0490591  79.7726084  21.4651558  66.1153537  78.9933588  22.0170662
  66.9556767  80.0484969  21.3303921  48.5819817  31.0008454  74.5104933
  48.6340046  31.9365263  74.3154907  47.7928877  30.9110546  75.0448179
  44.0118980  16.3580370  91.4570141  44.2251301  15.5624330  90.9693909
  43.1471968  16.1859989  91.8297482  25.7862020  58.5952425  66.1127424
  26.1216998  58.6259127  67.0086956  26.3631058  59.1795683  65.6208277
  59.3822891  95.1809527   3.7252876  58.8566238  95.9104158   4.0536091
  59.5281846  95.3873326   2.8020641  51.5482569  33.8088441  92.4847984
  51.2942219  33.4302473  93.3264351  50.8882999  34.4812083  92.3156548
  24.5112038  26.5229177  90.1025963  25.1802182  26.5823579  90.7845879
  24.4975328  25.5969262  89.8605537  22.8723335  49.9948168  64.6128607
  22.0524931  49.9595785  65.1056576  23.1516790  49.0816498  64.5470715
  72.8005177  69.3667282  20.7987186  73.4855777  70.0268485  20.9043858
  72.5642091  69.4129540  19.8723003  66.4120293   9.1499114  58.9481592
  66.0121727   9.5975614  59.6937847  67.3385382   9.3855137  58.9960957
  85.8776034  10.9623772   3.1721661  86.4671631  11.6641290   3.4481976
  85.8525760  10.3632409   3.9182541  66.1560947 106.5176012  17.1673367
  65.8223206 105.6877853  17.5082657  66.6524703 106.2732937  16.3862106
 104.3009073  52.5616299   9.6932194 103.6226494  51.8865897   9.7160790
 105.0142700  52.2023629  10.2207348  21.4135909  35.9527516  75.7328558
  20.9977460  35.8057213  74.8833323  21.1166573  35.2216196  76.2746191
  57.0770210  82.2238661   0.9254715  56.2263471  82.3253729   1.3524220
  57.1187205  82.9469539   0.2996609 107.9347308  29.1563797  71.1084127
 108.0450828  28.6415005  71.9077587 108.6657144  29.7742724  71.1186886
  27.7864599  36.5264559  71.1308146  27.5934672  35.7451701  71.6490602
  27.0115733  37.0790434  71.2329292  59.6977455  89.3560912  20.1867744
  59.1453761  88.5812642  20.2905056  59.5592982  89.8581936  20.9898636
  42.6070356  56.8138599  62.7718687  42.2559929  56.5459967  63.6211348
  43.5562325  56.8172979  62.8953505  62.6334984  67.2600640  22.1665165
  63.0507929  67.8525926  21.5412113  61.7505008  67.1299948  21.8206379
  19.9826562  48.3174324  76.5740108  20.7992792  48.7482500  76.3215208
  19.4499159  49.0168762  76.9524240  72.0043487   7.7268607   2.9824802
  72.5898016   8.0837781   2.3145840  71.8321151   8.4637887   3.5685799
  15.0000656  50.7236719  65.9774065  15.6651545  51.4088678  66.0436964
  14.6690118  50.7970142  65.0822783  29.5559049  49.7183323  71.4276409
  30.2639127  50.1556396  71.9006300  29.9336004  48.8841724  71.1488008
   2.6271942  45.8121824  88.4119415   1.8965651  45.6724787  89.0143490
   2.7144527  44.9814272  87.9445457  10.2241969  22.7911592  96.0897350
  10.6063282  21.9487095  96.3356686  10.7743430  23.1030798  95.3712082
  58.8159270  85.7492520   2.6871655  59.1579181  86.4136769   3.2853386
  58.1467432  86.2068488   2.1782085  71.2542731  74.6813728  34.5774433
  70.6878025  73.9113976  34.5276234  70.7245952  75.3397061  35.0271866
  16.4184594  18.2160175  75.6123686  15.6641459  18.7919712  75.4877853
  16.1678267  17.3971963  75.1846457  67.6403815  56.4085661  -0.0286701
  67.1484501  56.6423746   0.7584641  67.9739029  57.2426595  -0.3592518
  58.7763352  79.7788264   1.3503429  59.6678383  80.1184227   1.4286301
  58.3071608  80.4497339   0.8543655  27.1930647  19.4018257  71.0360813
  26.7966771  18.7015224  71.5544271  27.9945803  19.0148354  70.6838846
  61.3961554   4.0904200  86.4601135  61.8946552   3.3999369  86.0231209
  61.7653131   4.1306278  87.3423481  22.6899719  11.4705551  90.0305271
  22.7085924  10.5696821  89.7075462  21.7839599  11.6069925  90.3075695
  12.1171772  24.9748111  53.4060287  11.9731045  25.5398464  54.1651154
  11.2967288  24.4916177  53.3079576  11.2792683  19.5340407  87.6311207
  11.3980997  20.4336405  87.3264408  11.8263519  19.0090573  87.0468903
  13.2548213  54.3425655  67.4871159  12.8450775  53.5965872  67.0491028
  12.5230038  54.8290014  67.8666687  55.1519680  42.4360704  55.0298834
  55.6628466  43.2197952  55.2323914  55.4257488  41.7954636  55.6863117
 110.2950646   5.6287789  84.9043465 109.5649721   5.9684557  84.3868351
 110.4459222   4.7495139  84.5573997  54.3820602  57.1680361   9.4871208
  54.9293477  56.4095859   9.6907494  54.9167926  57.6972994   8.8953659
  13.4320283  27.3964977  76.7513990  12.5952101  26.9319606  76.7645073
  14.0109408  26.8326926  76.2383556  18.4997153  24.7164774  89.8098755
  19.0353990  25.3369570  90.3041267  19.0991199  24.3451476  89.1625309
  92.6598645 105.7944043  75.9708071  92.5175560 105.8123327  76.9172001
  93.1948901 106.5682534  75.7943535 117.2519409  25.2308559  71.3335037
 118.1664377  25.0557137  71.1115742 117.1447049  24.8665619  72.2121525
  13.7709427  32.1704650  94.6276760  12.8466773  32.3796296  94.7626400
  14.2050350  33.0223274  94.5815659  24.4652414  87.9000568  87.1403122
  24.9752879  88.7095547  87.1685314  24.6806979  87.5106239  86.2928677
  50.6000853  75.6300020  79.5827627  51.1027813  76.3588095  79.2189312
  50.7564783  74.9053049  78.9773035  85.8062483  12.1863753  24.0567944
  86.0737158  13.1032473  24.1203377  86.2788511  11.8512732  23.2948277
  15.4799998  34.4687176  94.2568588  15.5706561  34.2935586  93.3201981
  15.1814818  35.3770137  94.3028736  18.4751058  32.5669003  52.5817108
  19.1128552  32.7029371  53.2824230  18.7349498  33.1845045  51.8981314
 117.0862394  18.7767589  85.4618835 118.0173744  18.7122059  85.6741428
 116.6418677  18.6922443  86.3054657  99.7571547  10.1263952  90.2732849
 100.3398116   9.3946791  90.0699806  99.9736579  10.7931924  89.6215630
 117.8428585  20.5050278  41.0703945 117.9618953  20.9750032  41.8957329
 117.6275684  19.6101570  41.3332367  11.5089583  17.3480332  81.9073296
  12.3576975  17.7817118  81.8190289  11.0685956  17.8245115  82.6110935
  28.0962443  59.3784952  85.9503174  28.4884191  59.8253870  86.7004585
  27.9296589  60.0759697  85.3162670  74.9020702  99.6038486   0.0962612
  74.4099385  99.8078014   0.8915207  74.5324928 100.1838781  -0.5694797
  20.0397015   5.7951409  87.2852993  20.5239058   6.3162613  86.6448212
  19.6988642   5.0548619  86.7832565  58.7380875   1.5886790   8.5894272
  58.8350070   2.5064046   8.3352158  59.6356643   1.2640530   8.6615631
  85.4694921  98.5002233   5.5592987  85.3567106  98.0503704   6.3966438
  86.3408405  98.8926794   5.6137058  13.8469136  42.5812912  80.5230427
  13.9251876  43.0971766  79.7205639  13.6406243  41.6970205  80.2201462
  71.9113690  87.7199866   5.0350163  72.8670532  87.7725078   5.0232193
  71.6207391  88.6301305   4.9766705 110.8892472  41.0131121  44.4664669
 111.7428936  40.5862665  44.5394087 110.9817113  41.8213320  44.9709129
  41.6126728  26.7872548  69.2900896  42.0796776  26.2917018  69.9628210
  42.1506786  26.6902518  68.5043621 114.0030877  11.3085628  78.7782717
 113.3468015  10.7886243  79.2421532 113.5172839  12.0606148  78.4396791
   8.5818779  50.4770565  72.4348545   8.4322381  49.7590542  73.0499268
   8.0204916  50.2726936  71.6869783  13.7847698  60.0974989  83.9293385
  12.8853822  60.3045750  84.1832256  13.9049077  59.1859102  84.1954327
   3.4589440  45.3207302  57.5877810   3.0293432  45.7406807  56.8425846
   2.9043472  44.5673943  57.7906132  21.0127902  10.0127101  45.8622265
  21.9613099   9.9722290  45.9843016  20.7152772  10.6532693  46.5082932
  87.8748066  79.4650628   1.2344429  87.1858150  79.8615529   0.7012245
  88.4334928  79.0101530   0.6042358  85.7921512 111.2690967  86.7828465
  86.7091979 111.0170014  86.6746521  85.6855876 111.3856981  87.7269173
  33.6962557  32.9143405  84.0390491  33.3839226  32.0715261  83.7098980
  34.5135641  32.7066159  84.4919205 115.5568105  81.7658855   4.6342918
 115.7221204  80.9768273   4.1182587 115.5634147  82.4769022   3.9934799
  44.1445637  19.8703730  77.3623037  43.9340639  19.5767009  76.4759159
  43.2934809  20.0310493  77.7698278  95.4849989  97.1836044   3.6186859
  94.6337587  97.2356416   3.1840393  95.6575853  96.2452556   3.6958096
   8.9102161  39.4395709  85.1447773   9.4903129  39.7951579  85.8180332
   8.1221360  39.9802732  85.1977062  27.3799205  67.8524828  94.0818691
  26.7999458  67.5172853  94.7656155  27.1620107  68.7823248  94.0175724
  90.2664090 108.8471640  74.7432470  90.6094135 109.1672851  75.5775785
  90.7226432 109.3669153  74.0814781  70.4977924 104.7547580   9.5870373
  70.6599838 104.9858572  10.5016491  70.8628470 103.8748123   9.4939777
  90.4118711  92.5159146  12.8714726  91.2140114  91.9972564  12.9330799
  89.9311382  92.1276213  12.1404717 103.3979674  31.4605212  76.1578321
 103.3527632  31.2867403  75.2176237 102.7207632  32.1190810  76.3125086
 114.7526269  10.9703827  14.0564668 115.6973536  10.8878243  13.9264393
 114.4729222  11.5972781  13.3893847  22.3505807  19.4855309  61.8157005
  22.8513718  18.8124657  61.3548040  22.8711581  20.2824545  61.7149782
  40.7903242  46.7359304  72.6081848  41.1332703  47.3650265  73.2428980
  40.6437588  47.2515297  71.8151474  24.6684456  61.2274313  78.9408064
  24.1966343  61.2086725  78.1081772  24.6283937  60.3256178  79.2591667
  40.0026178  37.0838356  94.8077011  40.4307890  37.6264715  95.4698563
  39.6080613  37.7114987  94.2022324  41.0414982  12.7631247  71.2440729
  40.4113150  12.3787105  71.8534374  41.5552473  12.0191312  70.9297991
  50.7549143   8.0564725  58.0354881  50.1032925   8.5055661  57.4970293
  51.3891792   8.7369078  58.2612085  28.2943535  24.3309951  46.7402267
  29.1610670  24.7359753  46.7081499  28.4030795  23.5782337  47.3213959
  43.3037138  15.3749788  70.8110571  42.7811193  16.0471714  71.2484169
  42.6580811  14.7773862  70.4338694 105.8812423  33.7324619  69.5411634
 105.7464357  32.9099059  69.0705633 105.0044270  33.9941049  69.8221779
   0.5692739  27.9178166  77.5761127   0.4874759  27.4716616  76.7332077
  -0.0655382  27.4786711  78.1421471  28.2573295  20.8724022  81.9230652
  28.8121462  21.0943246  81.1752987  27.7281594  20.1353025  81.6182804
 115.0358514  50.9937811  80.9252739 115.9330980  51.3243961  80.9685802
 114.8780127  50.8509111  79.9920559  51.3491297  46.0308218  81.7842293
  51.4177132  46.6009188  81.0183811  50.9621525  46.5853453  82.4617100
  26.0408479  82.2006942   9.3065140  25.5305738  81.6571309   9.9068424
  25.4070956  82.4947859   8.6522266  93.4835989  88.2348515   0.0966618
  92.9671795  88.7803175   0.6899712  93.6099560  88.7793566  -0.6803635
  14.6409559  49.6893072  91.6833401  15.2440059  50.4052496  91.4833641
  14.5205295  49.2372608  90.8482456 114.8884804  38.6611295  78.7376165
 115.0270711  38.3695388  77.8365088 113.9368908  38.7039542  78.8318253
  59.2361111  89.0778209   1.4409802  58.9399559  89.0784337   0.5307552
  60.1914818  89.0733506   1.3820049  62.3867083  30.1743865  88.2684231
  62.2431755  29.2342162  88.3766460  63.1125164  30.2359509  87.6474285
   6.3448876   7.2305590  14.7395298   6.0247820   6.8179280  13.9373467
   7.1172255   6.7189318  14.9803040  47.1417570  35.5187845  84.8599339
  48.0754948  35.4298472  84.6690083  47.1036911  35.6692481  85.8044624
 106.6436846  84.2600824   2.3409340 107.3760397  83.9138009   1.8310616
 106.0025818  83.5493876   2.3524067  49.6034002  66.6202021  91.9560909
  49.5239973  66.4603472  91.0156822  49.0934372  65.9192562  92.3620892
  26.4947581  39.6812105  87.7366734  26.9438052  40.0940084  88.4743690
  25.5793881  39.6299124  88.0117989 116.8348479  71.5837669  80.2949810
 116.4445686  71.0218620  80.9644413 117.3150495  72.2477198  80.7897568
  10.5691445  58.0890036  77.7858305   9.8518503  57.9892445  78.4117460
  10.1392734  58.1143808  76.9309616  11.9064534  45.7676411  86.1185837
  11.1669326  45.5381918  85.5558300  12.6474071  45.2884340  85.7476711
  31.5851140  50.8606815  72.8321314  32.1362686  51.6273880  72.6752234
  32.1947050  50.1226997  72.8284788  91.1213923  15.3377396  14.3993923
  91.8528093  15.4442269  15.0076077  90.3882302  15.7807118  14.8265717
  59.0940380  19.3777215  93.3264828  58.4809780  19.3068290  92.5947952
  59.9252319  19.6223783  92.9196739  36.2905240  27.4608898  88.3869362
  36.0573387  27.9167271  87.5781918  36.3921952  26.5457702  88.1253052
  26.7481351  71.6620255  88.6119270  26.1262631  71.2379599  88.0206013
  27.6036787  71.5053272  88.2122803   7.2266227  75.4318523  87.9500294
   7.3331708  75.2315283  87.0201111   6.6352773  76.1843586  87.9667091
   7.9224885  53.8829803  93.2357693   8.6247271  53.4025764  92.7972507
   7.2496611  53.2232285  93.4038925  40.9662819  24.5532370  75.7787323
  41.1426067  24.0897179  76.5974426  40.9847450  25.4795623  76.0191774
  12.2001159  73.6538887  91.0402870  12.8073442  73.7232447  90.3036022
  12.2286344  74.5155716  91.4561272  55.4961920  37.6233411  91.3807297
  55.6834793  36.8982100  90.7846260  55.0330877  38.2637978  90.8407497
  33.2551241  31.7918611  61.3289833  32.3604608  32.1297669  61.2886333
  33.6862016  32.1627975  60.5590439  95.2703393  14.4009549   7.5703404
  95.9427131  13.7276322   7.6741955  94.4905032  14.0257985   7.9794189
  87.4784363   3.1637723   1.3923904  86.9154371   2.7160889   2.0239327
  87.4030406   4.0906483   1.6192028  61.9045479 101.9712164   7.5761768
  61.7963869 101.4191677   6.8017265  62.8393466 102.1761705   7.5955555
  44.1243896  88.0038168  17.3627159  43.6092446  87.5980283  18.0599854
  44.1901097  87.3272897  16.6887543  42.6301050  57.4986982  94.6018314
  43.3770132  57.5304604  95.1996136  41.8708467  57.3829937  95.1731205
  11.2771893  28.0115175  84.0248108  10.8173692  28.3944678  83.2777214
  10.8648574  27.1563840  84.1471291 117.6262701  24.5072705  14.7465775
 116.6894496  24.6797234  14.6524593 118.0068792  24.7920281  13.9157459
  23.9014738  11.1796624  20.9566376  23.0344694  11.5788514  21.0286114
  23.8587158  10.4101283  21.5242741  88.3179075  81.4035083   2.9357311
  88.2084495  80.6201889   2.3965904  88.6188490  82.0752718   2.3238442
  44.5743853  76.3199379  24.1053841  45.2699978  76.9170715  23.8300869
  44.4666177  76.4927341  25.0406715  77.2439629 105.9033348   2.1573517
  76.9359667 105.4459383   2.9397556  77.2387773 105.2353574   1.4717743
  61.8830520  87.2790314   8.7688133  61.9329769  86.4918067   8.2265732
  62.5239975  87.1318342   9.4643375  41.5857029  11.1244488  52.2468662
  41.5319490  10.7900202  51.3516045  40.9235430  11.8146133  52.2848940
  78.6421377  84.4767715  31.9371006  79.3020088  84.0932275  31.3594410
  79.1013295  85.1852705  32.3881123  37.4960589  93.8050556  74.7645426
  37.4936700  94.5832634  74.2072010  38.3345842  93.8425541  75.2246475
  10.3360450  41.8531036  66.4898443  11.1120331  42.0583153  67.0113468
  10.6179595  41.1466599  65.9087324  25.8488107  28.9266419  93.2716370
  26.4371896  29.2680001  93.9450741  26.3526273  28.9877319  92.4600506
 113.8214506  73.7044430  94.8829556 113.0832042  74.3135357  94.8677444
 114.3524413  73.9527321  94.1262341  25.1870966  34.0730095  80.7717419
  24.3768215  34.2415357  80.2908230  24.8975253  33.7146187  81.6107559
  75.4317981  81.5717484   8.3505604  76.0567338  81.2615730   7.6952145
  75.5270011  80.9601022   9.0806744  30.3209257  30.4897499  90.2456284
  30.0484228  30.2346563  91.1270523  31.1903381  30.1028585  90.1423454
  30.4632068  52.7735424  63.5161352  29.7452855  52.3647165  63.0327272
  30.0571990  53.5135794  63.9675045   5.8064830  46.2848806  88.1156635
   4.8925552  46.1079168  88.3384991   6.2432528  46.3891506  88.9610004
  48.5506565  60.7845964   1.6532490  47.6762546  60.6792320   2.0281479
  48.5584844  61.6785725   1.3112232   7.3607427  66.8360329  63.7166166
   7.6094198  67.1078777  64.6000719   8.1673026  66.4867306  63.3375645
  15.6806231  30.9131503  26.9121242  15.7394505  30.2308083  27.5808406
  15.1292086  31.5886045  27.3070145  33.0562019  23.7806726  94.2704964
  32.8337646  24.0744638  93.3870792  33.9686084  23.4984636  94.2064285
  28.9754605  49.6492767  82.2572136  29.1487122  50.3430700  82.8934956
  28.6079931  50.1050901  81.4999580  29.1858578  69.2618561  90.8435154
  29.5327306  68.6093473  91.4519119  28.5954666  68.7684441  90.2741146
 114.1456632  28.4499240  55.1069021 114.9043249  28.4711432  55.6901789
 113.5958634  27.7476978  55.4545069   5.8671301   1.9559295   8.6651489
   6.8091601   1.9596917   8.4954521   5.7948988   1.8407876   9.6126434
  22.7006054  71.9925117  94.5206165  22.4666047  71.7652321  95.4205132
  22.4635816  72.9161692  94.4374943 114.4879435  54.5498180  79.8540163
 113.7250613  54.8492765  80.3485489 115.2299715  54.7131014  80.4362202
  19.4060206  69.2710733  73.3406878  20.1445818  69.0986443  73.9246607
  18.6705303  69.4423580  73.9288568  47.5848055  54.8094082  84.0650272
  48.0031681  54.3665361  84.8033142  46.8467283  55.2785206  84.4541359
  37.6625466  34.4423795  84.2246819  37.0997477  35.2007699  84.3806648
  37.6263571  33.9451551  85.0417995  18.9196801  59.1309690  59.8916292
  19.7973609  59.4038296  59.6243238  19.0256751  58.8357592  60.7959795
  44.2728186  27.9814172  54.8304558  44.5425510  28.7305522  54.2991590
  43.3267546  27.9218102  54.6976089  35.4120684  50.0733995  69.9093771
  34.5684552  50.4919243  69.7379494  35.8489633  50.0574780  69.0578461
  34.2925858  50.0231361  64.5356178  34.7340035  49.7990704  63.7163639
  34.0717626  50.9499025  64.4430017  31.2271417 105.6865026  13.2980606
  31.7467356 105.1464512  13.8935444  31.3242996 106.5768625  13.6357662
  29.0978217  46.4591837  73.5646725  28.7446570  47.2815275  73.9041710
  28.6233735  45.7791853  74.0429306 110.9058649 103.7813713  23.4709522
 111.4647896 104.2236234  22.8320095 110.0691396 104.2431738  23.4174702
  25.4548049  55.3411913  56.0533047  26.4077473  55.3305197  56.1428499
  25.1844358  54.4474173  56.2637711  34.6729517  30.2495718  67.8743649
  35.1401091  31.0780716  67.7667379  33.7473083  30.4928780  67.8596640
  40.0434732  16.1567914  96.4422703  39.3164515  16.7326164  96.2054348
  39.8523021  15.3329146  95.9940434  32.4920273  18.2808232  70.0106001
  32.2306347  18.8022685  69.2516518  32.7618814  18.9266932  70.6634903
  59.3036652  32.1676588  92.7714729  58.6196136  31.9202828  92.1492958
  60.0719213  31.6688442  92.4936295  88.6699850 108.9852955   0.2953026
  88.7569696 109.6157886   1.0102436  88.7321264 108.1302740   0.7210991
  31.2195063  43.4049463  62.3190641  32.0104718  43.5970879  62.8227377
  31.3314152  43.8916683  61.5024805  52.5473642  18.4031034  84.5045948
  51.7797899  18.6854315  84.0072536  53.2239819  19.0435195  84.2848587
  19.9052036  34.4271541  74.2360783  20.5629516  34.0524721  73.6502361
  19.5131791  35.1398373  73.7314701  28.0116653  16.4125919  53.6961412
  27.0974684  16.5700054  53.4601402  28.3384967  15.8284450  53.0118990
  40.3217316  51.2901974  81.3760757  40.6426764  52.0047045  81.9262600
  39.3683982  51.3650846  81.4182377  46.0872269  49.0172148  51.0360193
  46.2917614  48.7871647  50.1296663  45.8133364  49.9334574  50.9945965
  38.7468123  41.3445425  77.8456879  39.4262624  40.9385729  78.3839846
  38.5102177  40.6696653  77.2094488   9.2391729  42.8577280  81.7887115
   8.3980072  42.4054575  81.7244911   9.2216098  43.4982729  81.0776329
  50.0143099  46.6927481  94.2058182  50.9381008  46.7701912  94.4442272
  49.6621418  47.5751781  94.3221188 109.7372926  19.8071772   2.3047993
 108.9143122  19.4251973   1.9997952 109.5737947  20.0273854   3.2218620
  19.9495566  42.3240566  87.8741741  19.2715752  42.3490429  88.5494137
  19.5576394  41.8218708  87.1597195 112.4458064  60.6479740  76.7526340
 112.6057036  61.2743807  76.0467482 111.7842550  60.0530338  76.3996077
  43.1439638  57.0091295  71.8053579  43.0366421  56.4295197  72.5595284
  43.8943529  56.6498327  71.3320208  33.4538412  44.8985100  92.1508217
  33.6457849  45.0255013  91.2217045  34.2926764  45.0387859  92.5900364
  66.9796801  91.2936878  80.9723663  66.8183279  91.6953754  81.8260860
  67.8137589  90.8358479  81.0768795  22.4795032  76.5973711  66.4954805
  22.6033044  76.9067430  67.3928070  23.2374859  76.9356680  66.0187721
  93.0054313  96.1151840  14.5874569  92.0777256  96.2970831  14.7374699
  93.3880121  96.0829021  15.4642841 116.2168555  69.1007710  95.1945591
 115.4508994  69.5380926  95.5664349 115.9394638  68.1925058  95.0748158
   6.8149227  52.0634270  32.6427412   7.6210600  52.4001360  32.2515893
   6.4623296  52.8025055  33.1383967  44.6254892 109.3270780   8.8343212
  44.7898674 109.2032482   9.7691414  45.4044778 108.9731361   8.4052155
  23.6551118  33.2910919  64.8070669  24.1130710  34.0780210  64.5116901
  23.5686922  32.7543354  64.0192509  60.3415710  87.0097353  16.7189858
  61.0831863  86.7403175  17.2608826  60.5971796  86.7717363  15.8277771
  41.2288284  56.6848087  90.7070827  41.5583849  55.7952595  90.8348465
  41.9971466  57.1886110  90.4385662 102.8212703  21.0182435   2.3261616
 103.7004126  20.7228190   2.0893833 102.5202359  21.5105492   1.5624592
  19.0420818  56.1717081  93.5352707  19.6015584  55.4067802  93.4007359
  18.8689590  56.4999866  92.6529503  17.2294641  11.8289542  52.5967979
  18.0597889  11.3592887  52.6755762  16.6336262  11.3619602  53.1825686
  53.8089752  35.8234501  60.4414415  54.4347095  36.1427879  61.0915995
  53.1611013  36.5242529  60.3681421  52.6144582   0.2891593  94.4178486
  51.9762248  -0.3518815  94.1048717  52.5064773   1.0395961  93.8335323
  16.5897512  92.1568298  58.9121962  17.1266305  91.5025997  59.3593884
  15.8460319  92.2974586  59.4981432  21.3377619  56.0032368  81.2695122
  21.4650393  56.7050838  80.6311989  20.4031324  56.0321569  81.4741135
  50.4969931  60.8930159  85.7017136  49.9213123  60.3110266  86.1978149
  49.9155188  61.3343096  85.0825405  50.6080014  90.3126742  24.1026089
  51.3174218  90.3338744  24.7448799  50.0249261  91.0245563  24.3661949
   8.6067742  66.9422960  66.8774033   9.4717652  66.9508886  66.4675856
   8.7365955  66.4720964  67.7009869  24.7615194  21.8044829  81.9492340
  25.3801274  22.4847555  82.2152901  23.9892578  21.9567108  82.4939060
  50.9008932  87.7420616  85.3962326  50.2802992  88.1165600  84.7710514
  51.7113209  88.2302380  85.2508831  86.5387405   0.5274779   2.2092316
  87.3509628   0.4111487   1.7162869  86.7504794   0.2288539   3.0936691
  90.4393841  10.1620251  11.5660641  90.5941964  10.7976825  12.2647736
  90.4345060  10.6842763  10.7639000   1.7527081  73.4520006  83.3379745
   1.4441139  72.7308655  83.8865757   2.7029085  73.4511995  83.4535217
  39.3690920  77.6917315  72.7715778  38.4909582  77.7398682  73.1494617
  39.2200017  77.5710535  71.8337917  32.8252959  59.7342396  95.4848957
  32.3885226  60.1586866  94.7464561  33.6473799  60.2142239  95.5850124
  36.6286898  47.9270315  52.7282667  35.6779885  47.9169369  52.8391647
  36.9188285  48.6964178  53.2182598  40.4903984  27.0362902  66.2051392
  40.3154373  27.4656105  65.3677034  39.7263288  27.2417355  66.7438602
  49.1879702  30.1356745  81.3436699  48.4800625  29.8347235  81.9133472
  49.9852991  29.9804282  81.8500328  31.6767430  38.3837748  85.7519054
  31.6294265  37.7779245  85.0123596  30.8192849  38.3163834  86.1719704
  31.7482781  56.9017029  62.8220749  32.4604511  57.4925232  63.0669689
  32.1739626  56.2111521  62.3139763  29.4562340  12.6083887  92.2068787
  30.4094005  12.5621748  92.1322441  29.1455626  12.6235664  91.3016224
  41.8808031  31.5854454  66.6264963  42.4426794  32.3521447  66.5138054
  41.3939714  31.5224195  65.8047581  34.8216653  94.6281147  90.5226803
  35.5097270  95.1840305  90.1569557  34.0672040  94.7740459  89.9519634
  51.7762214  94.2358185  22.3438522  50.8562822  94.0016343  22.4667332
  52.1163589  94.3446566  23.2319328  61.7909009  93.0073311   1.3609669
  60.8574993  93.0450775   1.5696976  61.8200928  92.7482011   0.4399750
  33.8622272 103.5866930  17.9045937  34.0471322 104.3984176  18.3769676
  34.2543203 102.9005958  18.4447453  12.2007871  43.3898926  68.3777285
  12.2667646  44.2209387  67.9073668  11.9375408  43.6367130  69.2643023
   1.3393944   1.1811501   7.6342747   1.5212363   1.4806420   6.7435047
   0.4040592   1.3444239   7.7556107  56.4358587  87.1673538   1.4974472
  55.5147917  87.0161106   1.2853310  56.7397410  87.7764250   0.8244583
  73.5835249  84.0013100   3.4839031  72.9453880  83.2878782   3.4889862
  73.9345438  84.0150310   4.3743107  31.8087149  57.6409292  76.7958450
  31.4122891  57.2296000  76.0278034  32.0473075  56.9081736  77.3636246
  34.1966867  55.9275007  70.1704168  34.1572309  55.1769781  70.7632017
  34.4122815  56.6686964  70.7364416  35.5498457  63.1048489  67.7632904
  35.0246572  62.3064804  67.7084208  35.0835443  63.7363911  67.2156143
   3.6673468  68.5183096  75.0807762   3.7898818  67.7717829  74.4943333
   2.7274990  68.5288620  75.2619028  38.6475635  57.6110125  77.4174118
  38.2382703  56.7471743  77.3674631  37.9268861  58.2058811  77.6247358
  54.4422490  74.4321157  21.0406181  53.8019008  74.8947682  21.5811226
  54.7469002  73.7124778  21.5933773   3.9203793  40.3551340  71.0470057
   3.6726022  40.2759361  70.1258278   4.8743579  40.4322720  71.0326481
  13.4130686  40.3903348   8.8889954  13.0191916  39.6628720   8.4074471
  13.6672037  40.0110013   9.7302792  29.7852659  32.7479649  72.3689842
  29.8551536  33.5674334  72.8586960  30.6786776  32.4050784  72.3471022
  11.2846708  49.5311737  74.1086245  10.3941703  49.6596003  73.7819052
  11.6854465  50.3990221  74.0591240  37.7556229  84.7419548  92.1104717
  37.0360494  85.0168133  92.6787090  38.5063410  84.6578693  92.6983356
   5.8825749  11.0347611  18.8282940   6.6804045  11.2016589  19.3301270
   6.1641234  11.0645730  17.9139206   0.5444205  28.3239079  81.1970711
  -0.2454174  28.7374830  80.8487225   0.2456306  27.4762082  81.5262508
  32.8099704  55.0810862  64.7316551  32.4528980  55.4861212  63.9412880
  33.6049128  55.5804682  64.9185038  29.5964837  30.5199862  78.4809256
  30.4833245  30.4588294  78.1259489  29.5009804  29.7369313  79.0230846
  27.7323413  37.6266050  86.5795803  28.4781003  37.6620293  87.1786022
  27.1815610  38.3652782  86.8388748  50.7819033  37.7443433  90.3338623
  51.0649157  36.9439101  89.8917675  51.2892962  38.4405780  89.9166775
  32.5574541  64.5944595  73.3406639  33.3936405  64.9851418  73.0869102
  31.9176459  65.2951670  73.2146263  26.8955040  72.5463724  93.8526344
  27.1059060  72.0947123  93.0353451  26.4893794  71.8742943  94.4000053
   9.9542123  40.2333689  87.4909592   9.1752946  40.3032875  88.0428886
  10.2975297  39.3581748  87.6709557  19.3653750  33.8298488  54.8609924
  19.2707872  34.7797775  54.9311352  18.6802971  33.4783030  55.4296017
   0.6232899  19.4856269   3.1949398   0.2352732  19.1016394   3.9812157
   0.7813662  20.4004294   3.4281323  58.3373064  84.2677619   7.6069901
  58.3507723  85.1493980   7.2344658  57.6394779  84.2949750   8.2616016
  15.8227634  42.3105621  57.7551746  15.5714118  42.8398275  58.5120964
  15.1483250  42.4928617  57.1008587  18.9950705  66.3151741  92.0282841
  18.2855093  66.8482018  91.6696262  19.5698202  66.1476183  91.2814140
  38.0920911  89.7173023  62.4531794  38.5796881  89.3089294  61.7378378
  38.4709167  89.3401337  63.2472038   6.8061697  49.8035812  67.4780798
   7.0779175  49.7392130  68.3936357   5.9209800  49.4395828  67.4648190
  11.6710067  57.7069998  93.1547737  11.9395888  57.6232433  94.0696907
  11.1266828  58.4941435  93.1360435 113.3663903  35.7816887  85.5515671
 113.9421727  35.1493025  85.1216888 113.6153032  35.7431102  86.4750290
  20.5640531  56.9014311  57.1921730  21.1281490  57.6311302  56.9361305
  19.7114873  57.1128654  56.8118286  32.4686050  77.6854372  62.2857094
  32.3235226  78.3773232  62.9310608  33.4159875  77.6802063  62.1490526
  60.3145153  93.0413892  12.7187225  60.8745605  93.2901646  13.4540436
  59.4317919  93.2861330  12.9964516  27.1638370  41.3046598  71.5451860
  27.4629951  41.2973070  72.4544096  27.0595503  42.2326231  71.3348532
  61.4042551  85.8108904   0.9223816  60.7918269  85.6114294   1.6304562
  61.6533500  86.7230822   1.0710022  43.8343668  69.4153118  91.6107559
  43.5338259  68.5596228  91.9168758  43.4693813  69.4961977  90.7295799
  25.4264736  39.5932984  70.2563524  26.1294627  40.0752020  70.6920242
  25.2978683  38.8150072  70.7985306   6.8603009  85.9923649  81.6438580
   6.1501104  85.3814411  81.4472961   6.9655800  85.9395981  82.5937939
  35.5961919  34.1272354  96.5385151  36.2943172  33.6561799  96.0835838
  35.5998945  34.9996901  96.1447620  25.1467752  41.3765764  44.0736437
  25.1992631  40.5041552  44.4639730  24.4647241  41.2998199  43.4064484
  16.7044294  62.3137045  46.9885874  16.1817074  61.7496490  47.5585270
  16.6950297  61.8712568  46.1398315  24.5142984  42.5528765  72.8918648
  25.1793313  43.0355835  72.4009895  23.7417126  42.5678682  72.3269558
  43.9554405  38.7148714  76.9513750  43.7386799  38.1675529  77.7061510
  44.3680716  38.1143188  76.3306475  90.1235706  77.2482707  10.9013054
  89.2759926  77.6909210  10.9449265  90.5639440  77.6474907  10.1510212
  44.1808367  56.9932270  67.4665260  43.7296629  56.4979362  68.1501627
  44.0659285  57.9093361  67.7190542  46.0938835  59.7297239  69.8922348
  46.6600370  59.8512936  69.1300535  45.2100182  59.8913860  69.5622730
  71.3072402 106.4924909   2.4068996  71.6712028 105.6522848   2.1279404
  70.6832868 106.2660839   3.0965778 111.7759813  43.5642290  63.3472109
 111.7449893  42.6201677  63.5022020 111.0789747  43.7255526  62.7112961
  37.2770476  78.1494474  78.7261581  37.8049064  77.3567343  78.8221073
  36.9977355  78.3605003  79.6170378  41.3290834  54.4691658  53.2166910
  40.4472637  54.0968513  53.2183218  41.2459517  55.2840042  53.7120390
  10.2026832  58.5166740  68.9670229   9.8391086  58.7288141  69.8266983
   9.5849711  58.9001799  68.3444595 115.2018727   0.1710612  28.8541481
 114.8758996   1.0220200  28.5611698 115.4732693  -0.2713054  28.0498573
  33.0243659  24.3943763  91.6976643  32.8554511  23.8460422  90.9314823
  33.0632186  25.2855635  91.3505173  25.9575248  33.8882279  76.4147997
  26.3561797  33.2252884  76.9785500  26.7003179  34.3457556  76.0208941
  33.7845325  32.1238208  74.3480206  33.1796980  32.5415254  73.7348890
  33.4168458  31.2516069  74.4904423  66.6711718  92.6239421   2.8558609
  66.8454797  92.4891450   1.9243691  65.7781011  92.9671575   2.8852055
  61.7765147  93.3019115  16.2857697  62.0086676  93.2995750  17.2143814
  60.8313424  93.1510355  16.2747929  20.5858874  23.8257957  49.3620014
  20.6137443  23.5348749  50.2734995  21.2932587  24.4670177  49.2935228
  16.2919140  19.8577046  89.9477291  16.8638420  20.6112742  90.0935555
  16.8518472  19.0977776  90.1065350 112.4540324  62.1766758  68.8503456
 113.0943812  62.8731537  68.9956141 111.7652799  62.5894308  68.3293009
  90.4941255 103.6908008   3.8827107  90.9155828 103.3440639   4.6690819
  91.0942251 103.4676601   3.1711456  62.2314978  39.7066712  60.8371878
  62.5619173  39.6299648  59.9421072  62.0601654  38.8045239  61.1073875
  49.5697641  30.3211927  51.3900042  49.6175194  29.4869232  51.8568516
  50.2712774  30.8493543  51.7709923  45.8922178  94.5437457   4.7075150
  45.9859896  94.2317917   5.6075832  45.2194661  95.2227642   4.7582314
  31.3385844  32.6947021  86.8887997  30.6462717  33.3464384  86.7784500
  31.8885326  33.0457163  87.5892162  38.6395254  84.6334793  23.3855793
  39.1979629  83.9299204  23.7163136  37.9765346  84.7527768  24.0656063
  26.2022996  77.7452374  87.5148106  25.2778292  77.9852438  87.5779343
  26.4525795  77.9884911  86.6235065  14.5012307  21.5365982  33.4284329
  14.9045908  22.3474145  33.7384486  14.0617275  21.7835951  32.6147604
 109.7418906  40.3933477  88.3202171 109.6086068  39.9104309  87.5045776
 110.6858565  40.5479956  88.3554840  13.2546067  26.6747046  89.4576454
  14.0611756  26.1593890  89.4464397  13.0716324  26.8129969  90.3869629
  74.8613230 105.0679655  84.8135853  75.5661310 105.4563500  85.3318787
  74.2392031 105.7832826  84.6812153 112.4669517  35.0689847   2.2753689
 111.7150939  35.3064687   1.7326519 112.3794807  34.1247517   2.4058029
  37.6349783  48.2565832  83.9560127  37.0845056  47.4753428  84.0096092
  38.3481431  48.0072212  83.3682728  36.0254598  59.6362448  69.3944740
  36.3712049  60.4006481  69.8553181  35.6174517  59.1074800  70.0801611
 117.8801934  25.9028769  82.1014786 117.3089056  25.2747869  82.5434780
 118.2543005  25.4124951  81.3694954  62.0235586  22.1053672  88.0162334
  62.4893665  22.4519467  88.7772369  61.3160849  21.5785432  88.3879375
  58.5816795  87.0471455   6.6089794  58.4454388  87.5441362   7.4156162
  57.8274984  87.2668530   6.0620091  17.0122600  60.4400492  44.6871328
  16.6053569  59.5909548  44.8594522  17.1132267  60.4685831  43.7356997
  61.9808084  98.0310251   3.9949581  61.8250233  97.0962049   4.1293976
  62.9189378  98.1421234   4.1492340  32.2941208  13.6258054  71.9917440
  32.7664804  13.2460606  71.2508631  32.0181131  12.8712201  72.5119877
  40.9483242  34.5446920  89.1512680  40.4405737  35.2177811  89.6044540
  40.5886698  33.7173462  89.4712353  36.7459011  47.1974421  66.5460491
  36.7439485  47.5438547  65.6537342  37.3246002  46.4360332  66.5061140
  45.9511757  52.9468298  93.2174397  46.4329958  53.3898544  93.9158726
  46.5160751  53.0266714  92.4488449  32.5558376  39.2530727  76.0503244
  31.9388175  39.7382164  75.5024624  32.3681021  39.5480061  76.9413900
  21.3154619  27.4590451  16.0469219  21.5153664  27.0048291  16.8654320
  21.3728016  26.7791898  15.3755447  78.6368787  25.1427323  38.3003399
  79.1073296  25.1982362  39.1321060  77.7310644  25.3578908  38.5226891
  14.4534767  29.7392249  77.7548218  14.7995555  29.0603566  77.1755171
  13.5595870  29.4565105  77.9478693  36.0123634  60.5413771  85.2287292
  35.9210396  59.8201990  84.6059990  35.2479696  61.0946941  85.0681877
  16.5570343  70.3188515  94.1440296  17.0337415  70.4162598  94.9683380
  17.2127903  70.4856062  93.4669685  87.4921703  19.6932518  81.4953995
  88.0762672  18.9819181  81.2325764  87.4865818  19.6575463  82.4519157
  44.0620136  62.6112461  71.3180351  43.9497042  61.6879082  71.5440273
  44.1307640  62.6175117  70.3633308   1.2065190  65.9681749  94.3868160
   1.7256907  65.8260059  95.1783180   1.5866721  66.7511320  93.9884472
  42.8369427  62.5208569  65.0755501  42.2741795  61.8827295  64.6369982
  42.2302818  63.1683111  65.4347086  74.1816902  94.3311596  70.4236078
  73.8302660  93.4897041  70.1326084  74.7216082  94.1151905  71.1839199
  95.0347835 101.3025858  10.8212254  95.7808573 101.2196399  10.2273151
  94.3009502 101.5362026  10.2527687  16.4800614  37.4385316   1.7878506
  15.5992668  37.5464112   2.1467373  16.3381356  37.2134930   0.8683750
  91.9482881 105.3915598   8.8526032  91.1793691 105.6338455   8.3365604
  91.6562683 104.6511699   9.3843720  16.1792105  34.3937833   5.5414078
  16.1966770  33.8849694   6.3519833  15.2491396  34.4776303   5.3312466
  22.7762818  44.7506380  78.0388737  21.9646835  44.3716192  78.3763409
  22.6957989  44.6808863  77.0876169  23.5845876  52.1698189  92.2490120
  23.7034678  52.8643751  91.6011810  22.9915738  52.5472403  92.8987217
  40.0639157 108.7022688  23.8651821  40.0042065 107.7965213  23.5613892
  41.0033402 108.8648130  23.9505646  19.2017000  49.7032506  14.8437187
  19.4489878  48.9884049  15.4303047  19.2158955  49.3120915  13.9702007
  16.5033567  47.3310995  64.1542339  16.4130080  48.2101774  63.7864208
  16.4729774  47.4636173  65.1017284 118.2284019  79.5084763  61.0356140
 117.8349298  79.5786238  61.9053793 117.6164335  79.9650812  60.4583502
  53.4690380  96.2213516  77.5088882  53.1013393  96.1119938  78.3858585
  52.7506781  96.5856266  76.9916916  38.6556959  71.4131165  77.4687767
  39.6028209  71.5487051  77.4404669  38.5300684  70.7393074  78.1369305
  18.8617199  27.0588834  13.8700077  19.4775646  26.6054303  14.4456360
  18.0751055  26.5136487  13.8837978  35.8432746  67.9810286  80.3513908
  35.0290489  67.9888773  79.8481941  36.2036395  67.1055603  80.2102280
  47.3057652  43.3622265  88.9432716  46.9557953  43.9197063  89.6382332
  46.6370964  43.3845854  88.2587242  39.4196630  87.0034409  94.2550182
  40.1529312  87.0548820  94.8681259  38.7122202  86.6034317  94.7607422
   0.3159660  29.9503476   9.1641399  -0.5824858  30.2696568   9.0801212
   0.6559294  30.3934724   9.9415085  38.0078769  69.5816898  79.4875002
  38.8592362  69.2837954  79.8079348  37.3717356  69.0632534  79.9802256
  29.3205976  83.2437611  61.8593025  28.7849283  83.0460548  62.6275492
  28.6866093  83.4162903  61.1632204  11.8812990  44.6757030  80.3653336
  11.6687667  44.9155903  79.4633818  12.4895215  43.9414215  80.2808952
  45.6682920  71.3525629  78.0783510  44.9415016  71.9073582  77.7951431
  45.3169441  70.4627514  78.0464172  84.2752916 108.0238916   0.4469273
  84.8957950 107.5632812   1.0117695  83.4152967 107.7967407   0.8005402
 113.6889494  12.6832492   9.2401096 113.9193691  11.8389947   8.8523361
 112.7651275  12.8036124   9.0203449  21.0968607   4.1794259  16.0509560
  20.8175200   3.4734208  15.4680702  20.7840460   3.9139373  16.9157669
 115.3285469   6.2489945   3.4748051 115.3305734   6.6122538   2.5892136
 115.9946860   5.5619485   3.4533855  93.9237386  87.7440120   8.4805748
  94.3865139  88.4598710   8.0451271  94.6116573  87.2511245   8.9278576
  10.3617256   4.3068702   3.1182549   9.7326010   4.9117190   2.7250835
  10.7106798   3.8098437   2.3783752  48.6436558  55.7110262  91.8470764
  47.9541922  55.9300995  92.4738693  48.6202431  54.7558546  91.7893982
  32.8450990  53.3467627  71.6358042  32.2812271  54.0118361  72.0307159
  33.6944270  53.4705257  72.0595455  39.1656828  71.2480545  84.9184513
  39.3175983  71.5505648  85.8137989  38.2803035  70.8846664  84.9353981
  87.9328043 101.9239523   8.1200192  87.0824939 101.4958669   8.2197830
  87.9666263 102.1773292   7.1975777  98.7144078  22.1291835   3.0458710
  99.5527948  21.7184789   3.2572052  98.0652047  21.4440114   3.2049629
  64.9421120  80.9427261  70.9305906  65.3490067  80.8930206  71.7955732
  64.2629099  80.2684402  70.9462976 107.8507597 105.3336479   1.7065975
 107.0445949 105.5675127   1.2465641 108.4962255 105.9689810   1.3968250
  20.5371642  44.6651077  69.4093895  19.5913148  44.7874022  69.3278742
  20.7198620  44.8210859  70.3359556  12.7312171  70.0055218  88.3976841
  13.5275066  70.2207804  87.9120636  12.0334721  70.4628134  87.9283524
   8.3852261   2.1168858   5.0609085   8.5572451   2.2637231   5.9910080
   8.0862158   2.9660231   4.7356674  59.8152113  79.3624544  77.1506500
  60.6328869  79.3255091  76.6543961  59.1352892  79.1626692  76.5072012
  36.6785479  57.7646017  88.1583405  37.3675942  57.1319866  88.3614349
  35.9010005  57.4214649  88.5986900  30.9453654  41.3544798  65.7453442
  30.8715391  42.2277737  66.1302233  30.1225185  41.2309361  65.2721691
 110.5650366  -0.1289504   9.1990635 109.6610964  -0.0507158   9.5040295
 110.8471025   0.7738168   9.0517876  18.3083725  74.4597006  79.8683548
  18.6573911  75.2969217  80.1740932  17.5707269  74.2804432  80.4514313
   9.8087877  54.4587660  72.7927017   8.8674068  54.3895149  72.9515648
   9.8797762  54.6675301  71.8612432  49.2797232  56.2062216  63.3276844
  50.0131178  55.6655312  63.0343962  48.5404873  55.9179640  62.7922726
  29.0657759  71.6047955  79.3690443  28.9967394  71.8931055  78.4589100
  29.9825978  71.7555285  79.5991468  82.6207447  71.0807896  72.5487041
  82.4969864  70.2440310  72.9967499  82.6095676  70.8580017  71.6178560
  48.1025314  73.8856506  93.0923271  48.1731272  73.1539202  92.4792862
  48.2959318  74.6601439  92.5641346  44.9532080  60.6834459  65.4798841
  44.4025755  61.4500475  65.6391239  45.4440069  60.9015036  64.6875477
  39.2196321  48.9884758  94.5602894  39.7293639  48.3944225  94.0093803
  38.8745236  49.6422052  93.9521980  34.7326732  67.8369856  71.0326099
  35.1311541  67.4254513  71.7994785  33.8083553  67.9294062  71.2635422
  51.6569424  77.3356342  95.1191902  51.0270214  76.6444826  95.3234863
  52.4972296  76.8819904  95.0531960  26.0627031  66.3934994  84.3938160
  26.0352492  65.6308985  83.8159561  26.7262268  66.9640970  84.0060139
  12.6801174  22.1663863  10.1579830  13.0528467  23.0476291  10.1847622
  12.4300450  21.9844729  11.0638496  15.0848883  13.6250455   3.2312367
  14.6310156  13.4130675   2.4155781  16.0136526  13.6061055   3.0004284
  18.0256146  34.1943700   8.7307140  17.0981329  34.2629868   8.5042164
  18.3902758  35.0512273   8.5092327  74.2367107 102.8877594   6.6326210
  73.9117724 101.9893219   6.5737984  75.1817328 102.7933361   6.7519924
  14.5892208  21.2993056   0.8191845  14.7158545  22.0605046   1.3855431
  15.4760712  21.0171038   0.5953762  89.3765861  93.4702255  15.0299046
  89.2332346  92.6796629  15.5501816  89.5723993  93.1461527  14.1507694
 112.0195807  15.6052930  13.8768646 112.6467908  16.2674815  14.1672871
 111.1782635  16.0616357  13.8639137  96.8977059   4.7229487   4.4386456
  96.9714619   5.5461318   3.9557716  97.2326816   4.9266536   5.3118679
  17.1949303  60.7766104  56.7833138  18.0857491  60.8395863  56.4387703
  17.3015857  60.8249664  57.7333212  98.6365539 111.1883594   7.3711750
  99.3479521 110.5804302   7.1697590  97.8639776 110.7962372   6.9642326
  27.6156735  19.3083775  94.0706062  27.5337410  18.9243484  94.9435616
  27.5467014  18.5632634  93.4737110  78.4187222  86.1997318  84.9846268
  78.3978558  86.9526482  85.5753231  79.0238190  85.5856705  85.4005814
  90.7173378 101.9837381  15.2134964  91.1927206 102.0022680  16.0440990
  91.3891775 102.1386291  14.5495102 113.9536894  31.2132413   8.1616184
 113.1243099  30.7723958   8.3460400 113.7318409  31.8777997   7.5094101
  23.8494873  58.0609035  87.0136166  23.1521392  57.7706480  86.4256573
  23.5670376  58.9255428  87.3116970  50.8433056  82.8653526  63.0953169
  51.3825560  82.7373981  62.3148918  50.2518177  82.1128178  63.1037569
  39.5102429  45.0151968  87.1258926  39.3729305  45.7039070  86.4754677
  38.8199067  44.3764830  86.9478035  52.4503469  20.2441263  70.2172327
  52.0019484  20.7079625  70.9243631  53.3753300  20.4580045  70.3392696
  67.5343752  81.2147236  55.4930496  67.4717855  80.5732727  56.2007618
  67.2196579  80.7484150  54.7186232  41.2179565  99.1301060  94.7095203
  41.2139750  99.7218132  95.4619217  41.8975306  98.4876537  94.9136543
  50.1532602  57.4968767  88.0397797  50.7406759  57.7774143  88.7415504
  50.7256889  57.3763037  87.2821426  56.9965363  34.3580437  31.0906816
  56.7282486  34.3927288  30.1725030  56.3845587  33.7436724  31.4959788
  40.2588463  67.4283600  94.3116760  41.0307741  67.9636097  94.4956970
  39.9717212  67.1187782  95.1707172  32.7174616  28.9042616  71.5147877
  33.0494094  28.3129835  70.8391857  32.8166151  28.4146905  72.3313141
 104.0089960  67.5911617  88.3017445 104.3357129  66.6917801  88.2772064
 103.5435076  67.6542187  89.1357613  47.9869289  96.0036232  26.8009731
  47.3925949  96.3245632  26.1227390  48.7769634  95.7470848  26.3252995
  43.5476398  78.4832048  69.3649340  43.1296206  78.7145138  70.1943827
  44.4857311  78.5541487  69.5415258  35.8964109  49.9166584  84.8671341
  36.3071847  49.2244482  84.3491173  34.9612069  49.8317003  84.6816540
  34.5405364  55.5960655  85.6653786  34.0145659  56.3151312  85.3153324
  34.6913457  55.8330154  86.5804482  38.1893349  77.3309994  86.2583923
  37.4871016  77.5848436  85.6595135  38.8828135  77.9713678  86.0994816
  55.5928284  95.4230930   1.3330910  55.2432901  96.0628750   1.9533608
  55.4685420  94.5780184   1.7651054  98.0235923  22.8372008  40.0720379
  97.2552646  22.9949290  40.6206963  98.5668004  22.2401530  40.5865166
  35.5107522  81.9176674  93.2029533  35.6438708  81.3103294  92.4751759
  36.0746598  81.5831089  93.9003086  59.1828251  72.9559994  83.2953739
  58.8648987  72.0667219  83.4513760  59.5094919  72.9392099  82.3957920
 105.6524528  42.5265557   1.3826534 104.7651900  42.8131635   1.1661884
 106.0829223  43.3128316   1.7183659 113.7932555  84.9176502  78.9397383
 114.5674910  85.0694084  79.4817352 113.1565298  85.5636978  79.2454052
  33.9655781  21.3794780  85.1678562  33.7312126  21.7440414  86.0213184
  33.4984398  20.5449867  85.1274109  69.4735009  92.0448519  25.7893631
  70.0623996  92.2783567  26.5069363  69.0100342  91.2682559  26.1029408
  19.0869176  86.9378948  91.0136604  18.6978626  87.3915291  90.2659416
  20.0281334  86.9538021  90.8401871  44.7121429  60.8381414  90.0543880
  45.4246569  61.3466597  89.6671391  45.0284529  59.9347973  90.0421619
  65.6522417  73.7764359  72.1159697  65.4035521  73.4529305  71.2501001
  66.1961937  73.0803871  72.4845695  41.0576582  49.5804358  91.7521191
  40.4169703  49.9890757  91.1700821  41.1944771  48.7079859  91.3828754
  60.1603061  72.4388279   7.6704571  59.5726592  72.5566925   6.9241306
  59.6886451  72.8227224   8.4096405   6.7768448   6.6236359  18.4789536
   7.2856777   7.3789746  18.7735436   5.9486359   6.9960696  18.1763050
  30.5307102  53.8413334  66.5715456  31.1110926  54.2213726  65.9120321
  30.5339074  52.9032183  66.3813972  13.1414819  86.5471268  62.4035215
  13.6948979  86.6088963  61.6249704  13.0757678  85.6080341  62.5767803
  15.5458462  82.0777607  90.5907536  15.5303752  81.3038063  90.0277424
  16.2288666  81.8916607  91.2350178  37.0511127  58.0620050  91.9389820
  37.5011063  58.5582304  91.2552452  37.3640180  57.1641541  91.8285942
  48.7899399  33.8253069  90.1970005  49.4535828  34.5128465  90.1413631
  49.2906094  33.0182195  90.3160477 108.2596029   3.9577729   8.8711426
 107.6599921   3.5188252   9.4744846 107.9156221   4.8479420   8.7969276
 117.2933305  27.2049767  13.3318398 116.4472092  26.8222195  13.5638020
 117.0717252  28.0002076  12.8473541  29.2586470  50.0434637  77.8785992
  29.4514012  49.7159672  78.7571335  28.4471297  50.5406332  77.9810190
  45.5389452  58.2499790  90.2845955  44.9810457  57.5170374  90.0242519
  46.4303255  57.9071617  90.2201462  48.9177179  75.6904268  91.1260700
  48.5334730  75.0986338  90.4792595  49.1421461  76.4764452  90.6280422
  83.3505756  99.9587967  11.2218258  82.6781637  99.9797823  10.5409023
  84.0037901  99.3404581  10.8944008  36.7899847  55.3826666  74.0671539
  37.1204472  55.2323389  74.9528360  37.3989582  56.0168362  73.6887264
  49.1851854  55.7900143  69.7180700  49.4461584  54.9769688  70.1505995
  49.1267204  55.5599213  68.7907791  85.9519083 107.7258541  12.3232529
  85.6913454 108.4698631  12.8661892  85.3896410 107.0081140  12.6146957
  14.3469203  73.3294535  76.0843801  14.2874777  74.1500568  75.5951834
  14.2382491  72.6472235  75.4218245   7.2860640  24.4272572  11.2960312
   6.4766663  24.8629052  11.0289642   7.9215592  24.6685845  10.6221268
  29.8331261  34.0344763  78.1094027  28.9203882  33.7739563  78.2329655
  29.7996283  34.9862409  78.0132294 114.6615351  16.2402970   4.4040749
 114.2643536  16.8718440   5.0037643 114.0938676  15.4713160   4.4556305
  11.0600507  69.3423176  29.6713281  10.3174949  69.4171762  29.0719604
  11.6122842  68.6627150  29.2847872 103.7626804  23.6243207   8.7455341
 103.9439047  24.5566613   8.6266300 102.9462326  23.6007697   9.2446205
  17.2390860   4.2358977   2.7135536  16.8296974   3.6344249   3.3355400
  16.6314619   4.9734361   2.6582310  27.8553510  35.1356053  85.2826691
  27.7069426  35.9324718  85.7917976  28.3385539  35.4309416  84.5109653
  95.2545477  20.6650788  28.6083386  95.8801080  20.6701857  27.8838512
  95.7917596  20.5225093  29.3876335  53.0622482  82.3803711  79.9927616
  52.1775913  82.3466206  79.6287918  53.0824757  81.6744900  80.6389427
  30.7584405  81.0690022  71.2454987  30.8271050  81.4976120  70.3923798
  30.3412414  81.7212296  71.8083334  52.4461746  90.7321835  62.1750641
  53.3063412  91.0741520  61.9313383  51.8584919  91.4835835  62.0959330
  34.0476227  94.8746373  10.7755825  34.0559054  95.7915785  10.5010292
  33.6560101  94.8896338  11.6488812  10.4698961   4.0407378  11.7022869
   9.8830813   3.3060414  11.5231201   9.8966997   4.7275740  12.0427868
  83.0830992   0.4708154   5.4623768  83.7553913  -0.2006953   5.3469154
  82.8343914   0.4047019   6.3843414  36.0864520  61.2231398  81.5791321
  36.9485641  60.8877230  81.8250847  35.5434489  60.4407120  81.4832973
 109.7872812 108.9392330  15.1366779 110.4183323 108.6202432  15.7818481
 110.1157123 108.6130811  14.2988274  22.5485826  75.7968187  62.3826790
  22.7013469  75.5670834  61.4661026  22.3489165  76.7327929  62.3649311
  29.6510434  56.7490244  85.4327774  29.6684337  55.9388542  85.9422398
  28.9642239  57.2749424  85.8425522 117.3506416  23.4392840   7.0307514
 118.2057346  23.0360753   6.8808434 117.1795047  23.9412124   6.2338802
  41.8618393  53.6740303  73.2948399  42.8155756  53.6453056  73.2187128
  41.5547752  53.8278341  72.4013710  70.2097446  88.8458254  15.3425476
  70.2372390  88.0011775  14.8930523  69.3308336  89.1819717  15.1671764
   3.6056742  56.8783379  61.0529280   3.9346498  56.1716986  61.6085052
   3.6162701  57.6514101  61.6172647  16.4851570  48.3741903  66.7673492
  17.3234165  48.7659359  67.0124769  15.8857012  49.1169262  66.6950369
  43.9138317  76.3788366  83.6855698  43.7923670  75.9791660  84.5468140
  43.0521584  76.7298126  83.4607124  14.0819090  24.4933087  17.3774693
  14.2798489  25.3634221  17.7238342  13.3972710  24.6449429  16.7259190
  24.1635036  86.8642998  63.2189131  23.4735799  86.9104481  63.8808107
  24.3851590  87.7781010  63.0398655  43.0217981  83.4771347  78.5025644
  43.3610344  82.5864601  78.4140301  42.9707956  83.8043880  77.6044893
  46.1339378  63.2462740  79.4826603  46.3473463  63.3706427  78.5578775
  45.3210545  62.7409077  79.4750166  51.1312962  63.7151814  75.6569195
  51.5561628  63.4757519  74.8332691  50.4787397  63.0292606  75.7980442
 103.3588351  43.9388711  46.8883583 103.0623735  44.4583375  47.6356766
 102.8807701  43.1132275  46.9658348  22.1122694  58.0579853  79.7722578
  21.8526101  58.0084372  78.8522816  23.0141330  58.3779335  79.7496796
  41.1722660  74.9077368  84.3240833  40.6875467  74.5042467  83.6040306
  40.9272957  75.8324003  84.2892456   0.4834164  41.3742828  49.8713779
  -0.2502868  41.2000179  49.2818499   0.7099672  40.5169392  50.2317429
  80.3875000 101.1866428   8.8610050  81.2355596 101.2795641   9.2950508
  79.8944504 101.9616558   9.1302464  34.6502995  44.4037580  71.7517138
  33.7702537  44.0272713  71.7496777  34.5986390  45.1367855  71.1383343
  72.8364927  97.1108295  28.8489983  73.3010036  96.2744476  28.8793919
  72.1444971  96.9770862  28.2013199  23.6326235   3.2429129  38.5304901
  24.2637175   3.9017016  38.8202354  24.1703814   2.4984557  38.2606194
  32.9339123  82.2640896  80.4085445  32.3504233  81.7060947  80.9227562
  33.5424781  81.6542339  79.9914694  27.1068454  79.1180944  66.8659306
  27.5844717  79.9231958  66.6661549  27.3737264  78.8963652  67.7580309
  48.0876207  64.5729733  81.1853409  47.3490334  64.1745090  80.7249641
  48.5001993  65.1381779  80.5322361  22.1643424  66.6700125  78.8436127
  22.2355795  67.2909403  79.5686007  21.5443897  67.0778513  78.2390022
  20.6072974  45.2201796  44.3033028  20.2331972  46.0598421  44.5702267
  21.4922023  45.4351425  44.0084076  90.7324964   6.1844211  81.3039494
  91.5168602   6.2985187  80.7673073  90.7718689   5.2733951  81.5950108
  63.4921009 100.1438810  46.2676212  62.7993018 100.8043386  46.2603733
  63.0590398  99.3458177  46.5705845  53.4208727  72.3175478  89.6906948
  54.1644955  72.1015596  89.1280174  53.7700462  72.9528809  90.3157234
  28.9132524  65.2779579  90.5013847  28.2210326  64.6282339  90.6235409
  28.9100218  65.7867050  91.3121891 112.4041761  25.6200749   8.6776230
 112.0176686  25.2576215   9.4747803 112.6516713  24.8530347   8.1612656
  22.6327532  18.2501227  22.7316639  23.3479613  17.6250083  22.8497288
  22.3307675  18.4391600  23.6200878  14.4915915  83.9981842  88.8603878
  14.8458409  83.2724667  89.3742657  14.9833524  83.9729023  88.0395508
 111.4797367  21.4005191   9.0565846 111.4611519  22.2293240   9.5351002
 112.2271980  21.4826161   8.4643147  26.5146893   1.5767295   3.2925102
  25.5822914   1.6200358   3.5046074  26.8741196   2.3997742   3.6236259
  82.5260925  86.9927025  27.6201010  83.3992100  86.6103935  27.7081275
  82.6619720  87.9317570  27.7463579  16.2262314   8.9468009   3.5732815
  16.7359560   8.1425626   3.6713478  16.8315571   9.5657307   3.1649468
  57.5300694  59.2937565  86.9936562  57.7430820  58.8823748  86.1560249
  58.2820988  59.8548365  87.1830368  32.5033092  88.1158066  42.3141098
  33.3799887  88.1469250  41.9310999  32.0855737  88.9261246  42.0223665
  26.7019391  62.6668739  72.7925062  26.1766553  63.1146336  73.4556961
  27.6024032  62.9304028  72.9821062  56.5678740  83.3326530  86.0910797
  56.5704393  84.2518425  85.8240414  55.8046103  83.2515144  86.6629887
  42.2455883  63.4216070  78.4018707  41.5231705  62.8592253  78.6812735
  42.4502087  63.9497709  79.1734982  48.3081102  52.9515219  91.0877609
  48.3976173  53.5414696  90.3393078  49.1858196  52.5915337  91.2152863
  52.4486065  78.7051058  77.6867104  52.7050161  79.6210003  77.5789118
  51.6493940  78.7403965  78.2123089  38.4735203  82.7143288  80.1415443
  38.7906742  83.3878803  79.5398998  39.1418743  82.0298862  80.1086807
  99.0990652  35.8209569   1.2411758  99.7161687  35.3774125   1.8231365
  99.4465078  36.7087514   1.1554405  80.5408955  81.9495869  67.9177618
  80.9742641  81.7431450  68.7458944  81.2587452  82.1107101  67.3054266
 104.2732650 102.6158811  26.2326023 104.6440918 101.9484235  26.8098518
 104.8104173 102.5735761  25.4414532 114.9013484  13.9569051   2.3437664
 115.3638280  13.2106931   1.9623062 115.5760110  14.6273715   2.4511692
  54.1436625  74.7010946  91.1064720  54.8107815  74.8744249  91.7706585
  54.5699549  74.9164248  90.2769279  33.9861226  99.4940948  89.4414902
  34.7883272 100.0123978  89.5052433  33.4783792  99.7426128  90.2139378
  71.4253855  80.4137421  89.1416931  71.1512184  80.1382065  88.2669640
  70.6781864  80.9049225  89.4832611  77.4674589 108.6870052  21.4850971
  77.9654152 109.5001079  21.5695927  77.1796853 108.6761476  20.5722401
  95.6944925 109.1652538  24.7773621  95.7794315 110.0601007  24.4483158
  95.8252460 109.2441084  25.7223007  70.1150846  72.2171259  94.2157650
  69.2965698  72.7093029  94.1523170  70.7972336  72.8883266  94.2356205
  31.7141557  70.4374123  71.6235352  32.3472333  70.5794477  70.9197807
  31.5696859  69.4911909  71.6283703  55.6977034  69.0962410  93.5820198
  56.0011816  69.6148014  92.8368855  55.7448483  69.6961594  94.3264008
  59.1967583  66.2726212  95.2201843  59.7646666  65.9932756  94.5020771
  59.4176006  65.6849003  95.9427071  70.9254987  94.0751793   7.3159668
  70.4962785  94.1483571   6.4635345  71.3042218  94.9409296   7.4685356
  76.2595558 100.2069283  81.4215183  75.8971691  99.3289852  81.5403461
  75.9109879 100.4978943  80.5788517  62.1017790  79.5233297  75.6907654
  62.8381109  79.4969559  76.3017893  62.1130753  78.6661386  75.2649450
  87.2443676  85.5868435  92.7626419  86.6415215  85.0439072  92.2546768
  88.0537701  85.5884647  92.2516727  45.1000136  29.5068032   8.0293629
  45.3334063  29.8354298   8.8975594  44.9391096  28.5726125   8.1621620
  29.8591590  78.7897015  85.9908485  30.0016546  78.6225891  86.9225216
  29.2935205  79.5616055  85.9697437  17.9560583  12.3798663   5.6030056
  17.8521651  11.4731843   5.3142807  17.2006481  12.5390775   6.1689064
  72.8178501  79.4729710  52.2092533  72.6230574  80.4001236  52.0725727
  72.2293568  79.0137291  51.6100883  73.0420780  68.0116701  78.8736677
  72.9306650  67.5474072  79.7032928  72.4853992  68.7859964  78.9558840
 104.7473366 108.7320997  12.1231243 105.4399759 108.7232734  12.7837345
 104.9628383 108.0039360  11.5404102 106.9902647  20.3345591  14.9699375
 106.6770781  19.5695550  15.4525539 107.8151835  20.5658442  15.3968403
 106.3381279  23.0508286   5.9553692 105.8530606  22.5646884   6.6221592
 105.9096111  22.8196484   5.1312515  72.2136688  88.7705040  81.1210251
  71.8240213  87.9653549  81.4618301  72.6062489  88.5122776  80.2871037
  53.8327837  58.5761356  86.9027328  54.4679737  58.3816767  87.5919056
  54.0225935  59.4796658  86.6500759  89.1316492  66.7848684  28.3344528
  88.9971191  66.4838340  27.4358341  89.4471676  66.0112204  28.8015148
  26.0400438  43.9466095  84.7944641  26.1284161  44.8920202  84.9153614
  26.8693638  43.5864115  85.1086617  29.7871161  63.6555672  94.5298862
  29.8873210  63.0385780  93.8049603  29.9903107  63.1417656  95.3115177
  38.6547589  42.5231981  67.6548529  39.5776486  42.3188925  67.5039721
  38.6320472  43.4758282  67.7454758  10.3510349   6.1110074  19.4938538
   9.9466389   5.5641085  18.8203499   9.9978369   6.9864423  19.3354485
  17.8203982  22.9082162   9.2626736  17.8803700  23.1100089   8.3289120
  17.5982064  23.7432963   9.6743938  55.4549980 105.9014511  85.4325294
  56.0591412 105.4976940  86.0556126  55.4057169 105.2776814  84.7081661
  41.9330359  63.6839151  95.6641102  42.3208904  62.8550291  95.9447193
  41.9089270  63.6258698  94.7089767   7.0967072  30.2728421  11.4231178
   7.9589003  30.4075200  11.0297653   6.7872875  31.1547810  11.6296932
  36.5325403  74.6421242  78.2758188  36.8985653  73.8328600  78.6326838
  37.2513938  75.2722502  78.3250284  31.9221187  68.0613184  70.2565098
  31.1968875  68.2150316  69.6509981  32.0202947  67.1093655  70.2758884
 113.6869420  37.1352155   0.8569119 113.4879769  36.2973458   1.2747929
 112.8579391  37.6134927   0.8725330  36.7786407  82.0718670  90.4241467
  36.6604233  82.8134251  91.0177231  37.0186305  82.4705315  89.5876598
  85.7330799 105.5434322  93.7736511  86.3791084 104.8920345  93.5005760
  85.3364563 105.8446980  92.9562473   6.9878929   4.0103537   3.7978909
   6.7781943   4.9437672   3.8294479   7.3025196   3.8655907   2.9055473
  25.3025389  89.8116875  84.9370193  25.1689577  89.5568275  84.0240955
  24.4303060  89.7657490  85.3285980  94.5508224   5.5907874  92.2795296
  93.8444216   4.9463039  92.2362614  95.2174265   5.2561526  91.6796207
 114.9179672  85.8846188  51.1223841 114.2954673  86.5863705  51.3128519
 115.7584388  86.3311863  51.0203075  65.1303530  93.5725498  50.7987165
  64.3251467  94.0462875  51.0071468  64.9122334  92.6524639  50.9474039
  37.1923327  61.2355614  90.6409454  37.7509570  60.5006075  90.8939552
  37.1362352  61.1765289  89.6872139   7.3103588   8.5293729   2.6425812
   6.3570612   8.4477908   2.6707909   7.4670714   9.3421513   2.1619007
  41.0955667  91.0643005  56.2855053  41.7971468  91.2355995  56.9137383
  40.4385662  91.7351532  56.4713573  52.2645998  89.7796059  81.4296818
  52.3619699  89.7101212  80.4799843  52.8728437  90.4740715  81.6826344
  56.8516493  90.6884480  92.7616310  57.7302790  90.3089237  92.7757454
  56.9650269  91.5392590  92.3379612  37.3928040  18.0290038   2.7366802
  37.9677838  18.5715634   2.1969959  36.8158167  18.6542279   3.1753227
  42.3602819  66.8482876  72.8842306  42.6786232  65.9982300  73.1880379
  41.4859724  66.9269466  73.2658434  69.2252111  64.9383688  95.4773426
  69.6915960  65.0843620  96.3003826  69.4716215  64.0509510  95.2165699
  40.1641941  80.1053810  62.3526525  39.4558454  79.4629049  62.3113775
  39.8877192  80.7235813  63.0291367  50.8745050  80.8645153  93.0173492
  51.2434578  80.6673813  92.1563911  50.1750851  80.2210331  93.1312466
  23.0065775  92.6558781  70.8483076  23.3779383  91.7782307  70.7585526
  22.1525764  92.5995827  70.4196548  77.4782211  89.3094994   5.5499813
  76.9982201  89.9841835   6.0302231  78.3920247  89.4392277   5.8036778
  85.8940983  84.7026825  47.1640158  84.9799061  84.7018147  46.8803358
  86.3129330  85.3699875  46.6204071   1.8865412  38.9229256   9.4379589
   2.7636116  38.6226613   9.6763203   1.8031185  39.7779328   9.8601410
  50.1308250  80.0069904  75.6668901  50.1068354  79.0877724  75.4010057
  50.2532959  80.4896641  74.8494196  85.6393337  84.6717930  80.8519363
  85.2053261  85.3265095  80.3049183  86.5371990  84.9913311  80.9411240
  25.8705586  30.6438786  16.2471745  25.4124945  31.4824731  16.3035461
  25.8262890  30.2866895  17.1341297  46.6049242  75.9557104  83.9827538
  46.6489267  75.3953838  83.2079411  45.6773949  76.1770868  84.0658760
  52.4457932  73.2828665  83.5619736  52.8664303  72.4705315  83.8437653
  53.1337690  73.9449120  83.6299610 113.8323534   7.4112088   9.9570725
 113.2360304   7.4718720   9.2107842 114.5877207   6.9284875   9.6214649
  70.7653761  84.6413898  71.6181374  69.9886417  85.1697063  71.8019867
  70.8836555  84.7109985  70.6708241   7.6836794  18.1516558  19.4637463
   7.7097290  19.0363461  19.8282787   6.8704432  18.1241710  18.9596436
 117.6597298  43.5302502  11.2162754 117.0047487  44.0766579  11.6506455
 118.4889449  43.7810094  11.6234085  69.2506886  85.3207779  88.5937977
  68.4604454  85.1197052  89.0951252  69.1291094  86.2261772  88.3079815
  21.3800305  22.3777825   2.6199123  21.8935412  22.1183068   3.3849022
  20.5196923  21.9837434   2.7640888  37.5937867  85.0334644  71.3420343
  36.9103289  85.5312920  71.7906857  37.4827647  84.1364861  71.6572046
  38.4977072  19.7176415   8.1646130  38.9341419  19.2381007   8.8687393
  37.9087561  19.0762002   7.7672169  33.3933878  96.1491108  75.3980112
  33.1896806  95.2202320  75.5071974  33.8521647  96.1967278  74.5592690
  48.3739090  95.2828503  75.3333712  48.5970926  95.9830666  75.9466553
  49.1893768  95.1064396  74.8642015  49.1596556  53.6898327  85.9165096
  50.1032495  53.5321856  85.9482098  48.9278269  53.9365530  86.8118382
  65.6029987  84.9477196  48.5152960  65.4017448  85.0570869  47.5859022
  66.2172842  85.6549168  48.7121677  59.0225458  72.5839138  80.2888870
  59.5472193  72.7393723  79.5035362  58.7306976  73.4548378  80.5582333
  54.4153547  74.5212317  62.6174402  54.3136406  73.6974716  62.1406746
  53.5573244  74.9410439  62.5560045  84.6127319 110.7899857  64.0118027
  84.3614960 110.6569767  63.0977869  84.7150993 111.7379093  64.0965509
  48.1516027 103.4012794  76.1125755  47.7180195 104.0566254  76.6591644
  49.0226984 103.7632751  75.9501266   0.3733403  42.9385376  95.4996300
   0.7418047  42.9419756  94.6162033   0.8861342  43.5918093  95.9755611
  42.5783348  68.8893175  94.8153305  42.8651142  68.4043741  94.0415001
  43.2985544  68.7935829  95.4385090   1.4312523   1.4222104  20.4252026
   1.7995899   2.2862727  20.6094715   1.4009827   1.3735396  19.4697258
  16.3442057   0.2699382   1.7211792  17.2671097   0.3171450   1.9706795
  16.0507696   1.1810309   1.7153236  65.0307560 107.0343781  88.3565712
  64.2385054 106.8058109  87.8704357  64.8764181 107.9293728  88.6588860
  40.6877899  87.6978874  89.9159050  40.9229469  88.2105160  90.6893063
  40.5571175  88.3496666  89.2271900  38.7408113  65.5993414  71.5991926
  38.3930969  65.0349998  70.9086561  39.6049595  65.2360964  71.7929268
  80.4223633  98.1599236  74.8831606  81.1539841  98.6284924  74.4814157
  80.3026104  97.3858738  74.3329382  30.8926743  63.2029397  27.5722382
  31.6260737  63.4524400  28.1344769  30.3335636  63.9795358  27.5491783
  64.6142435  76.0554171  80.9130955  63.9046860  76.6276932  81.2051010
  64.5967579  76.1203289  79.9582577  34.5224905  77.3291492  88.3061600
  35.3976703  77.3221970  88.6937714  33.9744186  77.7632189  88.9599419
  19.9218643  72.2616577  74.9471045  20.5364633  72.1567154  75.6733894
  19.0585232  72.1561050  75.3467703  47.4436522  70.7737827  90.8836174
  47.7032661  70.1612711  90.1953793  48.1723738  71.3917065  90.9416771
  15.9203404  40.1982743  16.3674042  15.7375258  39.5971925  15.6452438
  16.1374443  39.6277863  17.1047375  87.8132153  74.8310661  85.3113365
  87.8269291  75.7844925  85.2274895  88.3633041  74.5194960  84.5926094
  24.6225524  49.1966486  67.6747084  24.3737411  48.2897425  67.4962330
  25.5796909  49.1862392  67.6778126  -0.0360734  50.2029473   5.7749245
  -0.6257755  50.5458314   6.4464256   0.8280342  50.2143533   6.1865303
   4.0508261  64.2998075  87.8329277   4.2647186  64.7607088  88.6441326
   3.0941612  64.3024683  87.8010464   7.0947474  23.8681514  16.5045521
   7.6546496  23.1085259  16.6649029   7.7028006  24.6046311  16.4405510
  70.3655005  75.2121496  53.9192629  70.3245306  75.7798481  54.6888542
  69.9892378  75.7379723  53.2134533  18.7424648  78.6772490  76.6210747
  18.8434815  77.8171587  76.2133074  19.0764415  79.2925167  75.9682798
  71.7118502  91.8040371  61.3948679  71.4309072  92.6443291  61.7570972
  71.2979364  91.1500359  61.9580603  62.9685450  74.4192934  95.8598042
  62.2901726  74.8642445  95.3518009  62.5292444  74.1584349  96.6692448
  89.0439224  94.3871975  79.9821281  89.1423607  94.6180248  80.9058475
  88.1620026  94.6814251  79.7543907  11.5402287  16.7292554   9.1074345
  11.4893788  17.6845605   9.0751812  11.0093420  16.4360101   8.3668873
  16.5561545  62.1996975  85.7939053  17.2092283  62.2048569  86.4936924
  15.7505035  61.9075823  86.2203121  96.8805790  84.1666317  79.5401096
  96.4005375  84.9084854  79.9081421  97.5413609  84.5659065  78.9742613
  47.6389790  85.1611805  94.6693039  47.8493500  84.9838829  93.7524891
  47.6864672  84.3055344  95.0957394  73.0327892 106.2286282  71.4011574
  73.4460926 107.0895195  71.4666653  72.3801804 106.3283730  70.7080650
  33.2895470  39.9762869  65.5741215  33.4610271  40.7895517  66.0489130
  32.3352098  39.9286294  65.5175638  33.5537362  62.0293188  85.3043270
  33.5106349  62.3831987  84.4159794  32.6811957  61.6682291  85.4608917
  55.2804947  58.4790945  93.5345078  55.4095221  59.0067339  94.3226624
  56.0594511  57.9248285  93.4871674  46.5693569  99.6369362  71.1834812
  45.8554983  99.0395927  70.9602833  46.4350033  99.8349953  72.1102810
  53.2113409  72.7267027  72.9251528  53.9897919  73.1196404  72.5303793
  53.2861185  71.7937183  72.7247000  23.6284924  66.0665655  85.5904007
  24.2511630  66.1984301  84.8754787  24.0664768  65.4519606  86.1791801
  15.4737395   6.4679248  10.7565472  15.8847969   5.6416280  11.0105106
  14.5420616   6.3357980  10.9319183  53.9973021  71.9766378  61.4260149
  54.8470545  72.1530771  61.0222578  53.9535046  71.0222387  61.4845896
  65.5762100 107.9336262  62.8249264  66.4695597 108.0378628  62.4973822
  65.2524090 108.8286400  62.9265547  53.0757856  66.2637424  78.3788395
  53.9820051  66.1423492  78.0955410  53.0964851  66.1046076  79.3224907
  74.0788364  66.3313770  77.2702694  74.5635033  66.9688177  76.7458630
  73.5422182  66.8632221  77.8579855 107.7773846  16.1228043   6.3874313
 108.2656182  15.4866702   6.9101116 107.6814950  15.7059962   5.5310890
  67.6801491  88.7358284  86.1533928  68.2415962  88.4496689  86.8738937
  67.5224209  89.6639061  86.3267040  73.8415480  84.3114471  76.8383837
  74.0274811  84.1892815  75.9073973  73.0348635  83.8184547  76.9882202
  11.4515131  24.3868787   3.0790112  10.9837263  23.7604625   3.6312840
  11.3366431  25.2282006   3.5208485  61.1090088  36.3019133  82.1957779
  61.9181776  36.1494255  82.6838589  60.5993271  36.8887758  82.7543831
  37.0421982  60.5808163  87.8730488  36.9322801  59.6409464  88.0172539
  36.7308664  60.7240248  86.9792938   5.5932253  11.0759456   1.2056706
   5.9598797  11.5970856   0.4913876   5.9581488  11.4671761   1.9994041
  94.9415697  17.7117688   0.0178120  94.5871712  17.9975421   0.8598110
  94.4257570  18.1876761  -0.6330994  45.2358263  24.7009427   1.9448540
  45.6892222  25.3437383   1.3994476  45.6508940  23.8664491   1.7267487
  58.7725752   7.7805478   7.2042629  58.2998675   6.9492394   7.2455284
  59.5968168   7.5659520   6.7674419  16.1144364  76.0745907  87.8511143
  15.6640947  75.4477406  88.4172249  16.8413973  75.5783463  87.4749565
  18.8386416  80.0972271  66.2028742  18.7001407  79.2445660  66.6152000
  19.7038758  80.3722286  66.5061569  79.0505791  66.9051790  92.9987526
  78.2399035  67.3305511  93.2782173  78.8487530  66.5504217  92.1329308
   8.2231539  39.2221696   2.2770569   7.6242464  38.9423997   2.9693481
   8.6965864  39.9632985   2.6549789  78.7614441  82.2641659  89.0437984
  78.0352688  82.7660275  88.6736202  79.0596008  81.7079258  88.3241177
  37.4035805  14.4429881   8.3948299  37.5796335  15.0039298   9.1501972
  38.2702130  14.1833216   8.0821678  50.4856491 106.6092873  67.0340681
  51.1179113 107.2864246  67.2748137  49.8288536 107.0697021  66.5116978
  55.0202179  77.6504564  65.8561945  54.9821806  77.2456980  66.7227697
  55.6303978  78.3806896  65.9594965  12.8683162  64.5145559  69.9475098
  13.2597387  64.7177887  69.0979719  12.0259941  64.1134930  69.7333336
 116.8393430  61.0631990  79.7072554 116.0376014  60.5816889  79.5033169
 116.5349293  61.8712330  80.1203442  68.2169676  81.4551640  64.9534512
  67.7446651  80.6229496  64.9778271  69.1152096  81.2142277  64.7268534
  19.1361778  13.2425982   0.0791428  19.6174591  12.8267867  -0.6361988
  19.8071736  13.7020785   0.5839893  28.2544136  95.7555485  81.1163139
  28.8192320  95.7000065  81.8871117  27.7459908  94.9447155  81.1330032
  33.3121937   9.6086270  22.2538349  32.5962466   9.1665417  21.7975304
  33.1907337  10.5356604  22.0486900  43.1383944  87.8897953  87.3744488
  43.2263231  88.8395596  87.4547768  44.0026903  87.5924301  87.0901966
  41.4531612  71.5959406  73.2916021  42.0837831  71.5132952  72.5762558
  40.6095314  71.3821745  72.8930759  95.6753349  76.1833477  81.7086697
  95.7799339  75.7269478  80.8738136  96.2159061  76.9685030  81.6217804
  75.2826595  81.0632801  47.5682592  75.6734037  80.6585503  48.3426905
  74.7823572  81.8036079  47.9115534  40.3216171  68.9352608  83.5403728
  40.3276539  68.0329084  83.8596725  39.4534087  69.2653561  83.7716293
  18.8327777  73.2416248  56.2643576  19.5369112  73.8461065  56.4989519
  18.2276464  73.2798004  57.0050287 106.1106235  88.8136031  57.7051231
 105.3514177  89.0706374  57.1818993 106.1848671  89.4969632  58.3712647
  29.0819329  20.2993495  27.6560566  29.5390433  19.6051080  27.1813843
  28.3893555  19.8453433  28.1361076  52.7167368  80.0296688  58.5821486
  53.2497549  79.2488718  58.4322357  52.8554869  80.2407551  59.5054150
  24.2776411  40.5505521  14.8447201  23.9344185  40.3077466  13.9848015
  24.7765225  39.7845132  15.1285049 105.7202244  40.7526493  83.6036396
 106.4971542  41.2299490  83.8948250 106.0630226  39.9365282  83.2394028
  28.2909656  50.8650970  86.5594387  27.4048424  50.7570219  86.2139893
  28.8241696  50.2591038  86.0449600  26.8595808  12.2088534   4.1818401
  27.7139729  11.7826516   4.1140244  26.6765755  12.5209100   3.2956287
  20.8764952  28.0106217   2.6743958  21.1191242  27.0846803   2.6760647
  20.2987211  28.1054551   1.9171497  53.3045149  82.3799706  92.0833302
  52.7309561  82.6092815  92.8145504  52.8558922  81.6571522  91.6445827
  39.1862512  69.7852278  93.6761665  39.3040967  68.8716888  93.4158039
  40.0488281  70.1820469  93.5547924  52.4548340  71.8016577  69.3074894
  51.8679905  72.3967552  69.7740793  53.2672882  71.8210745  69.8132277
  43.7492561  66.7119741  93.1172752  44.6779013  66.9437456  93.1286240
  43.5863686  66.3331795  93.9811134  20.2665401  52.5540876  73.2487345
  21.0317183  52.8182650  73.7595654  20.6272435  52.0445490  72.5231361
  18.4750140  50.0168610  77.8688383  18.2025528  49.6981430  78.7293148
  17.8568637  50.7192230  77.6668262  27.2285288  38.5223157  23.2702324
  27.9359024  37.9323918  23.0097744  26.4892739  37.9429776  23.4549114
 106.0346902   5.3741891  15.4005978 105.5951966   6.0505444  14.8852131
 106.9401468   5.3872306  15.0904247  99.7967518  28.9038808   5.4699680
  99.5782913  29.6225411   6.0632965  99.1011013  28.2607037   5.6064770
  23.3160448  61.8586969  73.4864330  23.9507699  62.5733328  73.5379267
  22.4691653  62.2963190  73.3997345  66.0462570  87.1280003  72.2423458
  65.3362083  86.8645287  72.8277063  65.9822321  88.0822277  72.2025204
  29.8194473  61.3944680   9.0520737  30.2294605  61.2694794   8.1962177
  29.4471853  62.2754533   9.0129540  57.1583891  90.7146931  87.1057987
  56.4323378  90.3304195  86.6144562  56.7414951  91.1430359  87.8534317
  27.5144833  32.6444108   2.6552746  28.2496041  32.9504639   3.1864616
  27.0479744  33.4431512   2.4090740  17.4535197  34.4736535  16.2708828
  16.6728228  34.9693543  16.0238430  17.1313542  33.5884721  16.4408657
  29.0797853  91.9654846  82.6016998  29.4300175  92.3092747  83.4235096
  28.4485364  91.2981892  82.8708935  28.4847641  91.3068390  69.9821281
  28.2927847  92.1126938  70.4616785  28.8358474  90.7117653  70.6445932
  65.2755117  96.7551804  69.0031815  65.1509762  95.8087063  69.0733004
  64.4875956  97.0681572  68.5588121   6.7188996  76.7422730   9.9160931
   6.4725750  75.8693272  10.2219078   7.6659029  76.6921384   9.7860882
  50.5786943  92.8713799  82.0862103  50.3296232  93.6136341  82.6368904
  50.9290695  92.2251987  82.6993275  72.5407505  93.9856529  53.8081312
  72.9748058  93.7586594  52.9857540  73.2524014  94.0484428  54.4451904
  63.5413790  88.5479450  84.9193954  63.0747700  87.8251743  85.3390408
  63.0867290  88.6751938  84.0867233  18.0817734   9.2809444  84.4532490
  18.6094605   8.4947162  84.5932865  17.8743588   9.2669063  83.5188961
  71.2724543  69.7662783  79.9410295  70.4431057  70.2109194  80.1162529
  71.5729237  69.4722223  80.8009624  72.8593302  83.0123520  96.6114616
  72.7154779  82.8783798  95.6746674  73.6800337  82.5553989  96.7955208
 104.2835075  10.1584869  94.3495083 103.6685878   9.8312907  93.6929607
 105.1011831  10.2870898  93.8687706  90.6255436  91.2559509  84.0603638
  89.7456741  90.9251690  84.2410660  90.7998848  91.8733597  84.7707462
  19.0586537  39.1966874  37.9661152  18.4241360  38.7967068  38.5607883
  19.4345730  39.9198300  38.4680912  67.9614019  78.9227104  68.2258129
  67.3344231  79.6394968  68.1290960  67.4330330  78.1291533  68.1402493
  82.4263382  83.9788437  54.3061733  82.6844406  84.4738770  55.0837088
  83.1033421  84.1783428  53.6595726  84.1702461  95.0528049  95.3676891
  84.9348068  95.4643917  94.9648476  84.5192432  94.5974541  96.1339092
  52.6152802  75.5963945  73.2014942  52.7301788  75.8973265  74.1028643
  52.5786352  74.6423769  73.2703304  89.5480728  99.3723392  88.8391590
  90.5000019  99.3764687  88.9393997  89.3576050 100.1591015  88.3283234
  22.6248741  84.9091148  89.7495842  23.5641360  84.7412491  89.8259830
  22.4687028  85.6610489  90.3209305  11.6117924  47.5096566   8.8950417
  11.4143961  46.8104703   8.2718250  12.3622483  47.9654462   8.5138580
  71.5439749  70.9465408  96.3500690  70.9320593  70.9268427  95.6142712
  71.7371273  71.8755341  96.4761448  34.3508625 100.1888084  71.5437365
  33.7371397  99.5523643  71.9105053  33.7986875 100.8017731  71.0583496
 114.1036970  26.2799125  80.8483696 114.2694885  25.3474765  80.7093906
 114.3498117  26.4335876  81.7605305  16.8061417  40.0737244   8.6074326
  15.8904904  39.9555642   8.3547375  17.3051851  39.7567708   7.8546211
  94.7559244   6.3107543  54.7621250  95.3574783   6.7517715  55.3620148
  93.9996225   6.8950420  54.7088051  99.4019586  17.2550540  65.2277231
  98.5501367  17.6693111  65.3656530  99.3968136  16.9980388  64.3056917
  82.1158695  94.9204063  88.2417583  81.7554760  95.5847740  87.6544285
  81.7440414  94.0961170  87.9278564  46.1819315  86.6083717  83.0614662
  46.5143490  86.0023403  83.7236214  46.8743467  87.2623730  82.9661846
  47.4488592  87.9816437  72.4713802  47.4395370  87.8638458  73.4212589
  47.0516729  87.1817493  72.1269274  72.2172004 105.2984811  14.9268314
  71.6880662 105.7943823  15.5515930  72.9807836 105.0164463  15.4304478
  20.9000557  10.4403645  20.8841297  20.4192942  11.0666568  20.3429672
  20.5201452   9.5904214  20.6616375  10.0132882  11.8468909  73.8889551
  10.8265053  11.9903426  74.3730354  10.1701581  12.2464805  73.0334139
  18.4593123   9.4289071  18.6211369  17.8330343   8.8989980  19.1142914
  19.0758389   8.7938077  18.2567665  21.7279833  40.3885514   4.1534779
  21.1584538  39.7136742   4.5228169  22.5517195  39.9351079   3.9743969
 115.9043724   6.4545016  85.3671932 115.6791765   5.7703261  84.7367859
 116.6270286   6.9296603  84.9570370  73.6208773  89.5485497  68.1117487
  73.5381889  88.6019039  68.2268858  74.0933657  89.6489525  67.2853661
 104.0312225  14.5918422  67.5120592 103.7973387  15.1987510  66.8097830
 103.9834434  13.7262015  67.1063280  84.5329571  76.5792751  93.4072590
  84.0456104  77.2508383  92.9300499  84.8982143  76.0173368  92.7238560
  82.4895191  98.2711315  78.3178711  81.8429565  98.9204979  78.0412579
  82.5491238  98.3816528  79.2668009  25.4615021  71.0272694  83.4958649
  24.9111342  71.7626476  83.2265282  26.3332605  71.2477779  83.1677818
 108.7187780  11.2516600  14.7063610 107.9721464  11.7593724  15.0241730
 108.6108149  11.2366063  13.7553856 113.3219422  32.4201447  10.7937977
 113.3668030  31.5421159  11.1723206 113.0078543  32.2800977   9.9005005
  42.3140478  80.2019691  95.7096100  41.5860701  79.6593142  96.0125923
  43.0967712  79.7517633  96.0272408  30.5001372  20.5335337   8.9357731
  30.5787295  21.0890681   9.7112915  29.6106594  20.1828677   8.9814827
  10.7674044  51.1491067   3.5087177  10.7231682  51.8020303   4.2072651
  11.5240067  50.6079060   3.7342903  62.8148859  39.6518285  16.8065807
  62.9229468  38.7151105  16.6418812  62.5117987  39.7022111  17.7131245
  40.6620234  49.0750367  17.1540234  40.4457300  49.8698766  17.6415512
  41.5982931  48.9475686  17.3069641  28.3236998  55.1770169   1.4494011
  28.9799612  55.7873017   1.7857239  27.6220864  55.7379968   1.1188480
  83.6758804  70.6160450  94.6303368  84.1938019  70.7095861  93.8308144
  82.7683353  70.5951023  94.3267441  35.6457710  72.0657158  96.4609432
  35.0902939  72.7000761  96.0078812  36.2462997  72.6007891  96.9798756
  33.5031033  87.7621365  67.9229164  33.5663080  88.5324287  68.4876060
  33.7874150  87.0351028  68.4768391  73.1138039  99.7336578  70.4172182
  73.1942081 100.6469345  70.1420832  73.6734962  99.2502689  69.8095036
  66.8136787  85.1007462  89.9790192  66.2617064  85.8822155  90.0082874
  66.8724155  84.8147202  90.8905983  76.1068106 105.3967667  95.9340858
  76.7041206 104.9126053  96.5042019  75.4414845 105.7470131  96.5264511
   5.2468746   1.9343907   3.3766624   5.8832663   2.5813920   3.6809990
   4.6528309   1.8157393   4.1177914  56.3358545  69.9729776  90.8193207
  55.9530592  69.1023207  90.7113743  56.6865349  70.1892281  89.9553204
  45.6284523  90.5718136  65.1063013  46.4835167  90.7250023  64.7042704
  45.7238674  90.8944225  66.0024309  70.1243162  88.3691502  66.5071964
  69.6276665  87.5856781  66.2711048  70.9215403  88.0330086  66.9166803
  64.1711157  47.3308713  11.1079094  64.0213125  48.1565148  11.5684578
  64.6403807  46.7859513  11.7396328  81.2249851  76.7521811  81.0734653
  81.0123539  77.3495483  81.7905235  82.1795750  76.6843319  81.0933399
  93.7205410  66.6418362  33.3534098  93.0792522  66.2728786  33.9607382
  94.4704628  66.0494947  33.4079218  43.6414862  94.4133377  80.3112698
  43.1238890  95.1874256  80.0896645  43.3127356  93.7300968  79.7270298
  95.2919483  77.9968119  73.4787560  96.1838150  77.6720190  73.3549595
  95.3559113  78.5943127  74.2238235 115.3768045  13.7413840  45.4813051
 114.7887022  14.4596152  45.2478361 115.2663118  13.1027370  44.7769165
  79.7370052  93.1795025  77.0734024  79.9453497  94.1074944  77.1813965
  80.5869675  92.7553272  76.9556475  95.5335999  90.3526020  57.7134848
  95.8672810  89.4595623  57.7993679  96.3037491  90.8756828  57.4910164
 105.5386246  28.9888341   0.5861828 105.5465926  29.0590150   1.5407726
 106.1468519  29.6664960   0.2911160  44.0102386  69.2357397  77.9428005
  43.1225252  69.2363358  77.5847483  43.8917446  69.4065332  78.8771582
  71.9622040  96.0609055  66.2074661  71.4340878  95.2874851  66.4053297
  71.6279316  96.7365074  66.7974329  96.8371964  95.4469490  75.9697104
  96.3761902  94.6130180  76.0606146  96.2654114  95.9774780  75.4148912
  30.6946503  10.4674583  61.3283730  30.6922471  10.5376201  60.3737497
  31.5667187  10.7645087  61.5881681  78.5153151 102.7791691  80.0832748
  79.3179178 102.9948997  79.6083832  78.7212467 101.9662476  80.5447865
  63.4399509  91.0178185  80.6268692  63.0310774  90.1525688  80.6067753
  63.9773321  91.0472202  79.8352909 113.2241726  97.8399372  73.7250185
 114.0644932  97.4364376  73.5075855 112.5760269  97.3055840  73.2661057
  93.9516354  93.5068703  83.1893444  93.5943890  92.6207638  83.2479000
  94.8948956  93.3929920  83.3056164  33.5161400  82.2877026  60.4098082
  32.7074432  81.8066978  60.5855322  33.5491729  82.9581070  61.0922337
 106.9876231  35.5992657   4.6924564 107.1199048  35.3768880   5.6140205
 107.8704728  35.6268365   4.3236038  82.8233129   3.5369735  80.0938988
  82.8301603   4.3478065  80.6025505  82.4593145   3.7895827  79.2454100
  75.7280731  75.1541281  63.9031649  76.6840267  75.1157236  63.9332533
  75.4428577  74.5830488  64.6164322  49.1225386  92.5856400  85.1719952
  49.4299746  91.9097614  84.5679092  48.1679678  92.5315380  85.1262283
  58.6434126  76.0577965  57.5378084  58.8980103  75.2326250  57.1248913
  57.7333355  75.9226847  57.8018951  47.6880550  89.3319702  55.6570768
  46.9637060  89.3785858  55.0330734  47.7952814  88.3966732  55.8301401
  77.7609045  13.4076362  84.5383835  77.5665981  13.5961967  83.6202717
  78.5895449  12.9290824  84.5144367  61.7697334  93.1190300  72.5033951
  61.9114113  92.7268982  73.3650208  60.9799957  93.6495686  72.6086235
 104.8534549  37.7553517   3.9886639 105.4180706  37.0002991   4.1540215
 104.8721112  37.8647191   3.0379173   8.4851950  32.0993287  17.4064133
   7.8842467  32.2491128  18.1362507   8.4958761  31.1485535  17.2962162
  60.3923512  79.4937086  79.8337889  60.0059795  79.4157743  78.9615107
  60.0841141  80.3401184  80.1575279  49.6620464 102.5794125  68.0913162
  49.1463900 102.3030853  67.3337030  49.0529537 102.5264168  68.8278151
  80.3509045 102.7393246  64.9743414  81.2961674 102.8885174  64.9528456
  80.1723576 102.4634075  65.8733511  27.5016379  91.2019444  65.2868986
  27.1246314  90.7276249  66.0279226  26.8351078  91.1454201  64.6022272
  91.8992693   1.6589503  83.5688114  91.5036709   2.5105815  83.3832073
  91.2252361   1.1822181  84.0532112  72.0286226  95.0987911  92.4586105
  72.6155806  95.7440281  92.0644188  72.4501896  94.8652363  93.2856369
  46.2924337  74.7874403  65.1497364  47.2405481  74.7037506  65.0482273
  46.0026169  73.9160442  65.4197598   9.0072315  44.4451768   7.1405956
   9.1863173  44.9581868   6.3525841   9.6723002  43.7567860   7.1345303
  45.8033371  99.9922276  82.7456093  45.3424025 100.8308983  82.7256489
  45.2425241  99.4231892  83.2727909  65.0290346 108.6345100  47.5052404
  65.3732586 108.1845570  46.7336941  65.6494474 109.3458652  47.6643276
  62.4859619  85.3088474  80.2160931  62.6791859  84.4839287  79.7706699
  61.6150999  85.5523014  79.9021387  98.3724403  76.4270544  88.2721519
  97.7342415  75.7883453  87.9543781  98.5331535  76.1732435  89.1809845
  96.4823818  88.1575871  78.8909626  97.2740078  88.5995007  78.5839319
  95.8457375  88.2914257  78.1888247  40.8778191  63.8792849  71.7465496
  41.4187050  63.8333893  72.5349426  40.5557919  62.9861546  71.6246891
  61.2899017  82.0886326  92.7249622  62.0653677  82.5716782  92.4393845
  61.3165236  82.1362686  93.6806107  24.7043419 101.9090271  68.9263058
  25.3897333 102.2779465  68.3692026  23.9088964 102.3742104  68.6672592
  43.8154221  84.0550709  82.8039074  44.1929054  84.5457745  82.0738792
  43.1733894  83.4742928  82.3955822  43.4992790  70.6746769  57.3521900
  42.9027271  71.0999346  57.9682398  42.9611111  70.0154543  56.9139719
  53.7938786  95.5461597  89.0303135  53.2768154  95.5189228  88.2252502
  53.4942532  96.3357735  89.4808102  56.1188459  87.3362350  69.3620205
  56.6676426  86.5541935  69.4209051  55.9257412  87.4236012  68.4285831
 115.7562412  38.1486661  12.8135845 114.8202790  38.3404023  12.7548859
 115.7970727  37.2618253  13.1714699 106.3934881  11.3000445  89.8364162
 105.9803659  10.9990459  89.0271187 106.0330135  10.7300811  90.5156994
  63.7656975  80.3726959  58.7221909  64.2713642  81.1623573  58.9144516
  63.8610792  80.2512836  57.7775240  72.1025515  85.5891895  94.3527222
  71.2880898  85.1675987  94.6268463  72.0301056  86.4857674  94.6800327
  72.0508289  90.8698559  74.5892239  71.9973135  91.6927528  75.0752354
  71.3491678  90.9285927  73.9408016  12.6987808   6.0809047  24.2161724
  13.2113522   5.9119899  23.4256146  13.1624716   6.7945058  24.6543476
  19.6174561   3.8519530  61.4160109  19.5610272   3.1961589  62.1109772
  19.2171990   4.6354823  61.7929840  72.5134182  75.8752823  74.4028330
  72.7219677  75.0090170  74.0530968  72.1948862  75.7053471  75.2893400
  37.0558470  17.5657279  10.6848309  36.5772646  17.8796822   9.9176094
  37.9255264  17.9567391  10.6011555  61.6254520 100.2804947  73.2274437
  62.3118687  99.6412945  73.4184742  60.8449602  99.9290657  73.6558771
  52.1621084  93.1171703  72.7404547  51.5848637  92.3731613  72.5687885
  52.3762655  93.4594154  71.8725634  77.9598951  78.9660025  85.5412006
  78.8669300  78.8088846  85.2788448  77.8929663  78.5802555  86.4146709
  34.7641802  84.4220066  89.6305084  35.6924129  84.3422031  89.4108582
  34.7247243  85.1593208  90.2396393  84.8175240  83.9869308  83.5011387
  85.1268291  83.9688873  82.5954723  85.2928257  84.7146320  83.9021111
  55.3810692  83.6178970  76.2645626  56.1092234  83.2538223  75.7611036
  55.5325317  84.5629978  76.2555599  83.7477875 102.3190212  83.4194088
  83.5988140 102.6019669  84.3216228  82.8802586 102.3401070  83.0154514
  72.9951334  64.5537186  58.3103228  72.9871416  65.4325628  58.6895370
  73.3569908  64.6749258  57.4324846   7.0255106  59.7763497   0.8736393
   7.7171534  60.0706155   1.4663193   7.4842041  59.2711980   0.2023384
  44.6276491  27.5221211  17.2486279  44.3567770  27.6721913  18.1543610
  43.8115996  27.5391633  16.7486355  70.4198694  72.0711422  75.2054071
  70.2068186  71.1841011  75.4952383  70.2077436  72.6258326  75.9561062
  52.4306965 106.3346100  89.2965221  52.1775198 105.9183216  88.4726048
  52.2933006 105.6575871  89.9590778  30.9036255  88.2228661  90.7212162
  31.3048768  89.0916061  90.6985188  31.5403199  87.6769447  91.1825371
 110.7890875   6.2713866  50.9354305 109.9609882   6.1544852  51.4010715
 110.7778770   5.5989318  50.2543211  49.0384674  98.8088322  87.2745228
  49.0720987  99.3102169  88.0892086  48.1154680  98.5757256  87.1746731
   4.3799942  35.4338128  10.2978012   5.1098555  34.8844678  10.5837128
   3.6821669  34.8138005  10.0860188  42.3381948  90.7050991  68.4684420
  42.0066118  91.2354374  69.1930246  43.2876778  90.7008171  68.5896730
  77.4071771  13.3565860  72.1096754  77.9766351  13.4832530  72.8685570
  77.1540314  14.2423396  71.8496847  55.0919741  56.0586507   2.7105877
  54.3592375  56.1810357   3.3142063  55.1936453  56.9084317   2.2819016
 111.2706173  37.8409249  30.2173492 112.1179498  37.4146420  30.3459999
 111.0376538  37.6419885  29.3104908  76.5217686  75.3610420  60.4928207
  76.6556787  75.0533772  61.3892841  77.3583698  75.7563782  60.2477932
  96.7680168  62.6307869  80.2505970  96.2105942  63.3777666  80.0325775
  97.1597195  62.3726559  79.4162273  95.1606846  70.2222013  54.6935415
  94.3964672  69.9467421  54.1872501  94.9949741  71.1430740  54.8954678
 115.7762129   9.4171863  74.4651270 115.6045896   9.9064403  75.2697420
 115.3538019   8.5697608  74.6053839  98.6884785  71.8953514  46.9688320
  99.2262459  72.6283741  47.2683668  97.7876282  72.2046566  47.0638275
  21.3393927  82.6955223  93.0075264  20.8322859  83.5059166  92.9592419
  21.4640403  82.4362278  92.0945835  83.8991070  65.7979870  82.5450420
  84.4749451  66.3254070  81.9914436  84.4175053  65.0224352  82.7595234
 109.2219103  16.2829596  15.3398582 108.3884633  16.0321910  14.9414703
 109.4036807  15.5880029  15.9724972  46.6260958  72.1520615  86.1936474
  47.1049738  72.9317379  85.9125614  46.0061932  72.4745941  86.8478107
  43.5221148  81.8075466  68.9620543  42.8583336  81.9223213  68.2820129
  44.3530703  81.9697952  68.5154772 101.2124538  73.4014750  77.8708220
 100.6369019  72.8953934  77.2973633 101.4917374  74.1439247  77.3350954
  51.2163561  41.4412457  27.8523228  51.0424345  41.5117604  26.9136974
  50.3665751  41.2283952  28.2380459  46.5033644  47.1380669  24.2894909
  46.0999983  46.5246064  24.9036572  47.4315756  47.1354920  24.5232555
  56.6443300 106.6597652  91.3754082  56.3071394 106.9309139  90.5215836
  56.5644836 105.7059002  91.3725281  82.4855119  29.8397784  78.8849926
  83.2214243  29.3161826  79.2020273  81.9704897  29.2322688  78.3540249
  95.1878769   5.8868270  64.2847109  95.1314098   5.1502185  64.8933601
  94.3640405   5.8591609  63.7981319 101.8527300  10.6657844  82.4833870
 102.0770818  11.2367587  83.2181644 102.6890976  10.4907374  82.0520210
  70.0456142 110.9739208  72.8508377  70.0874233 110.4575443  72.0459557
  70.9174252 111.3604927  72.9329586  47.6549101  84.8894882  74.2252779
  48.1096077  84.6175957  75.0224924  48.3533239  85.0199604  73.5838509
  49.6488302  55.5868871   6.3815567  49.1419905  54.8234803   6.6582272
  50.1689928  55.8204896   7.1503803  32.3538655  55.1493794   4.7022793
  32.0662230  54.2367894   4.7283051  32.0371264  55.4764230   3.8602802
  18.8255661  72.4917752   8.9276955  18.9736574  73.4016568   8.6699841
  17.9570215  72.4951226   9.3300030  10.3505200  50.6710297  11.9035313
  10.6086367  49.9026353  12.4126312   9.8183220  50.3181512  11.1904499
  50.0060671  26.5511472  40.2050278  50.8788031  26.9055802  40.3751156
  49.6516627  26.3602120  41.0734627 117.7748669  27.1944863   1.8365261
 117.5096000  27.4759251   2.7121136 117.8790821  28.0088956   1.3444874
  21.2672394  60.1102979   3.2605431  20.7412451  60.1596696   4.0587494
  20.8738392  60.7564885   2.6741192   2.1381318  26.5021186  72.7396059
   1.8379151  27.2239261  72.1872520   2.0757233  26.8417125  73.6323595
  49.8445845  91.3334465  92.7441406  50.7420158  91.6450024  92.8615189
  49.8995876  90.3876591  92.8808498  63.1511736  78.8738680  70.4775858
  63.3205366  78.3964396  69.6654224  62.3804760  78.4460068  70.8506727
  61.7255545  85.5998516  93.2207775  62.0477772  85.6734371  92.3224545
  61.0621977  86.2859917  93.2942486  68.9224291 110.0059414  69.3823576
  68.4853888 109.3577576  69.9347067  69.1154146 109.5374775  68.5702419
  97.2564316  92.2327900  77.3468494  97.4309158  92.3924065  78.2743835
  96.5130234  92.7998734  77.1419334   2.2889077   0.0056701  82.7537823
   3.1488549  -0.3401513  82.5147629   2.4679410   0.8867126  83.0823421
  52.8160524 103.9691162  80.4048920  52.5478315 103.0583477  80.5264759
  52.0090771 104.4271088  80.1698017  38.8897324  76.7860842  81.6228104
  38.4804392  76.1782932  82.2386837  39.3809366  77.3932743  82.1762276
  38.0183315  72.8131151  94.8784733  37.2949886  72.1999454  95.0089836
  38.5964632  72.6642561  95.6266975 114.3528682   7.2596507  74.4271135
 114.4822199   6.4562564  74.9311590 113.9537317   6.9667678  73.6078787
  90.5747509  80.6992245  90.4757881  90.0043583  80.7945156  89.7130299
  90.9887791  79.8440170  90.3599167  44.3342924  95.8376789  77.1135235
  43.6375284  95.5706120  77.7130508  43.8810921  96.3085842  76.4141798
  58.4911776  87.5911331  87.1443558  58.3568764  88.5388279  87.1357822
  59.4267559  87.4833488  87.3155499  63.4015989  74.2852926  86.1124992
  63.9910603  74.8702145  85.6364441  62.9253578  74.8605680  86.7112350
  66.7558479  97.5770378  82.6601410  66.0587358  98.2178974  82.7999973
  67.1703577  97.8488922  81.8412971  19.4003075  26.4588887   8.9341900
  19.8423260  26.6496522   9.7615120  19.7400349  27.1139581   8.3245251
  14.2273396  39.7594220   4.8053524  14.0258663  38.8357980   4.9555370
  14.9079769  39.7497517   4.1324017  99.2319679  96.1712646  80.8009529
  98.3530140  96.3657665  80.4756260  99.4635201  95.3413963  80.3839111
   4.4928711  63.5473782  14.8381397   5.3271168  63.8868958  14.5141193
   4.5929306  62.5959546  14.8063824 111.9528855  55.1681382   9.9974606
 111.3771094  55.5829770  10.6398174 111.3812555  54.9711663   9.2553780
  64.8350286  95.0572491  62.6407003  64.2290401  94.3774605  62.9354858
  64.2945337  95.8436489  62.5653362  39.4427681  92.3212910  77.4089575
  38.9980817  93.1512356  77.2366905  40.2909470  92.4092484  76.9741154
  53.9534468 102.1209480  15.8729527  54.5238358 102.5988962  16.4749882
  53.0765921 102.2208358  16.2435982  45.0125790  87.3162270  68.5068417
  44.2607641  87.0613861  69.0416813  45.7557392  86.8658638  68.9082384
  52.2043896  66.8461800  90.2978039  51.5152979  66.8821764  90.9611988
  52.3677015  65.9113693  90.1725769  54.8151398  77.7474403  63.2026863
  54.0879250  77.1342325  63.0960226  55.1535845  77.5673819  64.0797615
  47.6313305 105.6236172  61.8850899  48.1904364 106.0437965  62.5386047
  46.7883205 105.5150604  62.3252964  25.5578154  81.7981011   2.7728149
  25.5612868  81.4211709   3.6526653  25.9387987  82.6691586   2.8838989
  37.0366621  57.6576471  62.4441957  36.8550014  56.8813515  61.9144773
  37.8116250  57.4232149  62.9547882 103.2232267   3.8197093  95.1191425
 103.2983047   3.0703597  94.5283127 102.3162109   4.1102271  95.0234509
  66.2628126  94.9549961  81.9361401  67.0332766  94.7884274  81.3931179
  66.3014269  95.8924675  82.1255684 114.0564663  20.3943019  60.7302380
 113.6648065  20.2092319  61.5838099 114.8937637  19.9306922  60.7453203
  78.4108162  84.1238689  93.5718822  78.5120344  85.0753307  93.5454273
  79.0824604  83.7948513  92.9744911  25.4181611  13.5260253  82.7481556
  25.5410992  13.7680583  81.8302631  24.9819409  12.6746421  82.7150059
  21.9624775  53.9538342  25.6363556  22.2237604  54.8625237  25.7855389
  21.8191546  53.8978535  24.6916077  64.2956877  72.4804974  54.4867516
  63.8780212  72.8706980  53.7189436  64.8554039  73.1750870  54.8338652
  44.0356922  74.9617338  73.7399387  44.5843077  75.6261539  74.1568375
  43.2241154  74.9683905  74.2474079 114.3937475   5.3039889  76.3301325
 114.8958666   4.5237308  76.5653229 113.6179048   5.2671580  76.8895388
  72.7171040 107.1568584  86.7082596  71.8401194 107.1565819  87.0918274
  73.3076334 107.1204185  87.4607086  35.0699919  -0.2476113  16.9875023
  34.3483847   0.3610331  16.8291637  35.8455723   0.3103597  17.0456287
 100.0116665   0.0191550  42.9682589 100.3635914   0.3281741  43.8030529
 100.3731901   0.6216197  42.3182011  40.3628969  50.6505489  85.1340199
  40.4603243  51.3633490  84.5026207  39.8544908  51.0322618  85.8495903
 103.0760897  21.2888915  15.6397793 102.8206171  21.9160516  14.9632999
 103.6549319  20.6736094  15.1896641  91.0368156  86.0649395  65.9986019
  91.2767982  85.3060055  65.4669428  91.8590546  86.3456249  66.4002991
  45.1478624  64.1236973  66.4591026  44.4274664  64.7444916  66.5680695
  45.3982449  64.2064571  65.5389452  79.3207026 110.0989056  51.8166208
  78.9004183 110.8009148  52.3133898  78.9071751 109.2975616  52.1376801
 111.8537218   1.4392047  92.0538807 111.3701565   1.8358474  91.3292599
 111.6185314   0.5119853  92.0196724  65.2579308 100.5432034  70.1698303
  64.8748016 100.4433060  69.2983580  64.8738813  99.8324585  70.6832218
  38.4464043  35.7785184  34.3908093  37.6303023  35.3396184  34.6307442
  38.3796948  35.9076936  33.4447071  57.1953154  83.9720821  54.9639845
  57.8589058  83.6228180  55.5588865  56.3739204  83.8944721  55.4492855
  11.4542931  91.6418320   7.0687458  10.8990639  92.3320062   7.4315331
  11.4827793  90.9729630   7.7528736  65.4406404  92.2803593  35.2768350
  64.6378899  91.9587421  35.6871796  66.0565567  91.5514755  35.3517675
   6.9438302   6.3459449  91.8601131   6.1100995   6.5187507  91.4227772
   7.5178658   6.0266547  91.1638546   2.5484818  58.3206708   7.9649708
   2.9311579  58.1958539   8.8334248   3.3021706  58.3973176   7.3799011
  96.5408056  54.6420056  16.9983074  96.6948813  53.7494523  17.3078796
  95.6452482  54.8394162  17.2726223 111.5057451  19.6941905  52.7853537
 110.8861381  19.4389587  53.4688568 111.6758711  18.8855701  52.3022032
  21.5488308  70.4227406   7.6096794  21.5497606  70.9073216   8.4351608
  22.0993918  69.6584756   7.7799770  55.9855127  94.2538738  93.4130287
  55.6803179  95.1579762  93.4884739  56.1717367  94.1409492  92.4809361
  12.6359593  34.7218185  56.5513325  13.4065472  34.6522098  57.1148682
  12.0649373  35.3438525  57.0021677   2.8546273  15.4850726  96.2678623
   3.4814393  14.7628551  96.2260437   2.9808842  15.8616595  97.1387672
  66.5171385 104.6433735  78.5753822  65.7833815 104.9672127  79.0978384
  66.7564678 103.8131428  78.9873028  36.1434334  30.5661732  12.7938053
  35.7981699  29.6784360  12.8884098  37.0706719  30.4877049  13.0181000
  67.9856730  74.6589184  80.7533169  68.1021118  73.9235926  81.3549614
  68.8274527  74.7366285  80.3043175   9.3813073  25.6060653  81.8110371
   8.4620701  25.3726344  81.6816807   9.4284569  25.8980517  82.7213955
  68.3064669  28.6630780  20.2874825  68.0540579  28.6333138  19.3646404
  68.0882948  29.5522076  20.5669186  65.2694416 102.1385479  89.7893524
  66.2083340 102.2957611  89.6893787  65.1830912 101.1853886  89.7727108
 105.7794887   4.9327903  91.7623138 105.4576856   5.8250575  91.6337204
 105.4160434   4.4388442  91.0273647  88.1245899  85.6694412  53.8530827
  87.2136116  85.4049110  53.9810419  88.6168575  84.8486805  53.8691902
  63.8896561 103.0709171  67.5313807  63.2775450 103.4309387  66.8895531
  63.3346176 102.6041031  68.1560755  27.0050084   7.3787456  57.5631857
  26.9420086   8.1452613  58.1330252  27.0177399   6.6338782  58.1642199
  48.3148193 107.2274971  83.0445099  48.0655956 106.5735722  82.3914337
  49.1151762 106.8799877  83.4380817  38.2150524  21.6520268  10.0788281
  38.2852619  21.2987429  10.9656689  38.1046074  20.8813054   9.5220348
  56.7757273 105.1557922  78.2454729  56.0769320 105.5351067  78.7784290
  56.3291168 104.8215294  77.4676275  41.9733542  48.0830628   2.2856495
  42.8514117  48.2603032   2.6230309  41.5651720  48.9459950   2.2150967
  33.4919518  61.2842423   1.1482498  32.5704258  61.3908822   1.3841507
  33.4908312  61.2398774   0.1920769  15.8236712  10.8413321  18.5243008
  16.3568466  10.9893328  19.3053600  15.7202738   9.8907000  18.4814903
 102.7398187  16.6984515  95.9610271 101.9434673  17.0955329  95.6083393
 103.2077772  16.3756137  95.1909447  77.4537659  85.8808041  51.6969347
  77.2183371  86.5688324  52.3193693  78.3791065  86.0357761  51.5073013
  41.3531243   3.8745170  88.8203049  41.8437230   3.8404708  87.9990959
  42.0258652   3.9262729  89.4992447  72.1735764  90.6183529  53.4229136
  72.0478678  91.3773346  53.9924574  71.7362356  90.8571529  52.6056337
  62.7141094 104.2210674  64.3876743  62.5832987 105.1530743  64.5622683
  61.8689013 103.9187050  64.0553570  80.3141975  81.1323071  86.8880177
  80.4603004  81.7614079  86.1815357  80.1771832  80.2972698  86.4406109
  17.8932207  38.9980752   6.0756847  18.6173075  38.9406068   5.4522869
  17.5155800  39.8646123   5.9249279  92.0816023  31.9290118  80.6944180
  91.2058145  31.6573959  80.4197407  91.9573099  32.8054195  81.0587120
  31.7447591 104.7002983  84.0378857  32.4730802 105.2838516  84.2505741
  31.1194587 104.8278141  84.7513008 107.9954052 102.5324059  76.2308407
 107.1857071 102.0528698  76.4059305 108.3034897 102.1847248  75.3939199
  43.9917773  35.6333310  38.7612698  44.7445696  35.0940949  38.5188839
  43.6345785  35.9352166  37.9260990  59.7057772  94.9236393  94.7455502
  59.8991060  95.6190014  95.3742981  59.9376488  94.1155815  95.2032852
  62.2475737  27.9921777   1.5838406  63.1856364  27.9126698   1.4107773
  61.9556444  27.0938737   1.7389557  25.8169525  34.5156724   1.8357632
  26.1316651  34.2649800   0.9672329  24.8629826  34.4912202   1.7611095
 111.8832285  14.2790942  87.8917122 111.9319994  14.8962836  87.1616936
 112.3366148  14.7209697  88.6096382  31.4885729  66.8109662  10.1858971
  32.1619766  67.0955140   9.5680019  31.5866583  67.3991162  10.9346840
  26.6079062  50.4973084   4.8143932  27.4839800  50.6936986   5.1462910
  26.0153359  50.8707578   5.4667923  89.2203903  98.6672688  80.2724743
  88.6006546  99.2329025  79.8117971  89.8567390  98.4144306  79.6036196
  80.7987022  78.8579226  85.2312183  80.6088352  77.9205370  85.1926804
  81.6311550  78.9529133  84.7683525  56.4630461  92.0859337  67.7945662
  55.8190680  91.4855385  67.4189949  56.3534498  91.9933319  68.7409496
  90.8095867  12.6553588  74.1169167  91.7571527  12.7907806  74.1146421
  90.6893379  11.8111758  74.5518064 101.8011284  99.1980457  86.8817043
 100.8848190  99.2046070  86.6049957 102.2271252  99.8409748  86.3147926
 113.2397593  49.6983773   0.3713200 114.1790546  49.5638043   0.2454350
 113.1656230  50.0573785   1.2555477  55.2711123  34.5373399  28.6210796
  54.3185251  34.4646508  28.5617134  55.5339926  34.9272305  27.7873489
  77.9997253 108.7372208  70.6864882  77.6621437 109.6078014  70.4758930
  77.3372841 108.3564854  71.2630701  73.9037657 101.1410713  72.7911949
  73.5534000 100.7642651  71.9840431  74.5302391 101.8014050  72.4950218
  27.2381722   0.0565581  54.9677563  26.7513119  -0.0597424  54.1518688
  27.9833161   0.6064658  54.7257137  52.2975558   2.0209081  19.6868679
  52.7003687   1.2499911  20.0864574  51.7844504   1.6723258  18.9578602
  62.7160889   3.6948924  74.0310955  62.9749519   4.5192199  74.4430542
  61.7623789   3.7474876  73.9686203  33.7923657  17.2250037  65.6862020
  33.0700909  17.3209052  66.3069677  34.4401680  17.8695636  65.9710360
  74.8213577  73.1476736  94.6369553  75.5208683  73.5809135  95.1260567
  74.8701334  73.5292482  93.7604618  54.6401804  27.1624810  11.1189148
  54.9985998  27.1420914  10.2315876  53.7104910  26.9644028  11.0063145
  10.6899981 107.3823833  40.3298712   9.9225573 107.8971004  40.0801849
  10.7193045 106.6705608  39.6905994  28.9585434  36.5180926  79.0673447
  28.2133709  36.2945418  79.6250010  28.7117230  37.3479323  78.6590767
 115.7033807  20.2867560  51.4101982 115.5254776  19.5467715  50.8296680
 115.5569631  21.0596423  50.8648205  70.2898615  86.3004643  14.3731567
  70.2553004  85.3689534  14.1556332  70.0938719  86.7462880  13.5490963
  64.2854118 105.3938770  79.9196291  63.9406729 105.8882999  79.1760349
  63.9723110 105.8692455  80.6891823  78.3108187 103.8559437  73.9707041
  77.6275396 103.8146400  74.6397781  78.8348389 103.0679417  74.1145611
 113.1487924   9.7157436  65.1545525 112.6646597  10.0615840  64.4047260
 112.6192886   8.9804225  65.4630327  52.7821922  68.5394001  57.1227646
  53.5154152  68.3352995  56.5422869  53.0996037  69.2617798  57.6646566
  14.1090619   6.3711505  67.1413422  13.6909043   6.9607787  66.5138817
  13.4305035   6.1945109  67.7929449  97.5530988   7.3036723  67.3567724
  98.0552894   7.8646712  67.9477978  98.0017359   6.4587646  67.3896551
 111.2672788   6.1522632  89.7368145 110.9318477   5.6664233  88.9833736
 111.2839109   7.0639949  89.4457817   4.0364300  19.7909694  51.2174368
   4.2042386  20.7331901  51.2343025   4.8362195  19.3989329  51.5679598
  70.6041288  97.4903107  67.9171133  69.6654224  97.3384476  68.0266714
  71.0189486  96.8631172  68.5093832  74.8019749  24.7349315  66.2060928
  74.5019895  23.8334518  66.0895729  74.9940926  24.8044448  67.1412373
  70.3192902 100.4887676  85.4019547  70.2503586 100.6631660  86.3406086
  70.5332470 101.3380051  85.0156307  47.6265574 101.4581394  80.9420490
  47.4721527 100.5148792  80.9936523  47.7233934 101.6341400  80.0061607
  86.2473566  35.4320579  85.9392166  86.8040926  35.6618838  86.6831684
  86.0787136  36.2655311  85.4997730  64.8954027  74.6535165   2.0920536
  64.7377127  73.7195165   2.2299549  64.5739763  75.0712163   2.8910706
   3.1872099  48.6807782   0.9531567   3.5577219  48.7402112   1.8337318
   3.9397209  48.7779862   0.3696224  42.1367108  13.7916904  80.1957798
  41.6524350  14.5367770  79.8400354  41.8842541  13.0544906  79.6398735
  19.1345726  46.0604529  53.6009836  19.5459115  46.0491424  54.4652224
  18.2261120  46.3092475  53.7713480  65.7164431 104.0698624  94.6278858
  66.1842012 103.6237049  93.9219284  66.2527752 103.9155197  95.4055405
 110.9247619  10.7558208  68.0215216 110.6509811  11.3598781  67.3313141
 110.5029184  11.0897021  68.8132286  17.7853047   2.1992641  72.7209949
  17.6404511   1.5333419  73.3931541  18.3796727   2.8278117  73.1307220
  94.8055840 108.8439655  69.0777445  95.5663586 109.3820000  68.8586998
  94.7595215 108.8720798  70.0334263  54.7248095  52.9563195  25.5996677
  55.5459803  52.5219685  25.8303997  54.5297449  53.5150201  26.3520214
 106.8396789   7.6761584  61.8957186 107.7617866   7.8033691  62.1188021
 106.6607649   6.7647796  62.1272612  31.2076127   5.0653892  70.0351858
  30.5588376   4.6531348  70.6055975  31.9090783   4.4180827  69.9632788
  19.6923863  13.8842540  77.2820854  20.3359162  14.5857196  77.1817875
  19.2340027  13.8578563  76.4421940  96.8223095 102.8526688  38.4725952
  96.5462208 102.9603100  39.3827724  96.8829155 103.7457275  38.1334805
 114.7412521   7.6850276  69.7468948 114.2386562   8.4056716  69.3670225
 115.1375419   7.2464233  68.9940262  66.7407608  91.1788177  85.3917313
  66.4817333  90.7116318  84.5974541  67.5104618  91.6849327  85.1316643
  56.3407152  76.3529069  21.3013145  57.0157641  75.7828576  21.6695377
  55.5961531  75.7721383  21.1445686  81.6694849  47.5392014   0.5933640
  81.0734480  48.1052930   0.1029560  81.2932318  47.4997670   1.4726326
  13.1878679  71.5939862   6.3284657  12.4065083  72.1468980   6.3293812
  13.1654471  71.1490590   5.4812595  38.3830762  95.9269428  79.6150064
  38.8728261  96.0110855  80.4331112  37.6491809  96.5338039  79.7116947
  99.2093593   7.2568278  87.3072243  99.3879539   6.3868480  86.9502068
  99.8419983   7.3583942  88.0183411   0.2577387  15.1636939  68.4166765
  -0.2658094  15.8018928  67.9320765   0.7859885  14.7293048  67.7469921
  79.7769737  73.5932207  93.0858421  79.0976667  73.1727266  93.6130619
  79.5937061  73.3109760  92.1897507  27.1723717  18.9746291   2.2699806
  27.6195067  18.2821280   2.7565453  27.8051155  19.6921784   2.2385761
  74.5002699  92.8197384  61.7890882  75.0575447  92.1006584  61.4914322
  73.6733484  92.6899052  61.3247824  67.4275398 103.2465839  72.4779224
  67.6172209 103.8889122  71.7940664  66.5091276 103.3983040  72.7009344
  47.6864290  83.9670086  78.9766169  47.8364706  83.3329582  78.2754135
  47.8675508  84.8164368  78.5742474  72.8143120  72.2827101  82.0567322
  72.0330238  72.6154423  81.6150284  72.6499796  71.3454390  82.1604061
  67.3402452 107.3774719  69.9270678  66.8535089 107.7356052  69.1847277
  67.8766537 106.6810703  69.5482254  25.6506270  54.5511205  23.9323971
  25.2865761  54.1637189  24.7283909  24.9839848  54.3949754  23.2634899
  88.3461475  94.7913933  65.5059052  88.5549736  93.9587784  65.0823832
  88.8490582  94.7786522  66.3202429  54.6418493  30.6565434   8.7396404
  54.9170893  30.3558881   9.6057102  55.3259772  30.3423840   8.1484482
  61.7753601  89.8049736  52.6687622  62.6051617  89.3735981  52.8726768
  61.6110420  89.5866776  51.7513847   3.8496720  32.8700595  86.9227982
   3.0447613  32.9301887  87.4373245   4.2854153  33.7111049  87.0606041
 113.0509550   6.5811687  67.7343988 113.1150848   7.5072150  67.9679537
 112.6506025   6.1683326  68.4995937  61.9824457 107.9133606  84.0857315
  61.1427402 108.3690643  84.0268326  62.3260641 108.1546307  84.9459267
 103.3823950  15.9170394  93.1023598 103.8092453  15.8650355  92.2471809
 102.5180561  15.5302482  92.9625416 117.7879888   2.7187591  73.3769941
 117.2722894   3.2709079  72.7892780 118.5678417   3.2386832  73.5712528
  69.0785902  53.4222085   7.8033325  68.8097399  52.9654939   7.0062325
  68.5819357  52.9966981   8.5022709   9.0842949  16.4731650  92.3298073
   9.9179303  16.4929538  92.7997875   9.3209111  16.6300922  91.4156818
   2.1187262 111.0181999  58.7527227   1.9420771 111.5041256  59.5582724
   1.7584567 110.1463699  58.9150286  14.8509234  70.7259709  10.4273388
  13.9187496  70.5180127  10.3637859  15.2079218  70.4898316   9.5711777
 101.1341125   8.8652949  84.2953682 100.8674843   9.4335132  85.0180435
 101.3145000   9.4660525  83.5723305  74.2139626  89.2349529  28.9542890
  73.7254667  89.8410606  29.5112753  74.9509716  88.9528656  29.4960284
  16.0919510  39.0742450  90.1531315  16.3716351  39.0704398  91.0685539
  15.2214562  39.4719558  90.1703072  75.7007456  87.1181488  63.0581856
  76.4139366  87.6559258  62.7141094  75.9922266  86.2169266  62.9200983
  49.5591753  48.4777219   7.0965359  49.7706145  48.6592061   6.1807892
  48.7204283  48.9160306   7.2401020  90.8319664  69.6715069  83.8288593
  91.4887810  69.3879414  84.4647980  90.3167820  70.3304482  84.2942715
  62.8088713 105.5951595  43.5696602  62.7385473 106.5027714  43.8655329
  63.6390877 105.2881336  43.9339495  45.6051462  58.4260613  12.1654293
  45.3013247  57.8849274  12.8941986  45.1292818  59.2506368  12.2647354
  63.8092858   2.3936515  59.8916912  63.6576134   3.1517367  60.4560804
  64.4927437   1.8948035  60.3391981 100.7926464 107.1865654  66.7258692
 100.6536388 106.5013790  66.0720921 100.5052948 107.9911995  66.2943363
  11.9188552 102.8309250  85.3880310  11.6604094 103.7230396  85.1565838
  11.5281062 102.6842117  86.2494373  31.8773049  18.0641801   3.2305405
  31.5564316  17.2629840   2.8165886  31.1367386  18.3791549   3.7487862
  43.7154215  39.8600632  40.1426575  43.5382002  39.7548348  41.0774014
  44.4715708  39.2969186  39.9773476  35.4960268  11.6856582   9.7431728
  36.3029593  12.1769006   9.5889828  34.7976940  12.3303181   9.6292469
 111.7986900   2.5483661  68.2061768 112.0734054   1.8962245  67.5616074
 110.9109098   2.2856956  68.4492493  19.0035586  82.3688412  69.3159056
  18.7549262  82.9846954  70.0052023  18.9429049  81.5081692  69.7304010
  64.9112051   0.4454238  30.6980679  64.5939654   1.2245852  30.2414581
  65.7976740   0.6753260  30.9765598  73.6118507  70.4692554  74.0385771
  74.4910574  70.6309938  74.3807268  73.1178808  70.1444387  74.7913885
 101.3860321  77.6401997  57.2297287 101.0468674  78.4406424  57.6303291
 100.6905270  76.9950962  57.3575735  77.2887707  96.4413166  68.4754610
  77.3751354  95.5070210  68.6648560  77.2597504  96.8585491  69.3364525
   9.1707074  18.6370902  73.0699444   9.0069138  18.0148463  73.7786150
   8.9107930  19.4847636  73.4306669  97.9912090  91.5779591  80.2508545
  97.1287727  91.6329861  80.6624413  98.4422874  90.8840752  80.7317829
  79.2052794  93.3255005  84.5442581  78.9492989  93.6991119  85.3875351
  79.7229815  94.0128422  84.1250134  81.1061287 108.2172012  39.0820026
  80.9202385 108.7690258  39.8417115  80.6338501 108.6344910  38.3615541
 117.1220953  12.9027801  86.2249374 117.9122955  12.8692680  86.7640972
 116.9378406  13.8370471  86.1278248  97.8684837  15.2308326  62.7388191
  97.7297479  14.3840079  62.3147106  98.8170082  15.2886634  62.8536463
 107.5084144   9.3486743  52.6575851 106.8185217   9.2486243  52.0016289
 107.3427040   8.6479335  53.2882452  89.8398048  12.8977161  79.9341917
  90.6918508  12.9944091  80.3595161  89.4230348  13.7534385  80.0355434
  29.6411722  31.0359341  26.1695263  30.3435963  31.6638619  26.3384697
  30.0198334  30.4145581  25.5476353  63.7686157 102.8779984  77.6192379
  64.4111729 102.9737568  78.3222198  64.1273832 103.3912277  76.8952751
  70.5772257 100.9528351  60.2028131  69.9386215 100.3882504  60.6383133
  70.4930115 101.7966366  60.6468010 108.3251762  86.3488579  70.0628138
 108.8846016  87.0608711  70.3731489 108.9258862  85.7456303  69.6252012
   9.4346653   4.1063552  77.7774286  10.3215252   3.8971191  77.4843025
   9.1826569   3.3641868  78.3268929  44.7619378  16.4568954  68.1148195
  44.4429909  16.1674171  68.9696312  45.6757103  16.1728244  68.0913639
  38.3621168  89.9944496  83.2597160  38.1864738  89.4457722  84.0241241
  39.2774510  90.2565384  83.3582401  91.0591698 103.5056114  67.7922344
  90.8145523 102.6722813  68.1946659  92.0042896 103.5696411  67.9296446
  38.4035134 106.8875694  75.9857750  38.6096096 107.4370289  76.7419863
  37.4512601 106.7935562  76.0104370  15.8409821   5.2897697  61.7789412
  16.3820397   5.1534610  62.5567007  15.8820282   6.2329345  61.6209078
  53.5009050  93.4818649  75.2157879  52.9797888  93.5041618  74.4131851
  52.8985500  93.7724018  75.9006119  63.7660408  96.7271614  59.3352461
  63.0130768  96.3890266  59.8199558  64.0092564  97.5284004  59.7990274
 101.4391994  94.6653366  75.1050520 100.6254101  94.8832607  75.5594587
 101.3410282  95.0566673  74.2370367  83.3540440  97.9043293  90.6321716
  82.4863338  98.1167603  90.9759521  83.7244415  98.7495422  90.3779125
  36.5018784  30.4127746  77.3244667  37.2740113  29.9295192  77.6185894
  36.7317044  31.3329654  77.4535847  84.4070244 101.5441608  70.6921244
  84.3243122 102.4898529  70.5694008  84.9901676 101.4504814  71.4453840
  94.5761776  61.4013910  89.9385166  93.6916351  61.0604811  90.0711727
  94.7144413  61.3471651  88.9929104  98.0629331   7.4118571  96.1869049
  97.2859222   7.1102290  95.7162476  97.9025442   8.3426433  96.3422966
  54.0553683  28.2315404  24.5474693  54.4058626  27.7976853  25.3253910
  54.3320959  27.6763875  23.8184616  35.4273527  50.1361424   3.8656017
  35.5346840  49.6250016   4.6677563  36.3110560  50.2024419   3.5037968
   3.3680110  97.9363346  79.9371386   3.4387927  97.2105408  79.3171024
   4.2724089  98.2104778  80.0892258  11.4480149   7.5114875  79.0899038
  11.6132103   7.1422725  78.2223701  12.3013817   7.4961333  79.5232105
  59.6586323 108.3516693  90.0077248  59.5227098 108.6063290  90.9203625
  59.3685007 107.4403858  89.9675941   5.6062287  72.1035439  23.7855598
   5.1225107  72.7543408  23.2769177   6.5226286  72.3671109  23.7020275
  45.0216788  30.3968388  10.8378574  44.0908163  30.3923184  10.6149265
  45.0676649  30.8772141  11.6645023  96.7665464   1.7492919  89.8254108
  97.3732168   1.4775329  90.5141258  95.9403402   1.3222652  90.0518131
  37.8683966  35.5795819  25.5085537  37.9578036  36.0763318  24.6952412
  38.1316250  36.1933762  26.1942646  22.9847019  12.8699261   2.1019718
  23.7762945  13.3206231   2.3960564  22.4507778  13.5580642   1.7049572
  24.7954308  19.3854003  92.9474354  25.2256428  19.1579299  93.7716961
  24.4647824  20.2728038  93.0867672 114.4195968  20.1390796  68.8647699
 113.6924059  19.6225410  68.5174799 114.0137321  20.9521632  69.1654301
 108.6832268  20.7506328  82.8818035 107.8229982  20.8552890  82.4752522
 108.8054830  21.5506225  83.3929825  64.9890566 101.8514729  57.3595810
  65.3490734 101.3315201  56.6410589  64.4285536 102.4977303  56.9301510
  92.6126320   8.2298999  54.6012211  92.7455932   8.6024242  55.4728746
  91.7427284   7.8324943  54.6407366  69.5226049  79.7543716  92.5946426
  69.1568613  80.5876446  92.2977924  70.4394054  79.9504232  92.7877045
  51.7050743 109.4926834  86.9837570  51.0735321 109.1334915  87.6069450
  52.4171305 109.8261356  87.5296688  66.4391756 107.6466084  74.9128437
  66.9231701 106.9059563  75.2780867  66.8335772 107.7896023  74.0524769
  85.5690670  89.6526051  79.3382692  85.8413315  90.4347706  78.8583517
  86.3704967  89.1375256  79.4311666  54.7860336  85.7891941  71.3438988
  55.6629658  85.5555725  71.0395288  54.2930174  85.9642410  70.5423212
  60.4710054  89.7185230  76.0168982  59.5271397  89.6031761  75.9071255
  60.5809498  90.6561756  76.1748219   0.5296122   5.2411704  82.5099468
   1.4049851   4.9003940  82.3260307   0.0156342   5.0114589  81.7358112
  85.7226562  93.5674191  53.5158253  85.0976372  93.5355091  52.7915621
  85.3988457  94.2688751  54.0809155  68.7890434 101.0649014  51.5954256
  69.2046738 100.3302479  52.0468330  69.1377974 101.8422985  52.0316219
 116.5565300 109.9949265  78.8783979 117.2107029 110.3357792  79.4884062
 117.0193100 109.3180752  78.3844900  61.6631413 103.7927532  79.4673681
  62.4176264 103.5455322  78.9327049  62.0121384 103.8636780  80.3558540
  91.1931324  77.1193075  92.1221924  90.7998180  77.6304007  92.8295231
  90.8423901  76.2366199  92.2408390  77.7256346  99.2818737  52.5792408
  77.0206928  98.6746883  52.8042078  78.2022762  99.4099426  53.3993912
  34.0577334  35.4837186   0.6897804  34.1437739  35.2433926  -0.2327564
  33.9908570  34.6470887   1.1500046   1.2542378  15.8323817  71.0759306
   0.4729306  15.7861285  71.6269827   0.9151827  15.8551841  70.1810837
  53.0924320  88.9600182  78.4279871  53.6841249  89.2858601  77.7497816
  52.4501848  88.4330559  77.9525328  78.7310696 103.5548973  87.0865917
  78.4522820 104.1765976  86.4142895  77.9915237 103.5098553  87.6926231
  73.4638548  82.3896503  88.8069439  72.9575348  83.1553173  88.5355854
  72.8183651  81.8031883  89.2014408  97.9036713  92.4000454  66.1822367
  98.0007076  92.9724884  66.9432402  98.7998486  92.1579552  65.9488010
  56.8632030  84.7193813  79.8941755  56.4050150  84.2426777  79.2020369
  56.2398529  85.3883171  80.1773453  24.5870465  50.1839310   7.6145718
  24.5224636  51.1267812   7.7665207  25.0729531  49.8523576   8.3696816
  70.1649857 106.6287327  80.1417446  69.9592829 107.3686409  79.5703840
  69.8612833 106.9027233  81.0071564  29.5783459   8.3798747  92.9767895
  29.0486466   7.7480369  92.4905586  28.9806210   9.1056113  93.1564045
  16.3537371  67.6169634  77.2359610  15.9432912  66.7713261  77.0552254
  16.3165617  67.7025127  78.1886053  32.7016293   3.3621364  73.1586504
  32.8126465   2.5896697  72.6043892  32.2315251   3.0396514  73.9275694
  36.3103615   0.4529338  93.7618160  35.4941784   0.3378921  94.2484951
  36.4109646  -0.3603787  93.2672215   3.9118039   9.3239551  86.3382149
   4.6045147   9.9314265  86.0786724   3.9885842   8.5956626  85.7218361
  14.0059775  51.6897733  20.0556156  14.3010109  52.4364430  20.5768463
  13.2798355  52.0331055  19.5349762  41.8643778  84.0136773  24.0642235
  41.6625231  84.7977692  23.5536549  41.5807455  84.2271096  24.9531719
 102.1435434  13.8847880  81.4003849 101.3027126  13.4701114  81.5934753
 102.6220829  13.2303577  80.8915043   2.0153557  10.2535110  72.4751377
   2.9216229  10.4267745  72.2204018   1.4969765  10.8537059  71.9391584
  54.1861391 102.9179668  87.4740219  54.6241522 102.0700645  87.4003029
  54.9000645 103.5495472  87.5614643  77.3689324  14.0043979  79.0669632
  76.7177707  14.3232684  78.4420347  78.2044822  14.3235736  78.7260580
  81.1710739  98.9103222  94.6686649  80.9008121  98.1851006  94.1054249
  81.3376999  99.6336937  94.0643501  84.0203094  95.8830166  73.8034582
  83.1637669  96.2886047  73.6690235  84.6461487  96.5944290  73.6676311
  79.8158472  59.9803693  20.1309845  79.7591513  60.9091145  19.9063656
  78.9065760  59.6816308  20.1459381  51.5156317 100.0499725  91.4735603
  50.8662033 100.5555248  91.9623280  52.3476696 100.2512550  91.9018459
  21.9344079  41.8491035  89.5074463  21.9000374  40.9607368  89.8622227
  21.2613713  41.8614440  88.8269329   8.4662758  38.2215171  80.4238129
   8.9282738  37.4154811  80.6542683   8.6770951  38.8294082  81.1325169
  92.8697205 101.6346455  72.8626680  93.5769463 100.9999943  72.7474022
  92.5876522 101.5168190  73.7697411  63.4464854  50.3181798  23.1446621
  62.7748602  50.2218110  23.8198444  64.0917128  49.6417195  23.3503887
  66.2940233  36.5747506  24.4422314  66.5682619  37.4851376  24.3317101
  65.3797835  36.5639264  24.1588852  32.8543919  29.5911557   1.1157581
  33.0040806  28.6805016   0.8617470  33.3465451  29.6967084   1.9299290
  91.1718655  91.5363979  92.2551155  91.2114525  90.7332802  92.7744102
  92.0630264  91.6527939  91.9257069 110.7721550   8.5295158  66.5420628
 110.8577615   9.2140632  67.2056150 110.9071047   7.7124457  67.0220709
  96.5429974 100.8638382  64.8503208  95.6886101 100.5009937  65.0839710
  97.1391964 100.5203152  65.5157328  45.9468668 101.5196378  27.2614071
  45.3033083 102.1748406  27.5311729  46.0131758 101.6255814  26.3124058
  77.8874016 103.0629921  91.6999626  77.2616529 103.3437347  92.3676872
  78.5255337 103.7750435  91.6552544 110.1072723  12.4638133  80.4044724
 109.3490822  12.3482375  80.9772110 109.7314054  12.6556831  79.5453215
  13.5204064  23.0879264  95.8629608  14.0152871  23.9024310  95.7740021
  13.8307034  22.5392490  95.1426220  11.2909239  76.3544614   2.2687790
  10.5797594  76.7419679   1.7585632  11.0314816  76.4871842   3.1805393
  99.7349292  19.0647559  50.4625416 100.1945430  18.9358573  51.2922239
  99.0689785  19.7240787  50.6575584  45.1023709  30.3967719  60.7368422
  45.0554024  29.6075778  61.2764788  45.8416115  30.8881812  61.0950041
  37.2057854  16.6124110  94.8234749  36.4012085  16.1783652  95.1071835
  37.1950757  16.5367847  93.8693237  51.0942858  91.6551263  19.5948956
  51.2246912  91.2231309  18.7507317  50.6672686  90.9935052  20.1390907
   4.8721634   0.5137973  71.5749264   5.4351079  -0.1423402  71.1640549
   5.4211842   0.9108501  72.2510576  19.3310391   4.6410995  92.2157478
  19.9295460   4.3305545  92.8951454  19.3202244   5.5922561  92.3225784
  56.3814276  58.8528115   5.6316540  56.5541094  58.0041463   5.2240154
  56.6684836  59.4937665   4.9812672 106.3584042 109.2798328  69.3125200
 105.9584713 109.8673534  69.9536991 107.2295475 109.6468258  69.1620445
  18.3516728  13.8603931  92.4239826  18.4904992  14.6448283  92.9546547
  18.5200917  13.1330638  93.0230427  91.7124748  86.5220833  54.7236729
  91.7840481  85.7084656  54.2245483  91.0339546  86.3445663  55.3750706
  38.7275004 104.1731358  69.8744774  39.1403651 103.6079597  69.2215252
  38.1348252 104.7295952  69.3691826  49.4105738  65.3048570   7.7419254
  48.8613146  66.0782010   7.8703091  48.8987559  64.5839841   8.1088230
  82.7371329  52.8853375  27.3790810  82.6008147  51.9645745  27.1558449
  83.4046190  53.1851250  26.7619679  36.2753426   7.9693275  72.8029537
  35.7881867   7.1482425  72.7340698  36.7936265   7.8740077  73.6020327
   4.8532044  22.9721980  43.4023571   4.2958676  22.3705058  42.9088259
   4.3927037  23.0994277  44.2318058  61.5504551  95.7475185  69.9203110
  61.0487890  96.1829662  70.6094790  61.0928249  94.9189281  69.7780609
  37.6950585  13.5697990  69.2214966  37.4723374  13.3640247  70.1293945
  38.3782803  14.2369132  69.2877817  95.7293987  73.1938505  90.3058815
  96.0559177  72.7907562  91.1103249  95.4569340  74.0721464  90.5715752
  30.8959424  -0.2100320  87.5775051  30.9381234   0.7452636  87.6206017
  30.4253041  -0.4650445  88.3710384   6.0408913   2.1959357  63.2300091
   6.1390816   2.6084666  62.3718643   6.7619645   2.5505405  63.7501383
  40.3419321  59.8438508   6.9138786  39.5823878  59.7416074   7.4873516
  40.3591746  59.0405137   6.3937065  82.1562004 108.0914211  84.2350006
  82.0460320 107.1475220  84.1203308  81.2672329 108.4434986  84.1902924
  32.3172127   6.0144763  72.9516697  32.2280728   5.0621276  72.9153728
  33.2459198   6.1746745  72.7841091  19.6069657  27.6392799  89.3926811
  20.5584466  27.7356391  89.4331837  19.4214474  27.4810081  88.4670639
   4.3206440  67.3812537  86.5683937   4.3045842  66.7779784  87.3113823
   4.6212422  68.2106834  86.9398022 102.4169142   2.3305183  46.8556738
 101.8489296   1.8916469  46.2224102 103.2539160   2.4255614  46.4011097
  55.5958986 110.1471329  81.7304611  54.9033976 110.6155872  81.2643909
  56.3896608 110.3315067  81.2282944  40.8020150  19.7556167  78.2831383
  40.0189816  19.4181781  78.7181330  41.2923275  20.1938586  78.9786720
 100.8146793  16.9182830  75.4772711 101.6788656  16.9136672  75.0656939
 100.8082611  17.7122359  76.0119057  29.9263798   6.8004470  74.6849632
  29.5172822   7.3859840  74.0477657  30.6986176   6.4583259  74.2345858
  22.0619523  17.2066455  84.1126060  22.3335873  17.8085952  84.8054981
  21.7997395  17.7764182  83.3895397  19.5631348  26.2655788  63.1093931
  19.9036061  25.5452972  62.5788164  18.6859452  26.4256339  62.7613163
  52.0404738  40.7335336   5.1483223  51.2233752  41.0677106   4.7783157
  52.5980967  40.5689771   4.3879196  88.1367779 103.5942173  81.9645786
  87.9032421 103.4645653  82.8837490  88.6656857 102.8282452  81.7414951
  31.5550440  71.1990792   0.3579304  31.2668436  70.9345681  -0.5156830
  32.0392864  72.0121915   0.2144215  17.5586068  45.2133613  79.7723341
  17.8999650  44.3642287  79.4918489  18.2794796  45.8239989  79.6183872
  42.2113341  35.6155640   4.9208424  41.7495459  35.3491074   4.1258690
  41.8734759  35.0327260   5.6008312  48.2770651  39.3622739   6.4119026
  49.2049807  39.1326291   6.4616081  47.8210181  38.5905415   6.7475864
  47.7137696  27.1808295  94.4378376  47.5968014  26.3975768  93.9001751
  48.6099278  27.1134715  94.7673893  18.0782734  15.5131393  94.5739365
  18.1287800  14.9597316  95.3533077  17.1405159  15.6029086  94.4042778
  57.4530554  66.6139364  89.4374561  56.5576267  66.6557884  89.7731495
  57.9611158  66.2383890  90.1565361 102.5528526  92.4656105  41.3911629
 103.0159187  92.4635792  42.2288942 102.8316021  93.2763100  40.9653759
  65.6691313  98.2116508  54.5094490  65.5622435  97.6515007  55.2782393
  65.7138157  99.0995026  54.8643494  64.4039631 108.0732155  71.2783098
  63.9656925 107.7376556  70.4962921  65.3212929 108.1613731  71.0195446
   2.7338921  41.9318729  91.5636158   2.0801007  41.6988807  90.9044456
   2.2595726  42.4811893  92.1877098  12.4266755  12.3608737  75.2455854
  13.1276833  12.4731116  75.8876228  12.8015267  12.6777701  74.4238186
  89.7351677  10.9556537  82.3242378  89.6452743  11.9054084  82.4024296
  89.0674478  10.7035689  81.6864014  83.7227440  95.5707550  92.1934986
  84.3590260  95.8019924  92.8701878  83.6896992  96.3388729  91.6232967
 111.4179594  19.4323402  87.7656555 110.8790571  20.1124244  87.3615456
 111.4386350  19.6634345  88.6943054  60.6183069  48.2595212   2.7381393
  60.0930136  47.6320321   2.2415802  61.4860266  47.8585870   2.7885601
  90.3849220 104.1701794  75.8370256  91.0351849 103.4677887  75.8314943
  90.9020901 104.9754906  75.8213091  85.1934069 103.6676747   3.0743095
  84.2917937 103.6382634   3.3944199  85.7204645 103.8270909   3.8572666
  67.3360014  96.4476109  96.2970924  66.4999866  96.9040775  96.2025070
  67.9915190  97.1451187  96.2931252   5.7581173  29.9198775  89.7880936
   6.3228833  30.6896453  89.8567963   5.0501000  30.1935439  89.2049503
  78.1504107  83.7563038  80.5610847  77.2454214  83.6354828  80.8485317
  78.3508444  82.9646206  80.0617981  65.0122356  97.5942516  96.0774326
  64.6994400  98.2526779  95.4570484  64.3430948  97.5727654  96.7615509
  36.4564245  38.4299619   3.7903282  36.2498015  38.7873132   2.9267094
  36.3696020  37.4825913   3.6845562  58.7941473  83.8743550  19.8212502
  58.4300440  84.6942479  20.1550648  59.4067305  84.1451890  19.1374180
 114.9993736  25.7499652  89.3636131 115.8744938  25.3631263  89.3360901
 114.5477182  25.3746467  88.6077213  21.9769608  11.9456344  69.2172337
  22.4695145  11.9209533  70.0376034  21.3106190  12.6182227  69.3580866
  21.3875931  61.5766866   6.3460514  21.7219322  61.5152604   7.2408554
  20.8877819  60.7699448   6.2212059  74.8254299  88.6102772  83.1923962
  75.4377842  88.3417130  82.5074673  74.1195965  87.9651737  83.1490135
 118.0940181  35.4510837  93.9131069 117.5997717  36.2673240  93.9886856
 118.5745746  35.5374293  93.0897903 103.2663376  15.6204181  83.9324379
 103.7433655  15.7105498  84.7573948 102.5423271  16.2422996  84.0052414
  28.2283818  34.4016986  52.3434448  28.5290562  35.3067165  52.2612000
  29.0329300  33.8863044  52.4008608  74.6058386  62.6116330  14.7533009
  74.6565550  62.1186024  13.9344189  74.0530699  63.3649499  14.5454666
  95.6427956 107.5871563  77.5136995  95.6560898 108.5243988  77.7076721
  96.5042305 107.2733784  77.7888298  75.1144314 106.7970467  93.7385368
  74.7312260 107.5406837  94.2037010  75.4281855 106.2166405  94.4320202
  37.3024880  25.2501636  87.1049595  37.9913174  25.8119063  87.4601841
  37.5943028  24.3599563  87.3014259  17.0220488  31.8028981  17.0229599
  16.2231796  31.2801701  16.9536945  17.6122397  31.2690312  17.5548431
  38.0156010  44.4778783  27.0722649  37.8930872  43.5444028  27.2450039
  37.8073042  44.5789487  26.1434910  78.2020712  70.4181242  93.2070541
  77.3911858  70.0493860  93.5573864  77.9229975  70.9364700  92.4522877
  55.7770937  42.7146775   5.3255531  54.9148195  42.5072915   5.6856987
  55.5919760  43.1125600   4.4748756  48.8724440  33.7839276  19.6111939
  49.5617693  33.5166032  20.2191422  48.1881445  34.1505200  20.1711819
  23.6418854  28.7707095  67.8385258  22.7016198  28.7340789  67.6630545
  23.7077652  28.7640720  68.7934351  38.5578984  71.1826093  12.5102207
  38.9549797  71.1627919  11.6394970  37.6606911  71.4791924  12.3576138
  38.5610455  40.6692368  27.4632618  37.9609745  41.0718018  28.0910275
  39.4272726  40.9795243  27.7271053  89.2518997  56.5354395  92.8195000
  89.7228432  57.2995710  93.1519794  89.8250389  55.7952738  93.0192471
  81.9653034  98.5533619  65.8650589  81.8017483  99.0459633  65.0608063
  81.3782215  98.9469147  66.5105629  25.4127728  24.6015411  73.3833885
  25.7325493  24.0561252  74.1020632  26.0201489  24.4297843  72.6637840
  92.4577743   3.6807494  78.9137554  92.3662311   3.9756637  79.8197794
  92.6316911   4.4808059  78.4178638  35.4842424  21.6800332  78.9362240
  35.6585312  22.2084093  78.1573343  35.3501368  20.7940841  78.5995579
  24.9070883   8.5326141  75.8395863  24.1962337   9.0125942  76.2644863
  25.4652953   9.2137372  75.4644775  34.0871334  25.7755494  81.8034267
  34.6717525  25.0249195  81.9083405  33.6460543  25.6206942  80.9681416
 106.5489734  93.9602644  80.5777550 107.0453466  93.4355862  79.9496174
 105.9606565  94.4876010  80.0373554 118.2742504  43.3315754  79.0678501
 118.2234717  42.7258301  79.8072577 117.3703555  43.6128807  78.9261675
   4.9877327  89.6240206  34.9315286   4.7614687  88.9986462  35.6199622
   4.1929930  89.6962662  34.4029379  51.2340086  96.1101932  70.9738779
  51.7082327  95.2835185  70.8846760  51.4864653  96.4392586  71.8365574
   2.3996322  26.5767598  95.7786369   2.3460646  27.0893145  94.9720097
   2.3172176  27.2236180  96.4793682 111.0630144 105.3777827  60.8525181
 110.8619083 106.2210686  61.2582970 111.8311180 105.5509992  60.3082323
  14.6258605  23.5314536  73.0531406  13.7109447  23.3647037  72.8265238
  14.7288382  24.4777846  72.9527330  36.4612556  20.6766415  72.5990438
  37.3643088  20.5531359  72.8914022  36.0401869  19.8319781  72.7586651
 102.3489655  94.0717096  88.0864906 102.8018559  94.9096043  87.9913330
 102.4764169  93.8334913  89.0047646  79.4976503 108.6276056  11.0530827
  79.1018683 109.4707109  11.2738869  80.4404337 108.7902500  11.0836384
  37.7214813  17.3967469  81.8364429  38.2580471  18.1124997  82.1770668
  38.3088136  16.6409886  81.8262672  71.2517959  89.0154959   1.1271736
  71.4885432  88.1674148   1.5025970  71.8528611  89.6360566   1.5393040
  14.6340704  20.8261776  80.4443073  14.3445241  21.7226458  80.2747726
  15.1793408  20.8947611  81.2280178  19.7817326   7.2658384  84.3543434
  20.6843758   7.3036826  84.0380573  19.4793069   6.3907653  84.1114044
  17.6322281   1.0330064  84.8688221  16.7778730   1.3941230  85.1052570
  17.4293065   0.2141112  84.4166374  99.7244991 104.2642738  86.8155956
 100.2338613 103.4550817  86.8602180 100.2543152 104.8513545  86.2762833
  37.0224142   4.9345890  54.6679735  37.8762817   4.5032832  54.7014332
  36.8983173   5.2887690  55.5485344  16.9795811  18.6447239  85.5271816
  17.6737583  19.1647792  85.9320259  16.2335837  18.7385058  86.1195755
   2.7507704  63.8664956  68.9461899   3.5635441  64.3327660  69.1416883
   2.0920342  64.2934174  69.4939470  10.9776640   3.1907573  65.9453583
  11.5438056   3.6559612  65.3294849  11.1696160   3.5885689  66.7945528
  88.6654968 105.3732104  95.6796074  89.3489898 105.7893724  96.2048435
  88.7247104 104.4441355  95.9021950  31.7798471  23.0977631  72.6051092
  31.1256838  22.4008870  72.5534630  31.7389011  23.5284662  71.7512655
  40.2156496  16.7360497  62.0098782  40.4111528  16.3025165  62.8405762
  41.0516024  16.7487383  61.5437746  19.8256796  87.9088731  58.1128883
  19.7809666  88.6593265  57.5203896  19.0035027  87.4404402  57.9685593
 108.4770955   2.3828876  43.4134054 108.7860770   1.7800173  42.7371550
 108.8422985   2.0368910  44.2277431  33.8147950  11.5297699  91.8554878
  34.5192647  10.9221947  91.6300869  34.2239976  12.1626377  92.4456310
  44.6590937  37.1862246   1.4213059  44.1550166  37.8926303   1.8251965
  44.1025788  36.4127232   1.5119717  35.5085874  23.5040498  73.1094742
  35.4597116  22.5749874  72.8843451  35.1257825  23.5587788  73.9850855
  95.6370080 101.7193551  69.3781233  96.5193046 101.9620908  69.0972948
  95.2102865 101.4041538  68.5813856  84.1158248 107.5963465  46.1775684
  83.7599439 106.7804853  46.5296316  84.6975065 107.3183094  45.4700565
  44.9509382   0.0399129  94.9668217  45.0826740   0.7203539  95.6270313
  44.4227362  -0.6243306  95.4095650  19.7293925  56.0589314  61.5273809
  19.0297687  56.6039705  61.8875074  20.5369401  56.4879084  61.8103647
  86.3513220  78.6412330  93.7948132  85.8277042  78.6985631  94.5940399
  86.1360080  77.7835436  93.4284210 114.5560552  16.6587627  73.4959841
 113.8126995  16.9320178  74.0335560 114.4666772  15.7080901  73.4291553
  45.0903797  11.6966426  55.5025864  45.4030085  11.4833403  54.6233797
  44.2235422  12.0777500  55.3626537 115.2530921  97.5801129  53.4664488
 115.7893528  96.7872913  53.4759283 115.8156980  98.2450826  53.0695581
 109.0287431  47.7790689  86.7018986 108.4753986  48.3483410  86.1671257
 109.0826876  48.2235336  87.5479317  43.0965272  56.7901180  19.7785828
  42.3832795  57.3906981  19.9949429  43.5114924  56.5982340  20.6195423
  81.9135202 109.6288816  67.4895477  81.2019409 109.2735073  68.0220842
  81.5029047 109.8395317  66.6509438  49.3100643  25.4222107  57.8118181
  48.3668804  25.3270125  57.9443789  49.6851349  24.6198273  58.1747723
  34.6881080  27.5880313  67.3412561  34.7458982  28.5342669  67.4736643
  35.0636339  27.4443626  66.4725971  13.7109911  35.3686738  61.8999052
  13.1838083  34.7843337  62.4447489  14.5996594  35.0187778  61.9637251
  11.0700727   7.1765637  76.0961628  11.2929893   8.0235457  75.7099485
  10.1354218   7.2413081  76.2922955  12.1010256  23.2986569  75.3373480
  12.6224029  23.4502411  76.1256504  12.1333468  22.3508692  75.2073956
  40.7492495  11.3424790  87.3312378  40.7729149  10.3966928  87.4767017
  41.2962389  11.4796090  86.5577888  17.2929823  28.5179520  73.1400633
  17.9410768  28.7549663  73.8034105  16.6827321  29.2552853  73.1272221
  84.5202465 110.1391840  77.2971058  85.0000466 109.5012287  76.7688704
  85.1648433 110.8180672  77.4967194  12.6621413   0.8120175  48.2518673
  11.8216014   1.0631724  47.8689241  12.9715919   1.6042875  48.6909342
  20.9234977  15.2904987  50.5450058  20.7345247  14.8458099  51.3713074
  20.0622773  15.4913390  50.1786757  86.0776568 109.6538524  84.1621494
  85.7845456 110.5363673  84.3890476  85.7125379 109.0961787  84.8491096
  37.6225805  28.4622145  69.0027332  37.2692084  27.6188183  69.2856503
  37.0181298  29.1092658  69.3663168  18.4944153  20.8540988  31.7481518
  18.9890635  21.3252020  32.4186873  17.8489757  21.4885879  31.4366031
  22.2341507 107.1421168  66.9767618  21.5855377 107.7247203  67.3718596
  21.9576281 106.2637032  67.2378302  79.6300253  99.5202334  91.9587517
  80.2433501 100.1611311  92.3183632  79.6596216  99.6648486  91.0130024
  29.6231270  37.6458597  94.4949341  30.3324294  37.0073080  94.4216442
  29.9633241  38.3145547  95.0893593 113.9414500  42.8505707  94.6242809
 114.0038405  42.9854298  95.5698776 113.0061282  42.9212427  94.4334602
  17.9647183   5.4856431  63.8503408  18.6492252   5.5912083  64.5110512
  18.2289231   6.0664463  63.1368303  34.2601728  12.3475122  75.7768965
  34.4884157  12.5093234  74.8614979  33.4623337  11.8203044  75.7352257
  76.8984554  92.1933062  80.0945759  76.5852095  92.2638745  80.9963131
  76.9311563  91.2517471  79.9253750   6.9901007  80.1688666  50.4285097
   6.5977305  79.3127031  50.5995655   6.8370026  80.3204722  49.4958735
  62.4548864   7.1952021  80.7118893  63.2405043   7.3775893  81.2274170
  62.1504354   6.3458943  81.0315990  71.1236865  92.8517742  90.9809589
  71.2251307  92.8863163  90.0297737  71.3882888  93.7210996  91.2817764
  47.0413208  52.7560949  67.5390434  46.2096357  52.6094532  67.0884609
  47.2932720  51.8917465  67.8640985  29.8287409 104.0034230  38.6057615
  29.1691368 104.6541269  38.3654714  30.4746598 104.4936646  39.1143727
  75.3356439  78.6355974  10.1104042  74.7872574  78.5761382  10.8926937
  74.9239547  78.0408074   9.4835350   2.7063292 100.2643354  64.6544600
   2.5633305 101.2037654  64.5393372   1.8264836  99.8964245  64.7365761
 108.5990394  96.4313216  54.4074535 108.1675590  95.5773778  54.4363451
 108.0011738  97.0175750  54.8712397  96.7070670   5.8148575  14.9038136
  96.0187621   5.2979457  15.3224695  97.5228710   5.4484433  15.2450395
  46.1149216  16.2209678  82.8932476  45.4903650  16.9394767  82.9927635
  45.6320858  15.5488074  82.4123001  97.8706838  96.1520357  59.4828176
  98.3801378  95.3416796  59.4861889  98.5103429  96.8378873  59.6743250
  29.4991040  17.2475541  80.5508232  29.4600606  16.3594103  80.9056568
  29.3591452  17.8147733  81.3090515  20.2453184  18.1014204  81.1928558
  20.7904792  18.7620831  81.6201210  20.5714679  18.0668509  80.2935982
  72.4584443  66.3376130  20.9055779  71.5844471  66.0180248  21.1296913
  72.3590929  67.2880472  20.8504841 109.7736867  28.3317471  93.8918686
 110.0901396  27.7700686  94.5994091 108.9612152  27.9169440  93.6019325
  34.7987366   9.2459214  50.3345156  34.3052673   8.9376587  49.5744562
  35.5517936   9.7040939  49.9614048  39.1522813   1.5685271  75.9577513
  39.3225789   0.6605194  75.7072449  39.9264908   1.8284793  76.4570093
   5.4222596   6.1628854  28.0975175   5.5170864   6.7729527  27.3660398
   4.5271918   6.2988651  28.4083152  44.0056637  63.6116411  37.0289776
  43.5841710  63.6440100  37.8877708  44.7289944  62.9946841  37.1402809
  19.0165758  17.7744567  76.6375208  18.0688131  17.8977108  76.5847445
  19.3820763  18.6322558  76.4211369   7.7405006  49.9468136  79.6699858
   7.3405367  50.5876398  80.2578640   7.6595229  49.1132641  80.1335335
  93.7321902 108.3193709  61.5041351  93.6412145 107.4570699  61.9095898
  93.9441169 108.9047546  62.2312164  83.8248045  86.9598813  76.7269182
  84.4891752  87.4235029  76.2171173  84.2849333  86.2014789  77.0865583
  16.6925209  97.8409369  63.2237148  16.7140692  98.3962674  64.0030575
  17.6135748  97.6993127  63.0049896  48.7638939  33.2951786  14.7804329
  48.6069739  32.4758507  14.3110535  48.1948293  33.9317919  14.3478558
 100.1561607 100.9669883  89.6441364  99.5394386 100.5191023  90.2231693
  99.6269740 101.2374551  88.8937759 105.7761086 105.5147595  63.9911842
 105.3929485 104.7452546  63.5701370 105.6549824 106.2205447  63.3560228
  32.8283429  31.9563127  45.9379339  33.4772682  32.2655487  45.3058720
  33.3148098  31.3621974  46.5094280  44.0169525  18.6804116  59.2881203
  43.4460306  18.1083155  59.8009443  43.4232044  19.3173158  58.8905668
  56.9323534  76.4754702   4.8778317  57.7935189  76.8205716   4.6421883
  56.3124389  77.0919491   4.4881031  66.6587741  83.5627081   9.3200275
  65.9105403  83.9251925   8.8457081  66.5176303  82.6161315   9.3026325
   3.3757681  24.1627383  75.5453825   3.9126980  24.9391055  75.7041073
   3.0235618  24.2910886  74.6646404  23.6061239  21.9686818  61.5671635
  23.2175589  22.1071386  62.4309206  24.5107532  22.2671795  61.6608429
  29.7783160  29.2004132  93.0564499  30.5712676  28.7573266  93.3583260
  29.2981315  29.4051313  93.8587856 106.2827838  84.5328159  68.4345436
 106.0085405  85.4492731  68.4009409 106.7291440  84.3856497  67.6006746
  55.0974035  28.8379455  79.9008465  54.4885015  29.1572022  79.2348528
  55.1478004  29.5488763  80.5398083 112.0929516  82.7495689  79.4924498
 112.8636158  83.3008881  79.3569660 111.3891209  83.3667202  79.6924019
  58.2103777   1.5303722  34.9912834  57.9336452   1.1784330  35.8373260
  58.9034939   0.9377038  34.7004771  36.0186458  33.0365467  62.5032711
  36.7163992  33.4365296  63.0222940  35.3168941  33.6875296  62.5032854
  14.2023277  11.5107203  50.2854967  13.3347535  11.1222088  50.3977680
  14.3366969  12.0298886  51.0783672 113.1888045  12.2419214  81.8069077
 112.4641211  12.8446567  81.9735813 113.9342801  12.6315355  82.2637463
  23.0037689   8.7626201  58.0131769  23.5958004   9.2046386  58.6217403
  23.5713577   8.1826395  57.5055408  53.2848644  19.2875922  91.0941792
  53.9113903  19.5446539  90.4177094  53.5822916  18.4239554  91.3803673
   6.7607540  66.9785309  58.1204557   5.9510291  66.7721844  58.5873604
   6.7428327  66.4129782  57.3484039  80.5175390  82.5899525  63.9968348
  81.3685853  82.2422643  64.2634153  80.6513255  83.5362835  63.9439774
  24.5649624   5.9972739  50.3685236  24.4236708   5.1171833  50.7173920
  23.8098741   6.1542577  49.8015738  87.1129686  65.7546653   8.1902477
  87.7052480  66.4363612   8.5076305  87.6262409  64.9483659   8.2418987
  50.6420237  74.2229892  16.2415669  51.1281687  75.0467970  16.2064144
  51.2469894  73.5724844  15.8850643  77.1836908 108.9370034  63.3105469
  77.7170049 108.8018183  64.0938282  77.5638316 109.7095619  62.8923607
  73.9907209 102.2470451  95.0919533  73.4651078 103.0438234  95.1634216
  73.7230743 101.8574060  94.2596245  27.4759340  38.3864331  63.3488703
  27.6308393  39.3281984  63.4217596  26.9373417  38.1726193  64.1107321
  40.2664423   8.3917105  63.4060097  40.6675577   8.2206249  64.2581081
  40.7186937   9.1699290  63.0803156  21.3077545  62.5697994  41.9746828
  20.6973720  62.7749252  41.2664557  22.1607161  62.5064898  41.5449381
 114.7283651  12.4822724  61.4794064 115.1963858  11.8488801  62.0234680
 115.2187191  12.5006115  60.6575489   2.0400463  48.9952993  79.4566393
   2.2634375  48.5303164  78.6503410   1.0877207  48.9220190  79.5193911
 108.3164156 100.9807737  95.4271317 108.0330742 100.2060826  94.9415398
 107.5225199 101.2965758  95.8586788 105.5403698  96.7521794  86.8876171
 105.2403749  96.9322522  87.7785778 104.9843324  96.0327549  86.5884876
   3.5858479  15.2611840  72.2844028   2.8601173  15.3395569  71.6652060
   4.2426294  14.7429800  71.8192863  28.8015556  12.4355221  30.3547049
  29.7467947  12.4465299  30.5051541  28.6404252  11.6066706  29.9038458
  26.4308733  89.6045448  33.1978008  25.7389909  90.0434472  32.7029392
  25.9938616  89.2819359  33.9859459  12.5138729 109.0559257  76.7726755
  13.1261700 109.7544257  77.0038080  12.5192993 108.4719888  77.5311089
  27.8999090  18.0630422  64.0737009  26.9455838  18.0218911  64.0120220
  28.2103300  17.5106192  63.3562756  18.6332297  15.6997347  49.1181278
  17.8995657  16.1879814  48.7445211  19.1614020  15.4449296  48.3615971
  53.3004522   8.3848500  76.4250517  53.8724899   8.7834018  77.0809221
  52.7450657   9.1036111  76.1231279  27.3753858  23.2380342  92.2763729
  27.2045612  22.3041105  92.1545506  28.0664396  23.2708240  92.9378891
 101.8583150  10.0378942  56.1778259 102.2714861  10.5889714  55.5131197
 102.2680505  10.3065276  57.0001316  33.8634253  32.7962303  58.8177347
  33.4143853  33.5961580  58.5444021  34.4329166  32.5772953  58.0801868
  19.3638039  42.6057053  71.9059324  18.4682190  42.8946686  71.7308331
  19.4420588  41.7728901  71.4406013 107.8685756  42.3195124  32.9928422
 107.2500439  41.5994215  32.8698921 107.8375335  42.5042820  33.9315248
  84.2031700  95.0378014  12.5642368  84.5418054  94.1637255  12.3704502
  84.3711693  95.5417134  11.7679379 111.8758924  11.0196519  93.3180714
 112.3397638  10.5687165  94.0235519 111.9305237  10.4200613  92.5739288
  44.5797634  34.8686743  69.7021675  43.6481810  35.0483131  69.5752382
  44.6000624  34.1080928  70.2829742 104.9766863  95.6376095  69.8941755
 104.5991338  94.7593565  69.9427080 104.6474374  96.0833235  70.6746674
  66.2640953   7.7430338  27.1000862  66.3343859   7.9445136  26.1669755
  65.3266001   7.6192361  27.2484326   6.9928008  58.7607861  74.7798109
   6.2146842  59.3168020  74.7396755   6.6660655  57.9129457  75.0808811
  94.3689729 104.0791513  82.8917217  95.0134779 104.7837109  82.9583645
  93.5245574 104.5289673  82.8624153  62.0952225  30.0056148  84.2643261
  61.7847824  29.2457199  84.7566891  62.8809643  30.2891469  84.7317219
  90.1403035  94.7919948  83.2196808  89.5207835  95.3843434  83.6457729
  90.3953112  94.1769774  83.9074039   9.8379296  97.9457481  68.1064463
  10.1726406  98.7147207  68.5678387   9.2357271  97.5367875  68.7280035
  12.4869096   5.4973900  71.7492580  12.7336776   4.9543190  72.4978638
  12.1345675   6.2972939  72.1394348   6.1656290  24.4115949  65.3287506
   6.7894256  23.7280631  65.0840187   5.5570620  23.9775467  65.9266472
  64.5356894 102.3151661  37.7634454  64.7299446 102.9748554  38.4292579
  64.8357082 102.7070553  36.9432974  53.6409754  60.2490397  24.6328327
  53.2344598  60.0104933  23.7997219  52.9077131  60.5038904  25.1928398
 112.5310434   5.8940411  78.5353041 112.6707466   5.2444142  79.2242908
 112.0838077   6.6171318  78.9750242  98.0748726 105.1230402  67.8897953
  97.2008527 105.4325033  68.1276035  98.2296158 105.4885901  67.0187855
  64.0482575 100.0273182   4.4481632  64.9669964 100.0124504   4.7163651
  64.0768248  99.9770405   3.4927151  87.5761587  73.3612670   2.3925850
  87.0983202  72.8397896   3.0375359  87.5655300  74.2500331   2.7478478
  74.4729948  18.9967060  61.5673161  74.6381998  19.3866479  60.7088947
  73.8268185  19.5749402  61.9726944  10.0346553  38.2463121  66.7360735
  10.0088763  38.7936759  65.9512424   9.1293919  37.9604220  66.8585348
  15.3332090  43.0959368  82.8454590  14.9804151  43.2047462  81.9623184
  14.8500037  42.3527098  83.2065105 117.8956894   2.2886482  77.7801418
 117.5668018   2.7622503  77.0160961 117.8426884   1.3659428  77.5310707
  94.0054883 109.1729687  19.2937875  93.8410271 109.6398337  20.1130676
  94.9505020 109.2476447  19.1611028  83.2629425  56.7407014   5.1820919
  83.6356146  56.7233838   6.0635922  83.1476671  55.8185889   4.9526283
  23.9324021  30.8998132  93.3479595  24.4817185  30.1719570  93.0569077
  23.0702353  30.7125711  92.9766846  55.7533741  20.9766865  57.5261736
  56.4600134  20.3390741  57.6278734  55.1168442  20.5404735  56.9598007
 108.5516371   4.2978978  41.5156555 108.5521586   3.6281049  42.1994734
 108.6393924   5.1246107  41.9900751  49.9122143  57.7207232  33.4321976
  50.6295204  57.3059654  32.9529500  49.1899061  57.0956802  33.3704066
  46.7742777  38.2007670  77.8257656  47.3509741  37.4392962  77.8875494
  47.2970676  38.8608384  77.3705387  29.2078543  12.7400899  16.7297077
  28.9417601  13.6274159  16.4887130  28.3951044  12.2346044  16.7172515
  25.6626171  88.3227398   4.5244476  24.8849243  87.7729203   4.6199772
  25.3822440  89.1880728   4.8224709  27.3609591  29.8094702  71.6572571
  27.0255566  29.7649813  72.5526667  26.8826175  30.5361986  71.2581491
  38.5569811  14.4901586  26.6028762  39.3574214  14.3703747  26.0918188
  38.5883904  13.7976885  27.2629762  28.3666539  63.4144640  86.6551208
  28.3685470  62.8063297  87.3943138  28.6783934  64.2408657  87.0240593
  14.6741772   2.3884420  62.1789217  14.2154384   2.0134658  61.4271355
  15.0935030   3.1770402  61.8346691  47.2247410  28.9945579  58.8744831
  47.9132080  28.8298559  58.2301855  47.2953463  28.2664943  59.4918776
  36.0295844  32.2775841  57.0075274  36.7295551  32.8323483  57.3517799
  36.3079143  31.3852406  57.2136545  31.7142892  23.1159043  67.6605797
  32.2902417  23.3634186  66.9372225  30.8328176  23.3107424  67.3423386
  56.2953424  38.4036374  47.3591805  56.4065409  38.4356546  48.3093596
  55.7844877  37.6090789  47.2044611  94.5938338  95.0693889  91.4655685
  94.3123318  94.4919569  92.1751881  95.5342163  95.1801879  91.6057014
  61.5992355   8.4841901  56.9113016  61.7290401   9.4132024  56.7207289
  61.4129353   8.4559530  57.8497696  20.2980876  35.3997469  65.0481033
  19.8278725  35.2134371  64.2354441  19.6893942  35.9319949  65.5603933
  33.4973454  32.9572988  78.6575985  33.1105924  32.1410704  78.3406973
  33.3908844  33.5708570  77.9306555 102.2031099  93.4620135  84.2335847
 101.7962152  94.2023748  83.7835470 102.6678354  93.8563984  84.9716380
   4.2113382  22.4440622  59.6034813   3.9986017  23.2882166  60.0014496
   3.5310957  22.3123980  58.9430523  23.7785840  51.2327242  51.3992548
  24.2594457  51.6204119  50.6680202  24.4543076  50.8252621  51.9411087
  59.1485167  39.9994254  63.4832859  58.8703203  39.5376897  62.6923132
  58.4572887  39.8203802  64.1207647  68.0703289  72.2613455   7.9602024
  68.2012278  71.3511814   8.2260868  67.7471740  72.6971354   8.7487957
  57.8098631  40.1522875  70.5778408  57.9929066  41.0473490  70.8634853
  57.0248413  40.2297163  70.0356483  41.6870451  37.0976138  49.7817612
  40.9749126  36.7930841  50.3442192  41.4849997  38.0186296  49.6170139
  29.3369842  35.9817147  55.4588032  30.2571654  36.2449121  55.4438162
  29.2040634  35.5279779  54.6265221  13.4740555  45.1647902  46.7746544
  14.1357076  44.9587059  47.4349403  13.8697469  44.8936749  45.9463072
  37.3682404  21.0104299  80.9568214  36.7222524  20.6073046  81.5368366
  36.8497539  21.3866854  80.2455997  78.6664850  66.0562207   1.6152737
  78.4410078  66.9624080   1.8255493  77.8266389  65.5971654   1.6027233
  46.9302279  83.3140828   4.5741913  47.5216514  83.5930278   5.2732155
  46.0739190  83.2485081   4.9968788  18.4486210  21.1209655  41.2524652
  19.2657959  20.6726122  41.0346651  17.7654386  20.5785465  40.8584166
  15.2789605  37.9402804  69.7959042  15.8673418  37.6548743  70.4948902
  15.8441162  38.4139276  69.1855860 106.0377605  21.3585544  76.9148970
 105.2245410  21.7624736  77.2178125 105.7831104  20.4732251  76.6549397
   4.4439170   3.5052487  86.7471123   4.0380520   3.0707487  87.4972534
   3.9747533   4.3358999  86.6687775  29.0601611  36.3165426  63.2673597
  28.4149146  36.9887614  63.4864712  29.5063853  36.6566038  62.4918079
  36.4958477  41.4665413  79.7254372  36.9835329  41.8601084  80.4489708
  36.8885565  41.8442249  78.9384365  42.5052357  33.5140777  87.0869350
  41.9451618  33.7333465  87.8315544  43.0038023  34.3136549  86.9185925
   4.7692459 107.5029815  82.5917053   4.0679472 107.4960120  83.2431412
   5.3297156 108.2343442  82.8509712  12.8509820  11.2295282  84.9631500
  13.6780918  11.1158597  84.4949627  12.7667701  10.4388380  85.4960251
  89.1455174 102.8262855  95.7357597  89.8720695 102.7700306  95.1151276
  89.3855227 102.2248055  96.4406395  15.9334612  33.4364152  78.9757681
  15.7675982  33.3417988  79.9137306  16.3480353  34.2950296  78.8912678
  55.9220177  96.7546274   7.2105476  55.6007416  97.5240804   7.6806137
  55.1566369  96.4246227   6.7398903  39.2461228  12.0707083  91.4230824
  39.1411304  11.1192977  91.4282036  39.6880317  12.2673523  92.2490883
  62.1636880 110.4806087  61.2898588  62.0511819 109.5449586  61.1221313
  62.6489116 110.5195445  62.1140432  19.5277441  44.5960617  50.0655842
  19.4272637  45.3269672  49.4557381  19.6462727  43.8300705  49.5039463
  22.8718441  78.5930056  68.3885384  23.5226792  78.9369936  67.7767229
  23.2296723  78.7894220  69.2543411  28.0711055  33.6960530  63.5206032
  27.6718783  33.7562609  64.3884897  28.2661223  34.6026230  63.2832623
  25.4754114  63.7863398  70.7951117  25.9190369  63.1900215  71.3982964
  24.5460606  63.5796452  70.8941984  47.3309040  16.5238535  61.6069031
  46.4258242  16.2128282  61.6247463  47.2643280  17.4390793  61.3345766
  51.7740297  23.6393547  44.8065042  51.5921783  23.1131101  45.5851126
  51.2329578  24.4215584  44.9143648  20.0085163   2.2306390  84.5188618
  19.2947376   1.5964353  84.4514942  20.3658295   2.2841443  83.6324692
  61.3343477  13.8759339  40.1413965  61.2059546  13.3831954  39.3308711
  61.7241955  13.2447183  40.7462263   7.1830099 109.0507693  28.0867100
   7.3123949 108.8432969  27.1612644   7.1316593 110.0062278  28.1130600
  19.4166791  13.2360494  57.9010057  18.8600004  13.7887025  57.3524475
  18.8937366  13.0737746  58.6861372  53.7256002  15.5783987  31.6886520
  53.7364483  16.0223222  32.5366187  54.2516470  14.7902703  31.8241549
  26.7409468   0.3498102  57.9122400  27.3782682   0.4146406  58.6234713
  27.2213745  -0.0679574  57.1974754  32.3586822  14.2337668  62.8270149
  31.8389082  14.9103856  63.2608986  33.2513952  14.5791471  62.8294563
  36.0336828  13.4022117  84.1030216  36.5686941  14.1578293  84.3459988
  35.2136421  13.5257161  84.5810509  50.9520245  19.2367899  86.6339493
  51.4309788  18.5005009  86.2535381  50.7936144  19.8261249  85.8965015
  31.5205455  16.5759063  72.0006466  31.7290878  15.6918025  71.6988134
  31.8089032  17.1464598  71.2882185   7.4788231  44.7277164  32.6374865
   6.6365933  44.5293760  33.0468059   7.5083506  44.1635656  31.8647695
  56.9896364  13.1834173  86.7183304  56.7776442  12.4470079  86.1447430
  56.1453485  13.5961485  86.9001675  99.2685695  19.5812118  76.7468214
  98.7404366  20.3680420  76.8817472  98.6609693  18.8565874  76.8950558
  23.4492326  14.9288070  73.0571032  23.5704660  15.0695133  73.9961147
  24.3366122  14.9298441  72.6982307  70.6193502 101.2812824  69.0287924
  70.2011550 100.9603758  68.2298183  69.9173547 101.2905569  69.6794462
  44.2677355  50.4404497  32.4067140  43.3513832  50.7007408  32.5004435
  44.3494415  50.1774073  31.4899993 114.3358110   6.2825239  29.0237951
 114.1075136   6.2009853  28.0978012 115.2922158   6.3206112  29.0322280
  22.8475523  54.1552305  43.3534145  22.5688529  53.3844376  43.8478231
  22.4641204  54.8942471  43.8257170  12.3130906   2.2517337  80.6982708
  13.1096506   1.8836302  81.0806656  12.5418127   2.4198663  79.7841358
  51.5996218  11.6969419  68.9588594  52.4882936  11.8541384  68.6398268
  51.0358810  11.9256949  68.2198715  42.1849442  25.1671076  60.0220537
  41.5522146  24.6408534  59.5332432  42.6414061  25.6761599  59.3521738
  24.8815370  26.0955334  63.2418966  24.5636034  26.3933849  64.0942097
  25.8285642  26.0139847  63.3546734  29.6480680  40.5599070  55.0968695
  28.8947248  40.3162766  55.6347847  30.2484274  40.9896183  55.7060862
  41.4073372  41.8149328  74.0335226  41.6642141  41.0811138  74.5918703
  40.5663252  41.5497065  73.6612558  44.6757221  50.7666302  67.4530315
  44.3233871  50.4769468  68.2945633  44.0032005  50.5254793  66.8160152
  54.7756958  45.9034157  61.3517427  55.4495811  46.3755035  60.8626175
  53.9617586  46.0984516  60.8873081   4.0189499  15.8628118  81.9137573
   4.1021463  14.9715233  82.2527504   3.3309877  15.8036888  81.2508583
  25.0208688   0.2402434  94.5718288  24.3391490  -0.3342461  94.2233372
  24.7602391   0.3981445  95.4792309  18.4968519  23.1836629  76.6395617
  18.8974583  22.6220202  75.9760094  17.5767171  23.2400084  76.3818645
  18.3756423  21.5721059  67.8661156  19.1668952  21.1273384  68.1699800
  17.8737915  20.8899546  67.4199677  50.7850027   8.2506943  80.7590103
  49.9274492   7.8728527  80.9541416  51.3778973   7.8351790  81.3851547
   6.6998130   9.8139238  57.8613901   7.2991872  10.5550647  57.7736807
   7.2675353   9.0687048  58.0577898  54.4512558  61.8929291  93.5903072
  54.9846840  62.1934271  92.8545189  55.0823355  61.5266228  94.2098045
  27.2824550   5.0686562  75.1115704  27.4519610   5.6459433  75.8560419
  28.1230068   4.6432158  74.9421406  28.4921980  42.7144146  39.9389648
  28.4083176  42.7427244  40.8920622  29.3954134  42.9825020  39.7699523
  30.8270216  26.3765788  38.4039879  31.7203188  26.3200498  38.0647922
  30.3102779  25.8325267  37.8096700 110.7457698  43.6183030  14.0024254
 109.9630440  44.1683156  13.9698860 111.4173044  44.1800267  14.3893787
  19.7281635  61.5650272  51.3082933  20.0717354  60.6722641  51.3424492
  18.9595103  61.5043211  50.7410908  27.0631170  40.8711767  68.4388781
  26.9013572  40.6196737  69.3481731  28.0022860  41.0527897  68.4040546
  79.4798725  97.7640993  62.4826288  78.8492804  98.4149833  62.1745110
  79.5323549  97.9098613  63.4272051  35.4913497  50.7710886  95.3748894
  36.0919738  51.5161228  95.3949833  35.9446478  50.0847340  95.8644581
  10.8569908  36.7753935  50.4129648  11.1327994  37.3145390  51.1542368
  10.2743292  37.3425746  49.9079514  91.9246990  49.7454782  12.3836777
  92.7834827  49.5328285  12.7490494  91.7333442  49.0230896  11.7855331
  40.1274538  38.1214595  82.3902988  39.9993777  38.4129882  81.4876175
  39.6552372  37.2905111  82.4429226  13.9857066  15.2983129  57.1870995
  13.2819843  14.6580100  57.0821285  13.6302567  15.9475076  57.7940845
  74.4740677   8.6126536  53.8650465  73.6269522   8.5624284  54.3078852
  74.3859196   9.3511468  53.2624769  83.6834223  72.9790034  10.8522198
  84.0748293  73.7246467  11.3072464  84.4208748  72.3976447  10.6666920
  33.7974310  27.7497768  33.8576698  34.2439723  28.5741758  33.6648059
  33.3013535  27.9273367  34.6567988  56.8834400  39.8375463  65.0473547
  56.0344315  39.6962953  64.6284723  56.9176912  39.1838026  65.7456970
  12.5892162   3.1513721  50.0977564  11.6722441   3.3911902  49.9640369
  12.5938332   2.6764211  50.9287977  38.5805106  25.8673787  63.6666632
  37.8942275  26.2550330  64.2097759  39.1922045  26.5856218  63.5048246
  12.2452605  38.8101411  37.7090979  12.5593996  37.9289246  37.5066066
  13.0395615  39.3104935  37.8960872 107.0227612  98.9091308  83.9765549
 106.8922986  98.0419392  83.5929012 107.8565420  99.2084606  83.6140060
   4.5841521  30.7800603  45.8309221   3.9113438  31.3372278  46.2222338
   5.4088932  31.2205243  46.0359240  26.2975979  54.7338486  20.7410550
  26.3663602  53.7858057  20.8538485  26.4365244  55.0901461  21.6185403
  14.2960513  24.8552632  51.7356253  13.4493518  24.7406840  52.1671343
  14.1036022  24.7638535  50.8024359  30.9582448  44.8374939  69.7721386
  30.7050443  45.7484293  69.9215412  31.1422420  44.7908306  68.8339520
  16.1107981  14.5613122  90.8805084  16.0627759  14.0638423  90.0641441
  16.8702269  14.1994417  91.3371849 103.6723692  52.1382047   4.2033646
 103.9488727  52.2332518   5.1148102 102.7831299  51.7882221   4.2580864
  32.6406264  43.5352039  94.3323135  32.8269219  44.2378712  94.9550343
  32.6327682  43.9677334  93.4784508  85.7738287  73.9869453  19.1266319
  85.7056934  74.5645251  18.3663723  85.2285606  74.4038572  19.7937939
 112.0891274 108.5805548  73.3053970 111.5236319 108.6703251  74.0724611
 112.7199591 107.9037477  73.5507822  15.1000845  17.4428833  65.9756374
  14.8815465  17.5804627  66.8973446  14.9514246  16.5084028  65.8311415
 114.6112383 109.6505835  47.5245476 114.1296781 110.2884917  48.0512381
 115.2593363 110.1717367  47.0506287  65.0080013   6.3823682  50.5577898
  65.7902670   6.5089011  50.0208712  64.9174595   5.4321194  50.6289244
  58.5410023  23.5541058  78.1426477  59.4889927  23.6417270  78.0433512
  58.3476114  23.9776731  78.9789629  14.0436256  20.6204104  83.9241123
  13.5679865  20.1431632  83.2442379  14.9267662  20.7250047  83.5700607
  40.4370165  39.3047976  66.3866663  39.5367908  39.0436053  66.5805769
  40.8818483  38.4862256  66.1668968   8.9051312  84.4777579  62.7048540
   8.0834120  84.7649498  62.3066998   9.5847481  84.8143978  62.1208763
  32.5230694  22.8535175  77.9642153  33.0870080  22.9839540  77.2018576
  31.6332197  22.8985715  77.6144028  95.0374109  98.2848074  11.5187523
  95.9709436  98.0732681  11.5178844  94.9975569  99.1939403  11.2219116
  12.5940061   6.5547401  62.6928759  13.0698287   7.3835552  62.6391029
  11.8005347   6.7655873  63.1849957  29.3721080  54.3627691  86.6562462
  30.2849483  54.1937113  86.8894291  29.1108012  53.5988045  86.1421394
  59.2094707  34.7756362  69.8203945  58.7893581  34.7521830  68.9606333
  59.8972797  34.1119218  69.7690678  25.1805305  28.7154341  79.0894318
  24.3891811  28.1912565  78.9659977  24.8955154  29.6174765  78.9434242
  60.5212290  87.3016025   4.2154572  60.7712347  88.0785777   3.7154171
  60.4940016  87.6002957   5.1244518  93.4498156  97.4429412  35.5340457
  94.1075755  97.4011822  36.2281919  93.9466573  97.3181314  34.7254634
  39.3104243  51.8736887  66.8880844  39.1896319  52.1265364  67.8033447
  38.5586238  52.2535801  66.4334297  99.4991935 104.2377831  31.9484162
  99.3231452 105.0795097  31.5280175  98.7172140 103.7143178  31.7731333
  61.5271425   3.7166178  70.6791830  61.4168024   3.6176005  69.7335339
  60.6775427   3.4724316  71.0463190 109.1959847  95.8056922  57.4613285
 108.7393440  96.3496847  56.8196249 109.4350923  96.4119608  58.1623983
  19.5444846   9.7043580  77.8531218  18.8790095   9.6745884  78.5405016
  20.3769350   9.6611542  78.3236456  93.8383032  83.6243124  59.3660307
  93.2745815  83.4418054  60.1177883  93.5527588  84.4835539  59.0555429
  93.5633536  11.5416241  81.7226219  94.1231461  11.5252757  80.9463501
  93.8500352  10.7894182  82.2405338  30.5267239  50.4701471  75.6359577
  30.2441216  50.2069235  76.5117884  29.7171164  50.5190372  75.1276541
  17.3858488  29.3138838  58.5045576  17.4749804  29.7435546  57.6538706
  16.4669752  29.4397259  58.7413406  15.0283497  92.1854968  43.8061571
  15.4506272  91.6792936  44.5001793  14.1709822  91.7740126  43.6973619
  26.8022799   3.5229248  53.4582806  27.6364374   3.0994523  53.6609793
  26.5422630   3.1491166  52.6163244  20.4029751  40.0729561  60.4467440
  20.0505471  39.6899772  61.2500858  21.3222837  39.8064542  60.4376125
  82.7789098  53.3360727   1.3555214  83.5271198  53.7917487   1.7412350
  82.0237476  53.8766042   1.5874359  41.1467457   2.6444355  77.8160095
  40.9233427   2.4379961  78.7235928  40.9881926   3.5852134  77.7383614
  10.9419602 107.4802066  55.1835203  11.2000149 106.8759949  55.8796310
  10.9435957 108.3414928  55.6011534  47.5501060  41.7319870  50.6874990
  48.4463358  42.0492125  50.5763006  47.1974897  42.2572851  51.4057970
  67.6370389  82.3209764  14.1568443  66.7982871  82.5095274  14.5777676
  67.4042327  81.8335606  13.3666203  21.5547848  54.0291262  66.9087124
  21.7112184  53.5034847  66.1242008  21.0563850  54.7840357  66.5957546
  53.5326910  40.1909256  70.5587864  52.7552700  40.1678371  70.0008249
  53.4281445  39.4425130  71.1463070  27.5309014  14.5319438  50.7185936
  28.3606601  14.5143390  51.1954832  26.8620872  14.5626485  51.4026785
  53.4725666  14.7259986  90.8494949  53.3923960  14.0630651  90.1636887
  53.4104967  15.5603635  90.3845024  33.4060836  25.9507370  56.5968704
  33.7665176  25.8299470  57.4753523  32.4675155  25.7931781  56.6993189
   4.9754730   0.8922137  75.3664351   4.2634487   0.2556567  75.4300594
   4.6722648   1.5266088  74.7169447  89.1770107  83.8349034   1.8492577
  88.9736253  83.9043333   0.9164974  89.5731765  84.6774866   2.0713779
  53.7790108  30.4364395  62.3659897  54.2851305  31.2412477  62.2548246
  53.7826824  30.2796960  63.3102655   8.3493775 107.8091810  53.7551737
   9.2909973 107.6731930  53.8604879   8.1325596 108.4883694  54.3938637
  20.8232093  21.6265893  18.2477021  21.2090325  22.5023055  18.2255554
  21.4900804  21.0611296  17.8581238  28.8734412   7.4384153  83.4971142
  28.2261634   7.8388798  82.9166889  29.1384459   8.1459922  84.0847683
   6.1719859  21.6874051  52.1155977   6.3002646  22.6359630  52.1115303
   6.8345189  21.3587213  52.7232552  42.9039145  26.9539309  58.0591965
  42.0033646  27.0625639  57.7535295  43.1459332  27.8142667  58.4019566
  39.4387007  61.8094301  58.9584160  39.0459919  61.3788795  59.7177839
  40.0480843  62.4458075  59.3324661  84.6934032  17.7425385  64.6138000
  85.2872753  18.3011675  65.1152802  85.0208569  17.7903259  63.7156200
 111.0828282  49.1638803  55.4204273 111.1288269  49.7690344  54.6802235
 111.9783010  48.8413620  55.5221272  40.1632452  21.4746881  66.1962128
  40.7072163  21.0666180  65.5225611  39.6828318  22.1608543  65.7329559
 113.1273241  39.8886490  73.0311489 112.3372598  39.3690252  72.8827524
 112.8021575  40.7630110  73.2456017  38.6547006  92.1089889   9.0930435
  38.7129659  92.1800305  10.0458214  39.0522853  92.9167201   8.7678787
  56.1120605  25.8910394  37.3601222  56.5376329  26.3831782  38.0622029
  55.5458069  26.5307355  36.9284081  42.2541428  33.4437609  54.8045826
  41.5533161  33.5081577  55.4533720  41.8281317  33.0834961  54.0267944
  25.6013608  21.9034910  70.7970524  26.1946106  22.5846148  71.1138439
  26.0787773  21.0858059  70.9373903  15.0326562  24.7943377  41.0834932
  15.3074014  24.9002695  40.1727104  15.2303529  23.8805008  41.2885618
  37.0821261  33.0458379  77.5520706  37.8848004  33.5518098  77.6783133
  36.6687536  33.4401345  76.7840290  57.3916864  23.8899589  67.9817152
  57.2274637  23.4627295  68.8223934  56.5271997  24.1734982  67.6842260
  23.9418769  53.1432629  18.8841963  24.1560292  53.2339382  17.9556775
  24.6077228  53.6622381  19.3353570  39.3037724  13.6559939  79.7110033
  39.5494342  13.9722645  78.8416052  38.7848639  12.8696060  79.5420074
  15.1137846  96.0960038  65.9461832  15.6976050  95.3816218  66.2012196
  15.4458779  96.8578608  66.4210749  79.3045289  78.8300921  14.2397282
  79.2259247  79.5774032  14.8326656  79.4921333  78.0875160  14.8138496
  18.3727902  97.4046512  65.7123947  18.3374613  98.2844479  66.0878181
  18.8273447  97.5184805  64.8777390  95.6489307  86.1134340   9.6946499
  96.5486938  85.8339192   9.8635742  95.1593906  85.2970554   9.5941231
  33.6399102  17.4548495  88.1641483  32.7098012  17.2400582  88.0934906
  33.9687800  16.8727612  88.8491631  21.5796256  39.8472095  81.1264515
  22.1565032  40.2286911  81.7882061  20.7099319  39.8688173  81.5257072
  47.3517942  18.9979208  80.2898216  47.7206993  18.5309756  81.0395622
  47.9341364  18.7803292  79.5619774  12.1847868  19.6975994  59.1851377
  11.5564859  20.4037023  59.3364239  13.0318487  20.1393890  59.1256428
  98.5134173 101.3689942  69.5018768  98.8771404 101.7059816  70.3206444
  98.8172234 100.4622478  69.4601107  37.7409506  10.4739642  63.4306479
  38.5278535  10.8248496  63.0136395  37.0958400  11.1770213  63.3546638
  33.1593418  13.9113581  50.9877014  32.6596713  13.1011820  50.8868361
  33.7843633  13.7217414  51.6874313  27.0696902   2.3502688  72.3972082
  27.7668452   2.6789221  72.9648304  26.3005805   2.3033535  72.9651022
  18.0746126  26.6596341  58.1575346  17.8157270  27.5750470  58.2635021
  18.1445110  26.5385747  57.2105980 114.2743768   4.7685122  87.2768021
 115.1655988   5.0739384  87.1074772 113.7132667   5.4444271  86.8966389
  55.3215694  24.3461800  89.9920559  54.8400164  24.8639464  89.3468666
  54.6423721  23.8850355  90.4842567  23.2516336  17.4026906  91.3605785
  24.0185404  17.9449570  91.1760998  23.6063695  16.5238035  91.4945602
  21.7546439  15.6900907  62.4500275  21.8761349  16.0934150  63.3095646
  21.4424396  16.4030707  61.8928719  99.5424826  22.5537252  66.8304205
  99.4856198  21.6024518  66.9202995  99.2752035  22.8914666  67.6852465
  91.1956120  28.0612040  66.8783236  91.2724781  28.3509707  67.7873659
  90.2581787  28.1079125  66.6905022   6.5089077  13.4242439  38.8413358
   6.3655108  13.8724220  39.6748877   5.6290704  13.2175267  38.5260820
  34.8852229  19.6888041  39.3904996  35.0013018  18.7427354  39.3026757
  34.0258980  19.7876489  39.8004007  25.1335883  28.6079097  86.3121510
  25.3050256  29.1879749  87.0540237  25.6630921  28.9668536  85.6000996
  42.6556301  28.7596202  66.1615753  41.8248558  28.3591127  66.4177752
  42.5998449  29.6572971  66.4891338 108.6587270  36.7396379  37.7530456
 109.3506934  36.0979867  37.5927353 109.1099127  37.5838304  37.7517319
  55.4438543  16.4161825  88.7410545  55.3467703  15.4639220  88.7434673
  55.1430941  16.6854000  87.8731251  67.6147652  29.5751071  36.7623806
  67.4276876  28.7961602  36.2384748  68.2993984  30.0330067  36.2746978
  15.9536099  12.8041518  88.8816643  15.0553942  13.1310987  88.8312054
  16.2071598  12.6588464  87.9701614  46.0701466  22.3917294  53.0980730
  45.9421253  22.8444433  53.9316750  47.0058060  22.1910405  53.0757332
  38.3078432  28.5529232  55.1735497  38.7309575  27.7888203  54.7819471
  37.3793459  28.3224750  55.2054358  10.2656245  79.3719673  55.7866955
   9.6577734  78.7356234  56.1632776   9.8793620  80.2231789  55.9927940
  40.7635117  24.9071312  25.7818460  40.9112453  24.3095112  26.5148234
  39.8274875  24.8318172  25.5963182  35.3795505  31.2600422  53.5946655
  34.7272348  30.6294370  53.8997126  36.0653496  30.7225299  53.1984472
  21.0137916  41.4520836  53.9571667  21.8607044  41.8964195  53.9963531
  20.9043241  41.2262249  53.0334616 108.4563650  65.6902647  74.4256210
 107.8427179  66.3996029  74.2345428 108.6863424  65.8140755  75.3464985
  20.7134390  21.1174703  45.0178862  21.1203814  20.9154725  45.8603954
  21.4014506  21.5579867  44.5190668  23.0100274  27.6315618  70.3428745
  22.1627331  27.2765899  70.0739574  23.2461548  27.1250653  71.1200094
  47.2658587  11.9206917  68.4503889  46.6287088  12.4167120  68.9644289
  47.8473377  11.5296543  69.1024637  60.9880733  37.0662808  64.3070555
  61.4727783  36.6634536  65.0274897  61.0393620  38.0063391  64.4799519
  30.0997925  37.1304154  60.9976864  29.7347355  37.9680133  60.7123852
  30.9191132  37.0475936  60.5097437  99.3692220  19.0250356   6.9027969
  99.2752970  19.8609406   7.3595974  98.5291136  18.5851771   7.0330784
  66.0145330  26.7327452  65.8907700  65.8077335  27.6483893  65.7035208
  66.7611790  26.5353489  65.3252697  46.8178034  46.6633844  41.2516069
  46.5036297  46.9394302  40.3906012  47.7427101  46.4583826  41.1146593
   9.3261868  50.2568722  93.8011074   9.2302477  50.6426859  94.6718407
   9.7301966  50.9478426  93.2761669  56.0194189 107.8326036   7.5451824
  55.6796104 107.2523166   6.8639824  55.4065174 107.7316620   8.2734654
  37.5663257  46.4816999  58.5745478  37.3468399  45.9761477  57.7919388
  37.1189070  47.3189878  58.4521008  51.1497498  35.6441092  79.5733500
  51.1052608  36.1275887  80.3982735  51.8299866  34.9863195  79.7176409
  27.0592046  11.0027730  46.5735960  27.6761436  11.5281045  46.0640430
  26.7770672  11.5833032  47.2804308  23.3647680  69.6800709  71.2989473
  23.7606883  69.0947962  71.9446516  24.0987921  70.1895285  70.9555960
  26.3353229  36.0448122  42.1840763  26.1408162  36.4047742  41.3187265
  26.7184854  35.1859879  42.0056391  35.9222722   1.8901208  68.9611769
  35.8922625   2.8154275  68.7179947  36.7306519   1.5645219  68.5652733
  64.7844887  39.5187926  34.4502234  64.7266436  38.5664129  34.3736863
  65.6733179  39.6800900  34.7667718  11.2893360 106.1928440  91.6449642
  10.9318035 105.7580049  90.8708096  11.8831890 106.8565039  91.2940693
   1.6294771  57.6082611  46.4241934   2.1510556  57.7049780  47.2209597
   1.1385776  58.4273577  46.3583803  10.6833649  24.9230266  45.0704384
  10.3083766  24.1472244  44.6536064  10.5077708  25.6343627  44.4544840
  21.7914462  30.6370711  43.7945127  22.1567988  29.8530650  44.2044973
  22.3823833  30.8233380  43.0649042  32.7473617   2.6002532  77.8355026
  32.5132799   3.2002866  78.5435963  33.3180761   1.9526479  78.2491779
  39.7708321  33.6901450  43.9614391  40.5584621  33.3012843  44.3417740
  40.0197840  33.9046502  43.0624151  41.6599703  34.6413231  83.1216717
  41.9566345  34.8814034  83.9995003  42.0897627  35.2711320  82.5430012
  54.8073530  39.3541312  74.8992777  55.1186895  39.9223590  74.1947079
  54.5935917  38.5286236  74.4644499   2.7853161  68.9328480  54.4675970
   1.9998950  69.3612528  54.8079109   2.4630567  68.1260014  54.0658760
  35.1286411  42.4498415  75.0561094  35.3791070  41.5267277  75.0929594
  35.9383845  42.9089975  74.8331213 109.1265209  28.3032012  54.4547510
 108.8989188  29.2204928  54.3030739 109.8222686  28.3344793  55.1113987
  47.1167994  39.9984455  57.1570826  46.4523172  40.6292820  56.8800592
  47.1393633  39.3498230  56.4535093  64.5012283  33.2032514  66.8112898
  64.5367765  33.2113338  67.7677965  63.5725737  33.0931377  66.6070509
  39.0602207   4.6975461  90.3390217  38.3069253   4.2288536  89.9797058
  39.8136759   4.3297747  89.8771954  44.6319628  54.3899202  73.3601475
  45.1260567  54.7611856  72.6292133  44.8965645  53.4703684  73.3855963
  39.6455359  33.3413815  55.7363844  39.3081212  33.2942271  56.6309023
  39.1693068  32.6582241  55.2644444  24.1961861  27.0558619  60.5623674
  24.6441436  26.6678286  61.3140297  23.3655071  26.5833163  60.5084705
  41.4860582  25.5628037  81.7384052  41.3148212  24.8893118  81.0801411
  42.2995281  25.9773588  81.4509296  40.1862240   9.3573076  56.6914177
  39.7906566  10.0023544  56.1051846  40.0691414   9.7258639  57.5670290
  13.0026644 108.8929604  66.9990110  12.0749205 109.0976686  67.1157265
  13.2915610 109.4804455  66.3007021  45.3820610  53.8387585  62.1457815
  46.2120056  54.2343092  61.8793917  44.7161913  54.3374109  61.6722918
  39.7314095  17.5558436   5.9898597  38.7901402  17.7145064   5.9186643
  40.1315069  18.4089911   5.8216518  40.9509659  14.0583944  59.8442841
  40.8573437  13.5634613  59.0303373  40.0890923  14.4494963  59.9872684
  68.7071306 108.6275341   7.8939888  68.4083134 108.4917309   8.7931511
  69.1942746 109.4509079   7.9252598  29.4319820  37.6808286  28.5091257
  29.4379067  38.4900260  27.9978561  30.2360511  37.7188635  29.0270615
  22.2717350 108.1431324  81.6852856  21.9584149 107.2899417  81.9855022
  22.3020094 108.0651994  80.7317448  47.3730040  26.9296741  60.8141136
  46.7045498  27.3825026  61.3282633  47.9452372  26.5266991  61.4670992
 102.2917546  18.2441956   3.9971325 102.4941600  18.0211121   3.0885670
 102.9858006  18.8507945   4.2551395 101.6017563  81.5830995   1.1040470
 102.3029787  81.0356523   0.7507488 100.8651191  81.4421512   0.5092976
 116.6493227  52.4081135  75.4527473 117.3881009  52.8385830  75.0224781
 116.2475245  53.0957890  75.9836817  52.0037889  53.8206482  86.3502502
  52.5947189  53.8837194  87.1006203  51.9075823  54.7226429  86.0446644
  36.3661933  44.1360855  84.6532059  36.4282227  43.9633465  85.5926418
  35.6857395  43.5380173  84.3441200  58.6663198  33.0489540  46.1095715
  57.9702139  33.6967683  46.0000229  59.1277170  33.3247805  46.9015694
  43.2783604  53.9542866  42.7913380  42.4562788  53.7851477  42.3311186
  43.2070875  54.8632574  43.0827522  64.6156502  26.8791270  60.3851843
  65.3905153  27.1479440  59.8916769  64.5076418  25.9515762  60.1749134
  25.4099870  37.2142696  51.7819071  26.2689567  37.5918388  51.9712353
  24.7883487  37.9025412  52.0187187  79.7860367  90.6862570   9.1109345
  79.4720108  90.1068188   8.4167645  79.9294645  90.1073052   9.8595783
  44.9991751  22.5820231  47.4287081  44.6267748  21.7003655  47.4136496
  45.7100534  22.5527239  46.7883778 114.1276742  53.0535841  61.4306927
 114.7929113  52.6175022  60.8982182 113.4897299  53.3806133  60.7964134
  73.1055832  22.9366326  49.1264009  73.4015846  23.1698704  48.2465029
  73.4200430  22.0418334  49.2555523  60.5505657  41.7144060  58.2252359
  59.6021700  41.6098309  58.1487703  60.6907988  41.9678450  59.1375589
 116.6561364  10.0277555  77.3623514 116.2241153  10.7671976  77.7899218
 116.1110327   9.2722154  77.5820160  12.2418928  31.1642766  58.8949537
  12.2270179  32.1057463  59.0671253  11.4242744  30.9933305  58.4275007
  53.5584784   1.6558190  46.3978481  52.9807997   1.4207590  45.6717157
  53.8466740   2.5460342  46.1961269  15.5929232  40.8064890  42.9096222
  14.9982512  40.7053137  43.6528349  15.6805491  41.7533636  42.8001642
  39.7077894  59.0232849  64.5182037  39.4381976  59.7845745  65.0320053
  39.1459370  58.3133984  64.8290253  53.5470247  50.0216866  62.0317030
  52.8922319  50.7101631  61.9156170  54.3633652  50.4930973  62.1977949
  44.6251345  37.9133177  56.3588285  43.9942169  37.9991794  57.0735312
  45.2539349  37.2627711  56.6712904  17.2943187  50.9081841  88.8722706
  17.4655378  51.5324116  88.1671047  17.0369244  50.1034069  88.4224796
  24.0154839  56.8575478  28.8704491  24.8508024  56.8680811  28.4031582
  24.1667771  56.2798166  29.6184969  56.2737703  40.3711557  32.2536516
  56.2055397  40.5336475  33.1944895  56.4753532  39.4378901  32.1857738
  69.3907601  99.3883468   8.1877491  70.3001243  99.6343233   8.3574173
  69.3586451  98.4492351   8.3701393  41.3446474  36.1147523  57.5212383
  42.1352339  36.5528226  57.8363609  41.0959959  36.6042018  56.7371178
  13.7383866  13.2172143  43.3489990  13.3850121  12.9021764  44.1809320
  14.5610857  13.6457360  43.5851526   1.3354427  19.8976290  79.9633741
   1.4001983  19.0664470  80.4336643   2.1022095  19.9090600  79.3905163
  71.0798264  36.3726258  43.7336111  70.9141827  36.8916249  42.9465675
  72.0268154  36.2331772  43.7336397  31.3368797  39.0592527  57.4167061
  31.5069056  39.0344572  58.3583546  31.2600780  39.9910688  57.2116423
  50.0243139  35.3529930  86.8226147  50.0799179  35.3759551  85.8673096
  49.6476603  34.4954515  87.0200634  27.6627541  54.0662956  61.6063738
  27.7225399  54.4413519  60.7277441  27.9374290  53.1558561  61.4973593
  32.0588255  43.7604761  72.2212219  31.5959239  42.9358244  72.3692226
  31.6867352  44.1013765  71.4078569  37.6388597  24.8161197  79.6198511
  37.6661253  25.7641935  79.7488642  36.7734861  24.5562005  79.9357700
   1.4535873  16.7945850  77.1212387   1.5852477  15.9975767  76.6077471
   1.2438641  16.4808452  78.0009079  34.3941712  33.0327177  49.0589619
  34.4878650  33.5231900  49.8755932  34.2678952  32.1256828  49.3374825
 116.2983841  60.7624245  49.5351839 115.7270630  61.5215588  49.4188118
 116.2941614  60.3266001  48.6829662  29.6015286  38.8454294  67.1734095
  30.3354645  39.4598484  67.1657658  29.1569400  39.0137053  68.0042267
  25.7812047  34.9958730  26.5743279  25.9920478  34.9126554  27.5043035
  26.5680838  35.3756309  26.1833858  17.0646286  47.9047537  69.5553207
  16.7987514  47.5265217  68.7171793  16.6728377  48.7780952  69.5590210
  34.7471237  33.1081200  81.5065956  34.5626378  33.0551004  82.4443531
  33.8899684  33.2380342  81.1008358   1.6436087  28.8900113  74.7647190
   1.2113507  29.4653416  74.1335440   0.9634987  28.2704568  75.0289774
  44.1372871  58.7570047  76.3841867  43.5121536  59.0777874  75.7341576
  44.4314957  57.9144382  76.0381413  63.3843184  29.0667939  77.2196913
  62.8232670  29.1996312  77.9837608  63.5760069  29.9508309  76.9067001
   1.7761296 100.5470581  74.9969435   1.5507763 101.2730152  75.5786943
   2.6813763 100.7196517  74.7381496  57.4992990  28.6532521  49.0965700
  57.6916027  29.1398978  48.2950544  57.9747868  29.1228962  49.7818279
  16.9287968  52.3928928  84.2263508  16.8488145  53.3169270  83.9897251
  16.0310292  52.1126938  84.4044971  38.3082914  37.5997543  56.7882490
  38.4372187  38.3348346  56.1888599  37.3587680  37.5403452  56.8936396
  24.3574429  44.0393114  58.9326668  23.5618258  44.4301176  59.2939091
  24.8682237  43.7828112  59.7004795  46.7446184  77.7984095  77.8832436
  47.1687317  77.2227335  78.5196066  46.2099075  78.3891058  78.4137058
  57.9307175  27.6576376  80.3797626  57.9873228  28.2551336  81.1254406
  57.1400213  27.9299974  79.9140930  46.4073896   1.0270809  53.8881588
  45.6798363   0.4631604  54.1506386  46.3706303   1.7645600  54.4972610
  12.2540832  46.6970062  74.9953461  11.4356053  46.4172983  74.5853615
  12.2962511  47.6385212  74.8280144  25.1531839   3.9870051  60.3529453
  25.0739384   3.4111297  61.1134195  24.2689633   4.3275350  60.2172041
  54.3586159  28.0539227  13.6898029  54.5861340  27.8905320  12.7745044
  54.3187332  29.0077019  13.7601054  44.9395990  71.0947847  72.7812099
  45.2064800  70.1765347  72.8238344  44.1619539  71.0925341  72.2230864
  35.2337146  43.4011793  68.4983683  36.1801982  43.4296656  68.6383247
  34.8780179  44.0151978  69.1407824  26.2404203   7.9349846  29.9392819
  25.6635714   8.4333467  29.3603921  27.0710397   7.8866643  29.4660282
  51.5993595  43.2520819  60.8048534  51.1889553  43.0563879  59.9625301
  52.1055079  44.0487003  60.6453419  47.7221775  57.8062248  71.0588408
  48.2411051  57.2416878  70.4859161  47.2113895  58.3507395  70.4598093
 106.2307436  74.1343428   8.5175106 106.3526232  73.2674994   8.1302712
 106.8630058  74.6908559   8.0627987  39.9522424  44.3586397  75.1425362
  40.1887798  43.5162783  74.7543240  39.1202259  44.5879650  74.7285461
  50.4501677  49.4631910  86.8895721  49.6655178  50.0014067  86.7852879
  50.4908562  49.2783451  87.8278732   6.1321467   5.6461341   8.7227318
   6.1023682   4.9085385   9.3320725   5.2184456   5.7906586   8.4767792
  32.1614885  18.9664161  82.0464611  31.6601157  19.7505748  81.8229675
  32.8783798  18.9516878  81.4123631  13.5887706  59.5691156  74.6757412
  13.9254975  60.0641870  75.4225683  13.0948675  60.2111959  74.1658163
  13.7713468  40.0367498  73.9802980  13.8654768  40.5514050  74.7818613
  13.1542885  40.5365610  73.4458303  83.6670589  18.3105958  68.6271048
  83.0554008  18.6818361  67.9912710  83.7096119  17.3807704  68.4038496
  16.8634701  24.0730977  64.3507528  17.1386969  24.9588037  64.1140890
  17.3503411  23.8768339  65.1511717   9.2274123  46.6932774  77.5499773
   9.6866429  47.4504995  77.9132366   8.4242678  47.0565748  77.1768761
  16.5416265  24.0937805  86.2787247  15.6662023  24.1903949  85.9038544
  16.4936900  23.2890749  86.7948532   5.2683943 108.0558510  62.4701929
   5.8195084 107.3347143  62.1661139   5.4624098 108.1279735  63.4047461
  39.9859262  43.4609842  57.9023075  39.3138552  42.8508806  57.5984573
  39.6082520  43.8632536  58.6844683  36.8796372  53.8337040  56.6137505
  36.3220501  53.1748199  57.0275116  36.8635988  54.5752144  57.2188425
  15.1589268 105.8898760  89.8453999  14.8700159 106.4448721  89.1210175
  16.1122244 105.8650507  89.7626686 116.3397735  39.5199800  68.8585329
 117.1500909  40.0012732  69.0257931 116.5847419  38.8547039  68.2153940
  16.8321753   9.4958204  68.0013609  16.1397886  10.1156831  67.7720118
  16.5871918   8.6864072  67.5529575 111.7744090  60.7237673  65.7079124
 111.4093687  59.9314308  65.3139877 111.1243577  60.9891605  66.3584757
  47.8500128  57.5504112  65.7817984  48.1079674  56.7046547  66.1483860
  48.4593058  57.6933908  65.0575399  62.1929073  29.2587733  93.6211395
  61.9381952  29.1824675  92.7016068  62.3551941  28.3576775  93.9002800
  41.0838699  58.3579683  76.5449142  40.2101469  57.9952955  76.6908979
  41.5007782  57.7428484  75.9415483  20.7487702  43.4805250  78.8770056
  19.8112190  43.2878780  78.8877821  21.1678076  42.6256943  78.7774754
  11.9404936  43.6591816  37.2211933  12.4552643  43.1273317  36.6142488
  11.3388264  44.1483402  36.6599870  37.6325297   9.5784837  45.4792213
  38.5766339   9.7035974  45.3830671  37.3385835  10.3438389  45.9732485
   3.1594041  53.8443851  84.5053959   3.1193933  53.8574362  83.5491276
   4.0881276  53.7260818  84.7046661  30.6381369  20.9278727  40.3325272
  30.6966996  21.4269471  41.1472225  29.6984887  20.8375001  40.1740265
  44.9649048  52.1740341  89.6194553  44.1713238  52.0251274  90.1335430
  45.6801748  52.0658112  90.2462864  53.0255699  36.9956136  40.0891209
  53.1612968  37.9257464  40.2698565  53.8064289  36.7295194  39.6036530
  12.0612347  46.9216537  51.9719124  11.9598210  45.9724140  52.0418024
  11.5598130  47.1593189  51.1919594  25.1789975  92.8881645  62.4704885
  25.4072261  92.0527840  62.0627165  25.0680256  93.4911156  61.7353868
  62.0556116  19.8533154  95.9238529  62.1897697  18.9956510  96.3271427
  61.1045408  19.9444818  95.8656502  56.9044263  93.1764390  24.7712395
  57.3359448  92.8681542  25.5681011  56.8271095  92.3954345  24.2232582
  56.2180471  40.9686279  73.0572987  56.8127203  41.7152643  73.1289339
  56.5156221  40.4993439  72.2779083  34.4837570  44.4363832  59.8866272
  34.9411416  44.3646908  59.0488386  33.8785148  43.6948490  59.8933077
 108.7103899   5.8951515  79.0674877 107.8740759   6.3607389  79.0737820
 108.7024350   5.3775615  79.8726368  38.7722373  59.9349546  81.9027328
  39.5686746  60.4044390  82.1507359  38.9526224  59.0220833  82.1271324
  58.8174963   3.1298560  71.5651798  58.8068438   3.6238405  70.7453680
  57.9785347   2.6691982  71.5781593  36.2113810  26.4445305  46.6171169
  36.7903495  27.2059989  46.6516542  36.0890150  26.2788892  45.6823349
  55.3412437  25.2161598  77.1237612  55.0234652  24.8737931  76.2882805
  56.2192965  24.8463058  77.2157574  53.2378292  43.4614372  49.6271086
  52.9101753  44.0617228  48.9573812  54.1726542  43.3793116  49.4384718
   7.4800307  11.9166291  68.2978487   6.5628326  11.6587281  68.2058382
   7.8135467  11.3665688  69.0066767  71.1791426 103.7031414   1.5421173
  72.1218116 103.7885143   1.3995621  70.9925634 102.7812626   1.3644764
  73.3437688  97.4971153  11.6753647  73.2314522  96.6627981  11.2198040
  74.0682346  97.3432733  12.2817490   4.4038358  52.0289850  71.9290829
   4.6316054  52.2580576  71.0280418   4.9784908  51.2936354  72.1418428
  81.7072183  78.4039857   5.0864479  82.0129091  79.2292668   4.7100231
  80.8826620  78.2253792   4.6343014  91.5406591  84.2156078  15.6748077
  92.1872455  84.8198392  15.3100369  91.4531547  84.4822766  16.5899345
  39.4400048  56.3757563  63.2371187  39.7670269  55.5475426  63.5883379
  40.1625347  56.9909763  63.3623600  40.4431152  49.3357611  60.2297544
  41.1574411  49.7649002  59.7587872  40.8083296  49.1407681  61.0927916
  60.2772570  41.0596561  75.9905720  59.8625183  41.9080496  76.1469460
  59.5513344  40.4744196  75.7743120  69.7652626  24.9484348  66.3107109
  69.8789263  25.6043601  65.6229067  70.0323200  25.3950667  67.1140957
  48.2770538  25.0207973  71.9183207  48.3756495  24.9198604  70.9715748
  48.9183950  25.6904840  72.1558714  42.7634668  26.5798783  84.4561577
  43.0489731  27.4911094  84.3900204  42.9299498  26.2131023  83.5878277
  61.4185286  19.3849242  81.7632294  61.1640120  20.2346921  81.4035797
  61.9091988  18.9634657  81.0576439  53.7839079  48.1925488  59.9073267
  54.0189838  49.0552568  59.5657015  53.4315920  48.3682966  60.7798052
   6.2511504  10.0163329  63.2289886   5.3296065   9.8128629  63.0690241
   6.7307061   9.3052936  62.8039217 107.3457469 105.8076401  95.8864212
 108.0947650 105.2159948  95.8146095 107.7186359 106.6280521  96.2090778
   4.4400948  96.9918699  52.1473503   4.2851895  97.3028881  51.2554407
   5.0365608  96.2506361  52.0423269  92.6748592  68.4981789  11.9975540
  92.3472769  68.9648105  12.7664349  92.8124029  67.6012756  12.3023102
  43.5187197  32.4314570  59.6151495  44.0911770  31.7426991  59.9529886
  43.0455780  32.7484393  60.3844929 102.8717453  96.9443895  23.3327171
 102.4962408  97.3279573  24.1252491 103.5806400  96.3849403  23.6500713
  61.0749197  29.5592785  52.4297237  61.5356350  29.3575859  53.2441521
  61.3076925  30.4685092  52.2417164  76.0854340  40.2980089  48.1989717
  76.7348337  40.2133274  48.8970661  76.5823269  40.6216764  47.4475908
  51.9428778  16.8952262  76.2560987  51.2709761  16.9552696  75.5770016
  52.3215294  17.7734089  76.2967014 117.5393182 105.4825165   8.8256809
 117.5626022 105.6873562   9.7604153 118.4159023 105.1507951   8.6312744
  23.7420392  35.5702829  42.7470493  24.6293640  35.2424502  42.6007223
  23.7721038  35.9612322  43.6202526  38.3153725  31.4675736  85.7686996
  38.6890650  32.3472023  85.8219814  39.0747666  30.8879590  85.7087231
   3.1819847  27.9688311  81.3947296   2.2310382  28.0375671  81.4796257
   3.3702666  28.3154893  80.5226040  51.1661863  39.6973538  39.5059896
  51.7189074  40.0830221  38.8262892  51.0740614  38.7802005  39.2479706
  52.0336962  37.2037601  34.9655843  52.2615910  36.9676375  34.0663958
  51.6781092  36.3986421  35.3418469  53.2859421  27.2146606  53.9593744
  53.8710260  26.6237640  53.4852982  52.5586128  26.6585135  54.2385244
  16.0072041  71.4193583  47.8763390  16.1086547  71.6217661  48.8063765
  15.8668709  70.4728365  47.8511333  36.2878919  49.0047646  45.4342747
  36.4938378  48.5975981  46.2757206  36.4476848  49.9380827  45.5743313
  60.4128075  30.6964707  74.4231701  61.3309288  30.9596825  74.3599081
  60.3776264  30.1341510  75.1969862  42.6186609  44.5225668  34.8142529
  43.4048748  44.0741491  35.1257467  42.9502010  45.2400732  34.2743444
  41.6584206  25.6231189  91.9211864  42.2058296  25.0637507  91.3701057
  40.9314585  25.0599003  92.1867752  25.0937104  54.3417645  33.6068225
  24.6019387  53.5885906  33.9341116  24.6962404  55.0953054  34.0431976
  51.7672443  38.4269094  69.0934324  51.2036419  37.7529645  68.7134552
  51.3185406  39.2504072  68.9017344 114.9756719  66.4028788  39.7734094
 114.1626550  66.8111992  40.0709200 115.6205885  67.1098852  39.7948694
  45.6641722   6.8952125  55.7963991  44.7647285   6.8521720  55.4717779
  45.5803013   6.8109947  56.7461920  44.1624928  49.5586777  63.1374359
  43.2604408  49.3959904  62.8616285  44.1222000  50.3900957  63.6100340
  66.9015312  23.7087035  43.4385872  67.8514194  23.7644744  43.5426903
  66.7537689  22.8485918  43.0453920  35.0328064  40.9362411  90.8193016
  35.5571747  41.2315559  91.5636539  35.2611995  41.5386820  90.1113987
  42.1963930  56.6349220  59.4014072  41.4385748  56.1883259  59.0239239
  41.8342638  57.4268532  59.7988224  38.5191083  41.6507673  70.2720690
  39.1670561  41.2425709  69.6978092  38.4727049  42.5589800  69.9733591
  42.8495359  69.3513632  74.8499012  42.2927332  69.8985910  74.2960596
  42.3655939  68.5303497  74.9391651  53.7940598  53.7402391  63.3905220
  53.7352753  54.5730209  62.9222775  53.0740261  53.2165241  63.0390978
  47.4989557  37.6570344  92.6597786  47.0335531  37.3775482  93.4481430
  48.1248808  36.9532704  92.4889946  16.1632192  38.4242702  56.3834143
  16.9058537  38.1750560  56.9335222  16.5409362  38.5474753  55.5125618
  49.7844505  61.1824799  71.9159412  50.3188753  61.6045380  71.2432671
  49.3656921  61.9079065  72.3792219  25.4375982  71.2966871  70.7347202
  25.0543404  72.1372843  70.4842377  26.3817620  71.4541197  70.7336950
  29.0412045  63.8507366  73.5841036  29.1526294  64.6562052  74.0891218
  29.0805101  63.1515360  74.2366409  49.0915728  82.0959759  84.7301674
  49.3969965  81.5233421  84.0265846  48.1691933  82.2527695  84.5279980
  24.0966606  73.3893585  82.5385666  24.6230078  74.1315603  82.8357697
  23.3499622  73.7887144  82.0922661  49.3570614  54.3895245  31.1403799
  50.2375984  54.7171259  31.3235903  48.7886047  54.8905420  31.7252469
  21.0823083  50.0259256  61.8249893  21.5187597  49.5345688  61.1290693
  21.3613987  49.5956945  62.6332235  29.2664266  56.0794640  70.4403925
  29.0294242  56.2817526  69.5353317  28.5535622  56.4473677  70.9626055
  17.5926948  78.3803892  54.3244982  16.6394639  78.4033680  54.4084835
  17.8974879  78.0136299  55.1544476  43.7964439  55.9156609  90.1075077
  43.8463736  55.5901623  91.0062790  43.5454321  55.1509333  89.5894146
  36.2463260  74.8774624  67.0015478  36.2153029  75.8322525  67.0619631
  35.3300166  74.6046257  67.0481396  46.7546082  35.7825851  56.8132114
  46.1062241  35.1389694  56.5275717  47.5623894  35.2794290  56.9159603
  86.8548965 105.3579998  24.6493793  86.7465210 104.4994354  25.0584650
  85.9628868 105.6434059  24.4516420  77.4334431  91.7022705  59.0527010
  76.7740583  91.5548706  59.7307205  77.3151731  92.6174927  58.7985182
   4.2180001   1.9576888  69.4532204   4.1460167   1.2192206  70.0579691
   5.1290165   2.2414641  69.5290756  37.3327136  83.6324978  88.1239223
  38.2320929  83.9592361  88.0995750  37.0707488  83.5834026  87.2045803
  38.9741945  50.2972889  72.6355267  39.5293450  49.5895672  72.3081541
  39.5882583  50.9326744  73.0035591   4.2356631  92.5542545  72.9133177
   4.0611914  91.8725204  73.5621834   5.1902914  92.5874424  72.8515482
  68.9758301  93.1960869  38.7827110  68.8061047  94.0213108  38.3283734
  69.9227905  93.0748558  38.7133789  76.5664482  68.3034277  51.0088587
  77.1404362  67.5375509  50.9945583  76.2838888  68.4079742  50.1003122
  89.3339157  76.2555838  78.2549763  88.7041283  76.5919447  77.6174355
  89.0428066  76.6162920  79.0924549  93.8480854  64.0871096  57.3658323
  94.0344429  63.9586639  56.4357758  93.0040741  64.5383739  57.3808956
  48.4483957  88.6578655  63.2158518  48.3894205  88.3074188  64.1046381
  47.9080582  89.4477749  63.2335091  63.5451746  85.8385944  30.9803367
  63.5592794  85.7611942  31.9342971  63.2062721  84.9964714  30.6766891
  30.4654932  93.5527420  59.3971682  31.3505936  93.5604000  59.0327930
  29.9236035  93.1790829  58.7022114  77.8804255  79.7553444  38.4204149
  78.5074329  80.4315472  38.6770082  78.2535362  79.3714428  37.6269150
  28.9389801  86.9602489  96.4970493  28.7562656  87.6277447  97.1583366
  28.7816429  87.4009705  95.6620407  71.6071367  82.2511578  56.6741323
  72.2546768  82.8317451  56.2743235  70.8768415  82.8269100  56.9008446
  36.6236323  10.2560717  21.1226723  36.8458908  10.9021336  20.4522678
  36.9441431  10.6385524  21.9395039 102.6145393  11.6063647  75.3919744
 101.8362505  12.0486884  75.0530767 102.4539024  10.6776004  75.2251816
  48.2549017  44.0514905  22.8427956  48.4190863  44.9026639  22.4368641
  47.8396242  43.5334260  22.1533081  74.4446135  85.4486656  79.3954611
  73.9374685  86.2244034  79.1561460  74.2464161  84.8117638  78.7089443
  87.1692467  99.5814705  31.9297814  87.7665043 100.1569462  32.4076366
  86.4189720 100.1371002  31.7186046 102.5565815  75.8658457  84.5818710
 102.9166794  75.1786613  85.1425362 101.6423893  75.9431314  84.8548603
  72.8829384  74.4263935  84.0136147  72.5107765  73.7174034  83.4891510
  72.6080990  75.2259731  83.5648727  84.7266579 100.3179359  86.2995625
  85.3462410 100.5085754  87.0038319  84.0755463  99.7434425  86.7023563
  88.2153320  83.2169819  67.6018047  87.3521042  83.3223820  68.0017614
  88.5059738  84.1107559  67.4203634  45.5098486  75.8548069  69.1413450
  46.0368586  75.1096678  69.4299030  45.8108282  76.5848541  69.6823359
  64.3915319  83.3432674  73.2958841  65.0257826  83.7235832  72.6881695
  64.8239851  82.5589466  73.6336231  79.1332626 100.2704144  81.6518211
  79.4423151  99.3653965  81.6924667  78.1887102 100.2075577  81.7936230
  32.6377617   4.0401416  91.1967087  32.5505387   4.6602302  91.9206619
  31.8705212   4.2030673  90.6480408  61.0559750  81.3820362  84.7336006
  60.5721331  80.6635380  85.1409054  60.4239702  82.0992947  84.6852207
  77.1634340  78.4182358  73.1124020  78.0481625  78.1463385  73.3564520
  76.5884972  77.8689051  73.6452389  88.1080914 102.0610619  65.6465769
  88.3353424 102.9256344  65.9887981  88.8532543 101.8174076  65.0973988
  46.8542307  40.7453877  45.6425354  46.0674494  40.2023942  45.5939552
  46.9185370  41.1517388  44.7782585  81.0154629  82.8936195  84.7960663
  81.9394684  82.7331638  84.9876595  80.9463882  82.7912617  83.8468647
  93.7924290  82.0825481  92.2311401  94.0984058  81.8302631  93.1023216
  93.8547039  83.0376816  92.2227001  51.4859390  89.3696022  53.6945772
  51.4418888  89.3034172  54.6484709  51.3882256  90.3046417  53.5145998
  67.7490759  80.1441288  80.2828693  68.5406303  80.5001831  80.6864738
  67.7329588  79.2267799  80.5557156  55.8404207 107.6599503  44.2752409
  55.5949831 106.8793297  43.7786388  55.8813572 107.3625565  45.1841497
  53.7833071  76.4358568  78.7837553  53.9482927  75.7093287  78.1827784
  53.8026810  77.2152185  78.2283688  91.6691494  96.1750889  55.6536770
  90.8722210  95.9821415  56.1475372  91.9953918  95.3175449  55.3808832
  61.1763000  68.5551596  93.8904476  61.9910002  69.0287447  93.7224865
  61.4149046  67.6317501  93.8090897  62.0556831  74.2468786  79.3337584
  62.4485683  74.7357368  78.6106491  61.7902088  73.4141064  78.9435720
  96.5774632  80.7160473  89.4116306  95.6592655  80.4462624  89.4305897
  96.7485809  81.0454750  90.2939129  37.2103190  83.2891083  85.3442669
  37.2094679  83.4746075  84.4052124  38.0883431  82.9512978  85.5208874
  91.7764568  85.7480145  92.0056820  91.1430645  85.3924656  92.6290894
  92.6062870  85.3358650  92.2459888  50.3197718  96.6582966  57.9022980
  50.8717489  95.8850765  58.0192327  49.4572544  96.3865280  58.2160473
  50.4335421  32.7712399   8.7039635  50.7984846  32.8503568   7.8226158
  51.1965006  32.6499230   9.2691299  70.2388859  85.9309387  75.7823181
  70.8617687  85.4634190  75.2258348  69.4629669  86.0416031  75.2328253
  32.1517056  26.8644387   5.5078194  31.6586321  26.2875516   4.9244568
  32.1465700  26.4128167   6.3517639  84.2683697  86.5583324  13.6915886
  84.1415596  85.7308769  14.1557717  84.6026802  86.3020039  12.8320777
  75.2508163  98.3958054  69.1573668  75.8036661  98.0851650  69.8743677
  74.8970652  97.5977802  68.7646341  29.8638361  36.8098027   0.2222607
  29.4950550  36.5710503   1.0726902  29.1700094  37.3096043  -0.2078846
  59.1035557  93.3928871  58.4608555  59.3709898  94.1742039  58.9448595
  58.3872747  93.0243301  58.9779091  72.3698282  89.3239212  48.7708616
  72.1057844  90.2414894  48.8384771  73.1748104  89.2677593  49.2857170
  89.8165035 104.8807716  65.4872131  89.5437431 105.7834148  65.6517172
  90.4262257 104.6815491  66.1976957  67.4061346  85.6558228  61.2947226
  67.2662830  85.3953457  60.3843212  67.6769829  84.8504066  61.7353773
  82.9625702 100.1772594  55.5164766  82.8448391 101.0713100  55.1954746
  83.2298088 100.2838135  56.4294195  86.6507339  78.4580183  50.4024982
  86.4307022  77.5292635  50.3301144  86.4376736  78.8222980  49.5433474
  93.4307957  59.5447111  75.5408764  93.6130905  60.0934982  76.3036585
  94.2927742  59.3567753  75.1695251 113.9113790   6.2511783  50.5608845
 113.7200815   5.5185847  49.9752665 113.0538732   6.5343051  50.8783102
  69.2563725  87.1253681  84.2864418  69.6955776  86.8829632  85.1016521
  68.4977579  87.6376629  84.5662498 102.2788746   5.1463943  47.9824162
 101.3647539   5.4302268  47.9752398 102.2520000   4.2440467  47.6641750
  94.6130562  81.0821056  72.2458839  94.8168755  82.0173550  72.2469473
  94.5729637  80.8446598  73.1722975  56.8268442  78.2471371  79.7790098
  56.3666725  77.4423647  80.0173664  57.7543306  78.0144787  79.8222303
  81.0851669  66.7739391  69.4758034  81.6445541  66.8551683  68.7033272
  80.5169201  66.0282660  69.2826843  78.5088015  94.4254589  62.2645283
  78.4252024  95.3188133  62.5979567  78.0752134  93.8825321  62.9229021
  42.1688383  33.2093102   2.9803917  41.8133085  32.6061971   3.6331341
  42.8844755  32.7236611   2.5702164  93.9886379  90.6956100  64.7572613
  93.8781834  91.2091351  63.9570570  94.8976803  90.8474731  65.0157452
 114.2587852  70.9309387  78.1982136 114.3382168  70.0734997  78.6162138
 115.1483250  71.2843370  78.2056332  80.4764652 102.0210361  61.9646168
  80.9049988 102.8500938  61.7519236  80.0031662 102.1977234  62.7776337
  89.8209763  58.0634546  35.1149273  89.2424870  57.8443241  34.3844724
  89.4088554  58.8225412  35.5274510  72.0867300  80.1034927  74.4237423
  71.4131260  80.7298756  74.6885633  71.6094160  79.2873478  74.2743731
  38.7474704  97.9196930  96.0996532  39.4312501  97.5706387  95.5279541
  39.1027665  98.7490654  96.4192390  50.3079926  28.8430076  63.4899807
  50.3036057  28.6848884  62.5459433  50.0918614  27.9941898  63.8760090
  89.9168587  96.5204716  90.7218266  89.3614388  95.8179951  91.0598564
  89.5021534  96.7786121  89.8986530  58.1320381  92.2737980  61.9364834
  57.9105186  91.3457775  61.8594265  57.5851727  92.7058601  61.2803602
  91.5966225  61.9011831  64.0226030  90.9754276  61.5548229  64.6632195
  91.1412621  61.8283701  63.1838083  76.9601059  79.1650963  53.2157707
  77.1486187  80.0079346  53.6284685  77.7483082  78.9637852  52.7113438
  38.2643819  69.1401577  74.2783451  38.5997367  69.3142033  73.3988667
  37.5753021  69.7922897  74.4053221  96.9369316  77.6432085  30.3635669
  96.1511612  77.1266317  30.1848316  96.9332027  78.3251047  29.6918273
  89.6842766  69.8554850  73.1109619  89.9789906  69.3763971  72.3364639
  88.8320255  69.4727993  73.3194017  68.6600590  84.5806313  50.8640814
  69.3297195  83.9368439  51.0949993  69.0533924  85.4249668  51.0845757
  68.9596224  83.4359264  54.3948650  69.1390133  82.9739380  53.5759497
  68.3817482  82.8472042  54.8803568 117.3870945  87.9434299  56.8633366
 116.6231441  87.9920292  57.4380112 117.9422855  87.2716904  57.2592592
  31.0965610  80.6278992  81.2444878  30.4518843  80.9128666  81.8921089
  31.4080906  79.7841072  81.5718842  97.1165657 100.8545017  27.8068256
  97.6396751 101.5781975  28.1516051  97.6613617 100.0792599  27.9425502
  70.2489138  88.6294842  73.1837940  69.7751617  88.9282799  73.9600086
  69.6617985  87.9936314  72.7748632  32.0155560   3.3218532  59.7814608
  32.5089108   4.1059356  60.0223780  32.5953137   2.5948672  60.0086212
  75.9311247  56.0275650  48.6720848  76.2877178  56.8236637  48.2780075
  76.6333866  55.7044601  49.2365932  60.4471588  90.3845692  57.2416544
  60.0553703  90.4235172  56.3691759  60.2950764  89.4854259  57.5325775
  52.9675007  90.2598763  58.8248062  52.8784752  90.6567669  59.6912813
  52.2982359  90.6914997  58.2937479  63.0489683  82.0307350  80.3920364
  62.2787666  81.6484165  80.8125782  63.6975574  81.3267708  80.3947639
  76.2247610  69.6570635  48.2414198  76.9490433  69.7591448  47.6239824
  75.4426908  69.8629856  47.7293682  59.6912193 105.0139332  48.7579489
  60.3335619 104.3131924  48.8701391  60.2175093 105.8054352  48.6449146
 103.5208035  86.9364643  47.9861116 103.0053902  87.2110844  47.2277117
 104.4246864  86.9284534  47.6712227  74.3827772  63.1825209  55.8587646
  74.8691463  63.8284588  55.3464699  74.9012613  63.0689526  56.6553259
  49.8757857  37.2411973   8.8159821  50.3160589  37.9922349   8.4180710
  50.0546187  37.3272187   9.7523853  95.4092121  74.7333813  86.4764595
  96.1868858  74.3994236  86.9235802  95.7511902  75.1770163  85.7002640
  48.8134098  89.5912933  69.0114260  48.6577559  90.4949379  68.7367725
  48.0135489  89.3402290  69.4734097  61.2348843  80.8025551  47.0900297
  61.0614061  80.7683849  48.0307579  62.1718693  80.6228542  47.0125818
  84.9764156  86.7919254  58.1689358  85.0132656  86.1913013  58.9133358
  85.8931446  86.9757271  57.9638720  57.8317261 111.1399746  39.4732285
  58.5109806 110.9530926  38.8252115  57.0199251 110.8438969  39.0614653
 109.6748066  98.8520813  73.1893063 109.8937511  98.9180756  74.1187906
 110.0535107  98.0176353  72.9126930  52.5473499  84.4679070  83.7520885
  51.6533899  84.5517254  83.4203625  52.4407673  84.3053246  84.6893406
  95.3954029  82.0122528  83.0605984  95.4781818  82.8419685  83.5306549
  95.1702785  82.2655487  82.1653938  23.6565893   2.8686005   4.2506096
  23.3798044   2.1542365   3.6767551  24.2391365   2.4530846   4.8863956
  43.4246254  73.1035280  77.8092861  42.4742508  73.2128572  77.8419590
  43.6855984  73.5204792  76.9881439  60.7564688  98.0435276  62.9945993
  61.6844749  97.8098202  62.9740715  60.7506514  98.9875126  63.1529474
  17.5901829 104.7118952  13.7585232  17.3147809 104.3970157  12.8975746
  17.3365151 105.6348182  13.7684128 116.8202240   2.1832996  18.0373728
 116.3419468   1.3550716  17.9984522 117.6493007   2.0021491  17.5946045
  47.7372265 105.8823776  55.8049440  46.8523836 105.9492874  56.1638451
  47.9125309 104.9418831  55.7736874  48.0946207  90.4916000  71.8555069
  47.6302099  90.6813145  71.0403013  47.5961876  89.7785759  72.2547436
  70.6733894  54.1779041  37.9941154  70.9243870  53.7890100  38.8319683
  70.1487970  53.5025072  37.5641489  81.1959839  63.9762688  68.9601946
  81.1025238  64.1389513  68.0215597  80.3853512  63.5316992  69.2081022
  81.0127354  92.8389359  67.6801920  81.2773323  91.9686127  67.3822594
  81.5204239  92.9833508  68.4787130  75.3844643  56.3049316  71.5588331
  75.3706408  57.2029066  71.8900251  75.4649115  56.4008665  70.6098557
  42.3164558  70.2829123  86.1231232  41.8018389  69.9563932  85.3850269
  41.6759396  70.7118607  86.6905499  22.6173067  86.9322491  93.9727020
  22.5642371  86.0326862  94.2955208  22.9751492  87.4298477  94.7079372
  31.0421538  63.3109379  77.8484917  30.1340628  63.6096859  77.8000021
  31.3528895  63.6258268  78.6973286  10.1284539  15.9316497  89.8336887
  10.8801114  15.6325488  89.3220425   9.3910920  15.4235225  89.4955635
  79.4663954  94.8255157  45.8409309  80.1893806  94.2174435  45.9951258
  79.5395231  95.0545406  44.9144173  82.4156666  77.2266388  74.9479771
  82.6297188  77.7140760  74.1524792  82.7524185  76.3452625  74.7867298
  12.0629554  24.6162963  58.7643957  12.6729159  25.3501940  58.6897755
  11.4415889  24.8889852  59.4395113  81.5552235  66.4171934  61.9908094
  82.1754360  65.8034182  61.5972996  80.7138920  66.1968994  61.5909767
  41.6311203 107.9956581  12.5613853  41.9530617 107.2041561  12.9927895
  41.4500367 107.7216198  11.6622994  53.3907557  88.0358791  75.1322746
  52.6759529  87.6384830  75.6296253  53.9492416  87.2988510  74.8850632
  71.8493748 105.8856106  82.3159599  72.3393583 105.1403236  81.9685459
  71.3502455 106.2137318  81.5680027 111.2975532   7.8655295  79.9905014
 111.9545252   8.4939532  80.2900124 110.8944971   7.5387149  80.7948494
  75.4466391  88.9987278  44.0503788  75.9160757  88.5175610  44.7318029
  75.3331041  88.3633614  43.3435154  56.3879347  65.4262352  85.6416512
  56.1787462  64.7974348  84.9509430  56.1841822  64.9649382  86.4552402
  87.5071049  80.2776241  90.1599216  86.6916656  80.6756115  89.8551464
  87.4758434  79.3813324  89.8253918  20.1581257  35.0761086   1.0340569
  19.6263617  34.9930150   0.2425072  19.5813530  35.5051190   1.6661331
 101.7346001 106.0161018  87.5823021 101.9672775 105.1934624  88.0128384
 101.1117840 106.4309883  88.1791306  58.3812189  87.6393890  91.2848663
  59.0166664  87.4152565  91.9647217  58.4620094  86.9363117  90.6403542
  37.1394396  89.8418045  74.7243404  37.5578523  90.4179955  74.0846777
  37.7614141  89.7985649  75.4506397  78.7035084  70.0623178  77.8757524
  78.2923651  70.7725191  77.3829937  79.3497181  69.6951151  77.2725868
  68.2768536  83.5960674  33.0262113  68.8819790  82.8643703  32.9050922
  67.4565220  83.1856823  33.2998300  86.4466286  69.3064499  79.9070311
  87.3074436  69.5832205  80.2210712  86.5795517  68.4081554  79.6043205
  32.6702046  78.1089783  67.5314665  32.9464078  77.1959972  67.6115608
  32.7247524  78.4547472  68.4223652  74.3908930  84.3093872  86.4103794
  74.7233677  83.8128185  87.1581173  74.4059658  85.2208424  86.7023659
  72.1949530  90.9566498  83.1499100  72.3133755  90.3160191  82.4486256
  73.0696535  91.0687160  83.5221672  80.5780125  58.7316322  44.2162704
  79.9793434  57.9847574  44.2170858  80.8026791  58.8595152  45.1379013
  70.7990854  25.6082017   4.6891663  69.8445147  25.6360204   4.7545025
  71.1055678  25.8046395   5.5744431  47.3209095  92.0688629  78.2972908
  47.8545523  91.5649796  78.9117479  47.2994137  91.5336800  77.5039721
  68.6100483  42.6430273  47.7832890  68.2110262  41.7749214  47.7249384
  69.5439005  42.4873638  47.6421642  79.7106504  82.4787521  57.9199743
  80.5631924  82.6267910  57.5107241  79.1871214  82.0586205  57.2375965
  72.6840115  73.2401085  73.5764551  71.9337130  73.0065441  73.0298853
  72.7911997  72.4946976  74.1672993  68.2718754  84.5987511  83.5499382
  69.1156721  84.2695808  83.2402802  68.4141159  85.5361462  83.6814213
 100.4298592  63.9975595  59.8379040 100.8099842  64.3338203  60.6494808
  99.4973564  63.9021397  60.0317144  74.6535587  93.7377834  77.3057079
  75.6043768  93.6515617  77.2368908  74.3092489  93.0933952  76.6872787
  70.8891392  75.9381485  60.9244204  71.5554333  76.6180420  61.0245466
  70.5123520  75.8413982  61.7990065 113.0599880  81.1976242  67.5899458
 112.7433491  80.4114723  68.0348444 112.6328754  81.1766338  66.7335749
 115.4443992  35.1190526   2.6559898 115.4553760  35.2930123   1.7147991
 114.5153702  35.1044041   2.8860352  58.8356924  98.6233044  47.2631741
  58.4441042  97.8606796  47.6889610  59.7452688  98.3695030  47.1066761
  74.5157003  77.9635525  49.7677183  74.4032145  77.0918226  49.3886805
  74.2538977  77.8624201  50.6828499  76.4982080  70.7055807  69.4981289
  76.2786150  70.7647419  70.4279184  75.6863022  70.9335899  69.0453005
 104.5499229  95.4758453  54.2394829 104.7164154  95.8979702  55.0822926
 105.3308010  94.9461651  54.0785027  61.3954973  76.4007854  63.7791586
  61.8594790  76.2741804  64.6067619  62.0874691  76.4279032  63.1183481
  66.7045593  74.6565580  64.1747761  66.0510683  75.2854967  64.4807434
  66.7292976  73.9857721  64.8571730 104.0846062  44.7195148  73.1442785
 103.4126282  44.9994850  73.7658024 104.7308159  44.2604685  73.6808586
  95.5419254  87.5977707  52.9545832  96.4122105  87.6259804  52.5570536
  95.6742382  87.1478653  53.7890387  59.1188097  97.3003674  75.4500961
  58.3517218  97.4755383  74.9050093  59.4823503  98.1658459  75.6372166
  85.0069427  76.4522505  70.9329367  85.5583191  76.7760754  71.6452217
  84.8464584  75.5345058  71.1525345  92.8882408  97.5876808  85.9026432
  93.2222176  98.4725475  85.7553101  93.0561066  97.1282387  85.0798607
  90.5236149  87.1753120  35.2769613  90.2625275  87.8175259  35.9369826
  90.5068207  87.6597691  34.4515800  23.8763189  84.0325356  69.4080019
  24.1209364  83.8864708  70.3218126  24.4677567  84.7233009  69.1092110
  65.1468897  67.3246050  58.8132000  65.7184076  66.9275856  58.1559515
  65.6044436  67.1875000  59.6427059  93.3379173  89.5326710  74.6651840
  92.9357815  88.8784885  74.0937233  92.6395988  89.7844982  75.2694750
 101.8490982  65.3603888  48.0224228 101.0975742  65.9504175  48.0799007
 101.4735699  64.5186758  47.7641106  57.7534502  15.1741988   3.2298920
  58.1666964  15.1558596   4.0931007  57.2821444  16.0070283   3.2076237
  58.2081032  78.3395243  71.5361452  57.9686546  77.9227638  70.7083702
  57.3922920  78.3651924  72.0361710  76.8448782  87.4861050  65.4325104
  76.5212965  87.5133419  64.5320749  76.2135887  86.9369125  65.8973694
 102.6983070  77.5615025  89.5460415 102.0273495  78.0448627  89.0639591
 102.6219940  76.6624784  89.2264080  72.0113468  82.5694466  77.3025751
  72.3811769  81.9862461  77.9653978  71.4297962  82.0094013  76.7884016
  88.3204937  90.2661514  52.6495218  88.7435055  89.4177628  52.5171280
  89.0431881  90.8934498  52.6704836  82.0593357  90.3363705  94.2229366
  82.5909805  89.9394703  94.9128914  82.5387192  91.1273003  93.9762497
  66.5658092  84.6896553  95.2600384  66.0736799  83.8892269  95.4426670
  66.6735697  85.1050377  96.1156559 105.1224899  88.2529640  88.5232258
 105.6758595  89.0140438  88.6986542 105.7119083  87.6164246  88.1186867
  53.7817287  62.0445538  84.5897388  54.2466688  62.7455425  84.1329288
  54.3747616  61.7832279  85.2941895  81.5593750   1.7393260  72.8859901
  82.2235567   1.0696941  72.7226162  81.2239200   1.9609122  72.0173120
  90.4043865  68.8600874  49.3402004  91.2532425  68.8329220  48.8986826
  90.0915241  69.7542381  49.2029381  56.5818501  78.5282803  95.4326057
  55.8307362  78.1691408  95.9049225  56.2437868  79.3177509  95.0098991
  63.9746809  83.9878941  50.3968763  64.7312880  84.0576553  49.8147106
  63.8890076  84.8592377  50.7837343  58.0904770  92.1406937  64.7053528
  58.3737898  92.4736500  63.8538218  57.5937414  91.3487434  64.4996643
 114.9243862   4.1274123  43.5120964 114.9392921   3.7646442  42.6264286
 115.6306106   3.6712413  43.9696884  13.5143792   5.1778178  38.1136370
  13.5000741   4.2382865  38.2961202  14.4388138   5.3796630  37.9690099
  10.9304302   8.1953866   2.1765587  10.3885000   7.4426801   2.4131558
  11.8014115   7.9771287   2.5081989  80.3110695  84.0432358  91.0693169
  80.4290771  84.8779488  90.6159401  79.8666191  83.4849167  90.4313755
 104.9410152  80.9807301  87.7275753 105.7288074  81.4355278  88.0255413
 104.9976921  80.1143932  88.1306553  81.8464661  81.8130398  56.2211752
  81.3345337  81.0973835  55.8443689  82.0077610  82.4048996  55.4863834
  44.7714077  21.1356597  60.2737761  44.4705426  20.2289157  60.2144051
  44.5142876  21.5284305  59.4395971  85.0152969  80.6614208  78.1945562
  84.6138859  81.4832592  78.4768295  85.4333591  80.8733082  77.3599529
  99.8516828 101.4080240  32.9341003 100.2345688 102.0580961  32.3450062
  98.9604789 101.7209150  33.0893204  83.8003349  64.5245600  73.8420200
  83.5660172  64.2676687  72.9502058  83.0128574  64.3481684  74.3568039
  58.7503624  91.1084080  73.1588030  59.3728256  90.5961704  72.6426840
  58.6054707  90.5854321  73.9473057  77.4837828  79.1158962  65.1641846
  77.9859781  79.9240971  65.2682781  77.8327322  78.7181330  64.3665314
  91.1950111  97.4937916  78.5946226  91.4601421  96.6145325  78.8645172
  92.0010662  97.8996658  78.2756042  58.9527178  89.0922642  40.5633497
  58.1603670  89.5888233  40.7678986  59.3871975  89.6047115  39.8815393
  74.8020380   2.2893626  21.6601631  75.7527559   2.2568566  21.5538475
  74.6709746   2.4566514  22.5934765  95.1592255  62.0788717  65.8165169
  94.9943352  61.3081884  65.2732944  96.0828781  62.2824383  65.6693935
  37.4682570  90.2577019  86.2197399  37.7533436  89.3642902  86.0280037
  37.6281857  90.3640938  87.1574688  36.1357880  78.9321136  66.6435432
  36.2307382  78.8327789  67.5908279  35.5844545  78.1955242  66.3795424
  22.1990793  10.1693923   5.7368633  21.4128559   9.7666890   5.3681919
  22.5667160   9.4964463   6.3097736  71.8587542  73.5192060  96.0975552
  72.5725412  73.5267496  96.7352676  72.1215916  74.1594219  95.4362869
  70.6154394 104.6583176  32.2797418  69.9987793 104.4272709  32.9744220
  70.7376766 103.8461590  31.7881131  75.6827736 103.7349701  64.7208452
  76.1799812 104.0407753  63.9622307  76.2291145 103.0490875  65.1046467
  58.9254999  86.4300060  58.1844330  58.4080744  86.0789967  58.9092064
  59.7124624  86.7819881  58.6003971  82.9952431  85.0648880  93.1009674
  83.0046272  84.5165253  92.3164654  83.2830048  84.4823265  93.8038540
  82.9873848  79.3276978  59.4563675  83.5327911  78.6520910  59.0534782
  83.2315826  80.1345539  59.0029669  90.3191185  64.2742062  29.0050220
  90.4721642  64.2759895  29.9499059  91.1776543  64.0905619  28.6236739
  77.4940014  78.0901384  94.6428108  76.8770075  77.3638201  94.5532990
  77.3166227  78.4493351  95.5121422  73.1702406   3.7633472  63.0711889
  73.1247551   4.4040065  62.3614550  74.0676171   3.8306098  63.3974171
  77.1392012 100.6601143  50.3428745  77.4042702 100.0919914  49.6195459
  77.4561310 100.2126217  51.1274385  82.7434635  83.2667255  77.3663902
  82.5299931  84.0843678  77.8159809  82.2330952  82.6002026  77.8262806
  47.5843447   9.6311766   2.3662731  46.8345659  10.1214654   2.7034256
  48.2205122  10.3037412   2.1229813  39.9017286 102.7423096  79.0910673
  39.3930745 103.5150623  78.8453770  39.9687767 102.2329712  78.2834101
  86.0616875  94.6656322  26.0281110  85.2335453  94.2983150  26.3370991
  85.9657383  94.7056866  25.0765729  77.5812387  87.9477787  75.0651407
  76.6311646  88.0348015  75.1427031  77.7609158  87.0440006  75.3242445
  76.8093729  77.8192139  67.7547407  77.0533752  78.3232546  66.9784403
  77.5724697  77.8800011  68.3293867  55.9240103  95.1275730  77.0911789
  56.1758232  95.3407955  76.1926460  55.0255871  95.4481316  77.1706152
  42.1438122 106.1692715  52.3810959  41.2118864 106.3519287  52.2611523
  42.1680927 105.2983379  52.7774858  86.1400223  69.0433359  53.7770414
  86.4363003  68.2179928  54.1607857  86.8302822  69.2810631  53.1579733
  53.9600945  81.5038204  56.5082788  53.0504370  81.7693615  56.3732290
  53.9587355  81.0696411  57.3613453  47.4904633 101.8845558  70.1301479
  47.4535131 102.3810482  70.9476757  47.0950699 101.0397053  70.3449297
  98.3309937  59.9813032  70.7110214  97.9276180  59.1136742  70.6837368
  97.6006222  60.5887890  70.5937338  74.0789175  83.1561375  35.1918101
  73.5566998  83.3692074  35.9651947  74.4618607  82.3014259  35.3894258
  72.3518562  75.9302759  50.8702946  71.4446592  76.1518574  51.0803604
  72.6868296  75.5141020  51.6645432  77.3292160  77.8171396  70.5678272
  76.5395880  77.9671335  70.0480032  77.0593262  77.9922056  71.4693499
  71.2535303  54.1192967   4.7658226  70.6171721  54.7771031   5.0461266
  71.1073225  53.3786065   5.3542397 107.6048071   6.1437564  72.0092440
 107.1273214   6.1992793  72.8369856 107.9179985   7.0347076  71.8531799
   2.5771843  18.4456878  48.0222893   3.1347405  17.7711063  48.4099722
   2.0392834  18.7588840  48.7494850  74.9066162 109.4004440  68.7611008
  75.1365900 110.0992298  68.1486988  75.3182602 109.6594238  69.5855522
 111.7377186  90.1566982  95.6559277 112.0335770  90.3777504  94.7728443
 110.8840466  90.5822182  95.7360458  99.8241234 109.8185062  62.3248863
 100.2888489 110.4982567  61.8368149  98.9127159 110.1108742  62.3339939
  80.8742428 110.2315807  65.2506542  80.6287479 110.0292110  64.3478727
  80.1536942 110.7686901  65.5801392  14.0225940  70.1466274  42.3027658
  13.1289820  70.3969240  42.5373650  14.2846827  70.7866287  41.6409969
  29.0379941   2.1634154  54.5763063  29.3480145   2.5313525  55.4038000
  29.7894227   2.2318320  53.9873123 117.4407387 106.5156937  53.6442900
 117.4039459 106.2582207  54.5654774 118.2465076 107.0271015  53.5705376
 114.1388130  89.9749947  55.1374578 114.9043751  90.3519917  55.5710554
 114.4387627  89.1234112  54.8195457 112.3196983  99.0475464  79.0668583
 112.1290016  98.8413620  78.1517839 112.1402550  99.9846363  79.1436481
  80.9639931  90.5075455  38.4807086  80.6800556  89.9549103  39.2088652
  81.6088867  89.9760437  38.0139542  82.2874451 108.4749031  53.3544636
  82.5674820 109.1620445  53.9591599  82.0080185 108.9459705  52.5694466
 114.7722799  14.8045211  34.5445585 113.8278705  14.6808391  34.6395421
 115.1090175  14.7745948  35.4400730  91.1791134  82.6165295  33.9768600
  90.4685211  82.9219532  34.5407844  90.7892704  81.9103336  33.4615588
  96.1433125  79.7848654  54.8133087  95.6211948  80.5152035  55.1453114
  96.6351795  79.4766045  55.5744123  79.0065432  95.5267048  59.7804642
  79.7903490  95.1698399  59.3627024  78.7621737  94.8695564  60.4321289
  31.3538330  36.9076878  13.5486862  32.1047943  37.4903352  13.4354660
  30.5946606  37.4905927  13.5378906   7.4784409  27.9336028  73.3061361
   6.5983235  27.7614932  72.9714632   7.7533280  28.7330299  72.8571510
 113.5591125  50.5569172  50.4926586 112.9544353  49.9020720  50.1436996
 114.3315220  50.4931116  49.9309254 117.2737789  84.5284081  53.0209494
 117.6208591  85.3251171  53.4222317 116.3556767  84.5047665  53.2906723
   5.9488826 103.8271713  39.5004416   6.7118888 103.3532810  39.1695595
   6.1881881 104.0721512  40.3942823  93.0515957  65.2504253  60.8247566
  93.2200336  65.6256151  59.9604082  93.0881119  64.3039989  60.6862926
 107.6737976  88.8243771  51.8061209 108.2816601  88.1447029  51.5149689
 107.1975040  88.4241104  52.5335550  95.8506107  81.1782360  62.3407793
  96.0511303  81.5577316  63.1963539  94.9447536  81.4364815  62.1705770
  96.7766285  85.7028389  68.4264851  96.1226273  85.0510120  68.6787510
  96.3326359  86.5433979  68.5385609  13.2559066 104.3719196  55.0289965
  13.7967162 103.8822460  55.6486511  13.5698275 105.2735806  55.0975561
  62.6139259  85.4365444  90.5533123  63.1893301  85.9910011  90.0263214
  63.1364727  84.6560478  90.7377338 104.2763996  96.0687256  80.9489822
 103.6019135  95.3955364  80.8589172 104.0309811  96.7403221  80.3126144
  19.2699961  66.5300941  88.3611012  18.5697417  67.1822786  88.3378220
  19.9174170  66.8513012  87.7334785 111.8550331  23.2036739  68.9608574
 112.6815540  23.1282382  69.4377232 112.0696718  23.7311893  68.1915188
 111.1180050  13.9894538  82.5513649 110.6606418  13.7383418  81.7488670
 110.9004432  14.9137931  82.6718044   0.6911044 109.5705605  90.8022881
   1.4433341 109.8764038  90.2954865  -0.0380750 109.5872211  90.1824093
   6.2766795  80.8672523  87.9670334   5.4254107  81.2798405  87.8209019
   6.8812613  81.6001797  88.0833626 105.8655674 107.0649816  18.5296223
 105.1983721 106.6515209  19.0774605 106.3146478 107.6729728  19.1169045
  63.7689257  94.0178490  83.9553261  63.7924528  93.0612946  83.9294529
  64.5632172  94.2895031  83.4953976  88.7470055  87.1030140  28.3449912
  89.2099190  86.2660789  28.3834600  89.3292046  87.6760387  27.8460741
  96.4367771  70.0109243  90.9575462  95.8128357  70.6867504  91.2224579
  97.1359634  70.0617266  91.6093063 104.4325161  87.4426651  73.9810753
 104.0307331  86.9453239  74.6934366 103.6921978  87.8102207  73.4983063
 102.7325535  84.3753910  81.7323112 102.6712036  83.7457848  81.0139275
 103.3491993  83.9779186  82.3471260   7.1802174  53.3725600  78.4119606
   7.4914204  54.1466956  77.9428387   6.6342103  52.9104667  77.7759027
  82.5325298  73.8707685  93.8075256  81.7908669  73.4225512  93.4009933
  83.0397320  74.2113590  93.0706501  73.8627720  97.5160885  37.5076771
  73.8756084  97.5891781  38.4619975  73.0348825  97.0772076  37.3121881
 102.8136158  97.8403282  69.5057440 102.5741482  97.6538467  68.5979366
 103.7639141  97.7282619  69.5306301  85.1352024  97.5355244  77.9321432
  84.3359566  98.0456543  77.8009462  84.9599266  96.7001057  77.4990368
 106.2480259  88.2113266  79.3962717 105.4224491  88.6573696  79.2073202
 106.6702271  88.7591076  80.0580311  55.2407169 105.6124783  80.4644203
  54.9320507 106.2595749  81.0986328  54.5684099 104.9311638  80.4708767
  49.0469300  13.1601958  93.6279678  48.2307564  13.3647494  93.1716251
  49.7299325  13.3026176  92.9726410  15.1896130   4.0209727  80.3311539
  14.3358552   4.3936305  80.5512428  15.7504117   4.2534881  81.0711956
  16.6367280   5.2617030  76.5408802  16.0295807   4.7360473  77.0617390
  16.2903916   5.2148967  75.6497622  88.5097599  99.4792366  55.8896875
  88.1221867  99.3967915  56.7610168  87.8450108  99.9358463  55.3740883
  95.6336403  99.1966152  88.3890533  96.3626480  99.8097229  88.2948685
  94.9534893  99.5426464  87.8112221 106.3615513  77.0750284  79.3022060
 107.1464348  76.6492176  78.9574289 106.1845970  76.6204357  80.1257706
  32.8891533  82.9427296   9.3135330  33.2662743  83.6747414   9.8015472
  32.5286263  82.3661572   9.9871895  72.4492168  87.3235130  72.4363661
  71.6740942  87.7276993  72.8262997  72.0996952  86.6618443  71.8394852
  70.7525110  90.7697392  65.1812649  70.8018541  89.9454212  65.6653070
  70.6804991  90.5050564  64.2642117  87.1527672  90.7837868  73.8236713
  87.5479126  90.6939602  72.9564762  86.9569111  91.7174435  73.9020920
  93.0578804 108.5243320  37.4864626  93.9451408 108.5727310  37.1305776
  92.4890709 108.5601807  36.7174339  98.1576902  11.9464927  60.2918434
  98.8198835  12.5573783  59.9685240  97.9163629  12.2884135  61.1527061
  54.6578329  60.5539758  15.1424095  53.7007063  60.5584294  15.1319572
  54.8865526  60.0245625  15.9063789  80.0367832  77.4396753  78.5777760
  79.4198036  76.7834282  78.2538795  80.4344273  77.0347357  79.3485785
  38.0458771  10.5240111  39.4861531  37.5048100  11.2120872  39.8734975
  38.5062729  10.9574084  38.7675142 111.6729832  97.8580093  69.3726730
 110.9169006  97.5652981  68.8638639 111.9991970  98.6228466  68.8985014
 112.1271133  98.9345932  45.8549023 112.1591473  99.1966629  44.9348354
 112.9041481  99.3347836  46.2451363  27.1903931  16.0870032  39.2853904
  27.7988087  16.6863017  39.7177172  27.4884163  16.0577541  38.3762360
  36.1064278   1.9584994  40.0234747  35.6841885   2.3547416  40.7856655
  35.3875958   1.7806392  39.4169378  80.9360790  87.3965836  88.9469337
  81.5924168  87.8586197  88.4254169  81.0407543  86.4768124  88.7034035
  11.3505034  89.0740204  27.3044014  12.0593409  89.5430660  27.7446032
  11.7388110  88.2368088  27.0503688  82.9510784  88.5867691  87.5215435
  83.0753517  88.8152027  86.6003418  83.8153172  88.7037849  87.9160309
  28.6479252  59.7732026   1.7611477  28.4196251  59.1436822   2.4451134
  27.9930800  59.6320111   1.0774300 101.8985081 103.3821583  54.0671062
 101.2000370 103.4106541  54.7209787 101.4508820 103.5199547  53.2323170
  76.5761965  84.1419370  11.0078976  76.9035452  83.7292821  10.2086517
  77.3290652  84.6191937  11.3566849  26.8128525  19.2164378  75.5959368
  26.8033158  19.4272761  76.5295792  27.6089894  18.6988788  75.4753876
  48.0665636  84.7380161  91.9013500  48.7204456  84.3882179  91.2961197
  47.2263145  84.5272541  91.4941788 117.7027017  17.0157199  51.3595390
 118.2749302  17.5532012  50.8119059 118.3001739  16.5459018  51.9413710
  24.5521754  56.5464074  16.3289902  25.0937098  55.7582433  16.3709995
  23.6537712  56.2237889  16.3998196 100.1821423  92.5477886  86.9171619
 100.7086372  91.8423557  87.2931957 100.7287312  93.3284569  87.0067024
  24.4625985  22.7869372  55.1470184  24.9141060  21.9708591  55.3624344
  23.6711346  22.7720218  55.6851530  91.7632675  98.6433125  96.0232067
  91.7528629  99.0007687  95.1353264  91.8751431  99.4080067  96.5879726
  94.5501232  99.7879505  59.2929125  94.9705124  99.4240665  60.0720739
  94.3943119  99.0303898  58.7289476  86.6650200  88.1092167  90.8061695
  86.1111641  87.5857353  91.3853455  87.3305511  88.4824371  91.3840961
 116.2937767   3.6889320  50.1545000 116.3455183   4.6031814  50.4332733
 116.8494827   3.2174831  50.7751083  84.4240761  93.1760502  61.4288282
  84.4097710  92.3005772  61.8155718  84.1617680  93.7574863  62.1425247
   1.0453181  86.2036610  58.1515265   1.9661479  86.4222336  58.0081940
   1.0350280  85.2497482  58.2302046  68.1101370  89.6236324  68.2613945
  68.9993000  89.8545647  68.5302544  68.2045174  89.3176937  67.3593283
  51.9814301  75.3978825  59.6512842  51.0451460  75.5392933  59.5112705
  52.1551037  75.7788277  60.5120707  74.8798800 100.5725861  79.1306162
  74.4171286 101.2615585  79.6074915  74.2597866  99.8440075  79.1007519
 106.6313457  57.6587009  70.8348083 106.5236568  57.5792265  71.7826033
 105.7507133  57.8435421  70.5083656  43.8881636  98.6314011  80.6452847
  44.5902300  99.2257309  80.3804970  43.1159210  99.1918182  80.7214355
  89.4684315  87.3858643  94.3081951  89.1493130  87.1926594  95.1897144
  89.7426701  86.5369225  93.9613342  24.6590458   0.7933478  48.0043459
  24.4404732   1.7165713  47.8774595  24.2783772   0.5716949  48.8541698
  53.0876272  46.4142281  11.9866440  52.4441355  45.7061440  11.9592831
  52.5731199  47.2106511  11.8553898  97.2731495  97.3281097  62.7227306
  97.9826260  96.7988396  62.3583698  97.2260189  97.0652866  63.6419344
 115.5636692 103.4049129  79.5824099 115.0054073 103.8080502  80.2472782
 115.3806305 102.4679565  79.6520138 106.1645317  90.8134270  66.9126034
 105.2667427  90.9166622  67.2281313 106.2020969  91.3465309  66.1184883
  77.7893829  96.6835213  39.7546768  78.0406427  97.3243618  39.0895247
  78.4666204  96.7580700  40.4270029  70.5919647 110.9241390  27.3034883
  71.5166712 111.0244179  27.0774364  70.4994440 109.9983788  27.5285220
  99.2842007 111.3280296  68.8406610  99.7473145 111.3474369  68.0031729
  99.9715042 111.1840725  69.4911385 109.6074867  91.8205929  67.1601677
 110.4653168  91.6598988  66.7670679 108.9850140  91.6582012  66.4513731
  68.3931273  79.9658925   2.0978806  67.7198714  79.2856175   2.1116421
  68.5349196  80.1437527   1.1680958  63.6114359  83.0244350  54.3978930
  64.3579340  82.6003075  53.9747047  63.8578892  83.9479637  54.4488001
  61.4043349  42.0202691  12.0737526  60.9885710  41.5026433  11.3842365
  60.9216803  41.7924172  12.8683350  42.4910259  81.5422153  76.2332916
  42.9208279  80.6984520  76.0934210  41.5554142  81.3433456  76.1970425
  74.8236609  96.8210411  88.8465023  74.7656631  96.5116692  87.9425335
  74.4709158  97.7104282  88.8183594  90.3395081 101.7887497  64.0782070
  91.0939693 101.4404869  63.6030960  89.7907925 102.1831799  63.4002876
  31.6333233  13.1393199  48.5004520  32.5601136  13.3614879  48.5894966
  31.4112412  13.3929019  47.6045704 114.8468018  85.5917645  84.6193123
 114.2440891  85.8994484  83.9423370 114.2786694  85.3185654  85.3396130
  97.6036358  89.4581604  44.8071861  98.0588436  90.2006435  44.4100332
  96.7423916  89.4539642  44.3894815  88.9151764  85.9461784  61.8552828
  88.3159828  86.6872501  61.9447947  89.7296619  86.2466621  62.2584772
  38.2868420  18.7702518  79.3882179  38.2319294  18.0384116  80.0027370
  38.0963742  19.5436053  79.9191332  79.7111320  67.6454449  55.0141144
  79.2734480  68.4166574  54.6537066  80.4760265  67.5198221  54.4525146
  83.7162399  81.8618107  58.1593370  83.0815983  81.4959049  57.5432444
  83.4017849  82.7500343  58.3278513  21.4078873  40.5821950   9.1686127
  22.3368138  40.7373101   8.9975426  20.9774130  40.7598359   8.3323357
  81.0370636 104.8766613  68.6291504  81.1716366 105.5131435  69.3313026
  81.4027882 105.2974892  67.8510857  90.8980656  91.5382957  66.0818386
  90.1361370  91.2762260  66.5985632  91.4003658  90.7312584  65.9695053
  42.4684954 101.7117119  58.5295963  43.4059000 101.6675282  58.7181568
  42.4210978 101.9841480  57.6132107 109.7995758 107.6526546  75.2021551
 110.2279854 107.8713417  76.0297203 109.0310192 108.2224560  75.1724148
  16.0106503  23.1006484  79.1464376  16.7878567  23.5577254  79.4677925
  16.3562809  22.3416762  78.6766100   6.4256894  24.5767741  56.0683107
   6.3879715  24.4551234  55.1196194   6.3746487  25.5247836  56.1904287
  75.3776932  89.6243954  66.0848427  75.8837605  88.8444424  65.8572626
  75.0134754  89.9249649  65.2522373  68.3231926 105.9269238  29.8883486
  68.2575560 105.3081417  30.6156921  69.1258955 106.4180946  30.0634360
  82.4356365  98.0026054  53.9232206  82.5546837  98.7658310  54.4884968
  83.1305313  98.0781746  53.2692719  25.4145562   7.6659255  61.4210892
  24.8924290   7.0980983  61.9878292  26.0948311   7.0922332  61.0684824
  40.4519749 110.6934738  81.6486073  40.4668665 110.0577450  80.9331608
  41.0636950 111.3768101  81.3745880 104.6538258  90.7843304  75.8808470
 105.0888634  91.1384106  75.1052141 103.7656403  91.1388683  75.8401108
   4.8817193  10.4670005  72.0901966   5.2042328   9.7672515  72.6581478
   5.2542435  11.2670951  72.4607515  27.7796208  23.4528594  79.0359402
  27.3481785  24.0189319  79.6759844  28.3699070  22.9085689  79.5570278
   4.4255291  10.5342631  90.4673004   3.9573418  10.5379634  89.6324253
   3.8058411  10.1504378  91.0877037  98.2380199 100.2288055  54.4705009
  97.5370789 100.1321220  53.8258553  97.8165817 100.6462097  55.2217674
  75.4221106 102.7412987  83.2335854  76.3220549 102.5253296  83.4778881
  75.1262426 103.3428478  83.9168358  66.5710115  99.3495464  63.9875174
  66.4307737  99.4663239  64.9271584  66.4969349  98.4051991  63.8498354
  56.9793034  69.1397381  76.0127687  57.2644520  69.3602753  75.1260424
  57.7613592  69.2572737  76.5520382  11.4491116   4.7453647  81.1454678
  11.8359791   3.8707500  81.1053848  11.5433823   5.0072150  82.0613194
 104.2070038  18.7566333  56.3701820 104.6142894  19.5556407  56.0356236
 103.8849909  18.3067660  55.5890512  20.2995079  42.0873505   1.7498657
  20.8435600  42.5108392   2.4138710  20.8707875  42.0101983   0.9857246
 101.0573006  79.8398829  78.8065100 101.8731308  80.3225517  78.9394951
 101.1438179  79.0654850  79.3624401  70.4996490  61.7520094  57.0470142
  69.7284126  61.2334299  56.8178797  70.5955029  62.3712587  56.3234329
  69.2174721  59.1112328  64.9715376  68.4193230  59.4313478  65.3919077
  68.9502144  58.9048624  64.0758705  67.6408339 111.5588093  94.4631481
  66.9074869 110.9554672  94.5832348  68.4138966 110.9947872  94.4412327
  64.7364950  93.1675148  40.6674242  65.5081034  92.6039696  40.6102753
  64.1773748  92.7428150  41.3179970  58.3772564  99.3605614  85.8571053
  57.7355480  99.0440750  85.2212715  58.4164476  98.6719799  86.5208530
 102.8343678  96.5561104  83.4583187 103.3079147  95.8873940  83.9530849
 103.1441593  96.4526272  82.5585651  91.2696457 103.8671780  90.5622196
  91.8398285 103.1030178  90.4774570  91.7543316 104.5757961  90.1389217
  44.2460108 110.9362793  82.2418594  43.4023190 111.1303043  82.6502419
  44.5902824 111.7917728  81.9852638   2.4906211 103.8819885  72.8361130
   3.1182151 104.5849800  73.0039310   1.8541961 103.9542294  73.5474300
  86.8863010  98.3035183  65.5037498  87.5269985  99.0064144  65.6117678
  87.1202850  97.8919220  64.6718407  86.0895920  86.4493465  72.7833700
  85.2692604  85.9702206  72.6662159  86.4465046  86.5329552  71.8991470
 113.2747633  32.4118953  58.4883785 112.8415949  31.6120200  58.7863874
 113.1090337  33.0476241  59.1845179  53.6846924  77.6010275  92.8783321
  52.8251171  77.4904108  92.4719715  54.1147566  76.7536306  92.7634621
  95.9988594  85.9439659  86.4271641  96.3161755  86.5864754  87.0617676
  95.0978851  86.2113953  86.2456322  97.5174522  97.1590900  84.6821499
  97.8491402  96.3183975  84.3667889  96.6165257  97.1968079  84.3610001
  31.0280054  71.8875939  12.0066425  30.1337450  71.7145402  11.7123863
  31.5166491  72.0568902  11.2011597  11.6485535   6.0518031  51.6726637
  10.9416520   5.8748679  51.0520124  12.2320687   6.6506629  51.2067223
  60.5568266  75.4973555  81.0797024  60.8104992  75.1440620  81.9323826
  61.0279512  74.9559355  80.4463482 111.3695842   0.3431659  56.7916059
 111.2462694   1.1006217  56.2195206 110.5925876   0.3361755  57.3505878
  93.6617756  75.0037718  76.0075378  93.3535099  74.3083191  76.5885258
  94.5795727  75.1284075  76.2490845  76.2250853  93.5569668  72.1387672
  76.3978863  92.6189137  72.2188854  76.4716530  93.9194584  72.9896736
  90.4617500 105.1527500  86.2896156  89.9707222 105.5052090  85.5473900
  90.3953934 104.2029190  86.1913490   3.6093747   8.7973743  35.8831072
   3.6568772   8.6480575  36.8273973   2.8853737   8.2444434  35.5893111
  69.6579695  87.3343563  43.2090616  70.3323650  86.6691875  43.0713034
  70.1322651  88.1653595  43.1826496  12.9674929  37.8703553   7.5113556
  12.6064890  37.1877915   6.9456455  13.8660162  37.5886304   7.6831409
   2.8113608 102.2049999  68.7404299   3.3234935 102.0089531  67.9558802
   2.4105696 103.0550194  68.5586166  34.5339047  18.3928256  73.7049770
  35.4727303  18.3530383  73.8873291  34.2371212  17.4857097  73.7777758
  75.0204897 104.2888260  89.3147850  74.1410446 104.0673637  89.0085793
  74.9564695 105.2049065  89.5848179  17.3336255  12.9398875  82.7731705
  17.2583901  13.8940292  82.7863312  16.5385090  12.6309161  83.2074070
  91.6361141  86.7958069  76.8323374  90.7444763  86.6101074  76.5378189
  92.1339035  86.0126686  76.5975142  72.5035954  93.2518864  59.0708017
  73.0921841  93.8734436  59.4991255  72.0816231  92.7854156  59.7923136
  94.8047352  90.3997707  53.1655264  93.9137363  90.6174183  53.4393406
  94.9102020  89.4786644  53.4035873 104.8764706  84.5388985  76.0234737
 104.0136909  84.8808861  76.2577295 104.8265553  84.3893051  75.0793505
  95.3142738 105.2322769  54.7620153  95.3642559 105.9634590  54.1462994
  94.3813705 105.1486969  54.9593735  45.8052176  63.6348779  10.6925461
  46.2345141  64.4175679  11.0379860  46.4427202  63.2606751  10.0844452
  97.6963806  74.8606062  56.4037704  97.9038620  75.7442379  56.0998201
  97.8407097  74.8925734  57.3494864   2.0308243  37.2726207  40.8150673
   2.8200184  37.3175674  40.2752686   1.4012085  37.8368907  40.3662682
  10.3090243 105.3888607  94.0598106  10.2967124 104.4627857  93.8180161
  10.4983191 105.8476162  93.2413101  15.8267437  22.2786670  41.1563110
  16.3918149  21.6828971  40.6643963  14.9373185  22.0043807  40.9328651
 107.6175976  84.0620041  84.7596264 107.7481651  84.3641281  83.8607979
 107.8890228  84.8019314  85.3028297 107.8908539  88.2951450  90.6402397
 108.6816406  87.7569771  90.6757355 108.1761551  89.1598320  90.9354496
  88.3417320  78.5265446  82.0538235  88.1147957  78.7628460  82.9532051
  88.0076408  79.2506313  81.5243721  75.5007505  92.0478153  85.3992939
  76.3601828  91.6469669  85.5293846  74.9475145  91.6521931  86.0728264
  81.6042900  97.0747757  92.7630329  80.8285046  96.5465641  92.9511070
  82.2975349  96.4341164  92.6043034  77.7080584  72.2680664  56.8259239
  78.2749033  72.5605679  56.1122274  77.0991850  71.6559124  56.4126778
  91.1029530 103.6954021  46.8033838  91.6760540 103.8961506  47.5433064
  90.2221775 103.6868763  47.1780586 103.2326109   3.5583358  56.7925501
 102.8907568   2.8413158  57.3266363 103.2470113   4.3112998  57.3833752
  98.6619282  92.2546196  69.2248249  98.9789104  92.2768879  68.3219099
  97.7133846  92.1553230  69.1432905  97.0226192  82.1498680  39.2983794
  96.1963081  82.6068497  39.1415071  97.5656700  82.3703480  38.5415983
  50.7436007  39.5485646   7.6299641  51.5684717  39.2365510   7.2578499
  51.0071676  40.1188618   8.3521339  96.6056156  97.9968357  35.6097531
  96.3636971  98.7205124  36.1876822  96.2286568  98.2312775  34.7617102
  66.4979458  77.7080965  72.9392672  66.5970373  78.5294724  73.4206820
  66.2165546  77.0755196  73.6002445  89.3386936  71.0886002  65.2620888
  89.9384308  70.5918312  64.7055197  88.4752750  70.9395123  64.8766947
 110.1688290  96.2529469  80.2674675 110.3533840  96.7425919  81.0689831
 109.7229195  96.8817234  79.6999836  46.7214584 110.2269268  62.0050430
  46.8837023 110.7194996  61.2005043  45.9877348 109.6512127  61.7895603
   5.9565102   1.4829307  40.0167990   5.7066380   1.4953189  40.9407282
   6.1434208   2.3979526  39.8069501  67.5427103  86.1767769  74.6324873
  66.6766357  86.5831566  74.6008730  67.4503565  85.4650784  75.2658892
  98.5518247   2.0932059  88.0297375  97.8709013   2.1679740  88.6983109
  98.7299282   1.1544185  87.9732132 113.1321335 107.4754429  47.1179056
 113.6646175 108.2700729  47.1535158 112.3702812 107.7209759  46.5930033
  83.7256622  93.1635189  26.3167214  83.3360386  92.9931450  27.1742749
  83.1362343  92.7346134  25.6963634  74.6321058  79.2770433  75.0518179
  74.7017145  78.3227253  75.0260162  73.6958170  79.4515657  74.9562407
  73.9407903  21.9811778  66.9700003  73.2754404  21.8870406  66.2883282
  74.7068006  21.5249782  66.6216516 102.9841995  98.3827686  47.4567127
 103.9402485  98.3641434  47.4998283 102.7036762  98.4096909  48.3714867
 101.5723228  95.4267025  54.3319082 102.5271511  95.4054165  54.2680407
 101.3979721  95.8414173  55.1768017 115.6168747  92.6248837  78.8109446
 114.9168682  92.1276951  79.2340565 115.1965523  93.0341434  78.0545998
  86.9721222  89.5242119  69.5754194  87.4802494  89.8550797  70.3160667
  86.1153984  89.9410915  69.6674156 112.6428986  95.9890652  65.8314180
 113.5679245  95.8471489  65.6303406 112.3268890  95.1334381  66.1217117
 115.8982468 102.9748726  51.7825556 116.8061638 103.2579136  51.6738796
 115.4871941 103.6770153  52.2867966 106.6470432 100.9045506  61.8040800
 107.5395012 101.2239170  61.9372988 106.2288761 100.9982014  62.6599979
  71.0117483  93.6491776  82.4436569  70.5264044  93.4630394  81.6399002
  71.5537167  92.8723240  82.5815296   8.0341660  19.2601638  93.3348465
   8.9417683  19.4691997  93.1139565   8.0027424  18.3034854  93.3382797
  18.4693753  29.1783862  68.5944796  18.7208592  29.8965030  68.0137062
  17.9877316  29.6022754  69.3048048   7.6015221  37.6144176  44.6353006
   6.7255818  37.6092105  44.2493773   7.6921307  36.7495685  45.0353813
  15.0057351  25.3674369  75.7299852  15.6684529  25.7995563  76.2687874
  15.2565037  25.5747466  74.8297834  72.7213287  69.7176790  59.5760489
  72.1695948  70.4967403  59.5061111  73.2369089  69.8598051  60.3699064
  83.7011433  98.3505535  95.1439571  82.7931404  98.5562229  94.9215412
  84.2055511  98.6409473  94.3840313  97.7001095  92.8673840  72.7060461
  98.0587006  92.8076172  73.5915232  97.9234886  92.0297909  72.3001337
   1.1968665 104.2971516  67.5173569   1.6609435 104.7750854  66.8300056
   0.2820449 104.5599174  67.4159479  28.2162159  69.4699628   7.4615356
  29.0620392  69.7854096   7.7798054  28.4363812  68.8812405   6.7396137
 113.0938148 109.1509914  70.8296824 112.8568840 109.2081070  71.7553329
 113.3316612 108.2329941  70.6995201  79.2824459  97.3599529  90.2288151
  79.8353148  97.4099064  91.0086060  78.4572458  96.9908524  90.5435181
  38.2303845  11.0959964  79.2108011  37.8311669  11.7966418  78.6951065
  37.5314175  10.4512935  79.3205500  38.4633767  15.4781489  88.4414101
  39.2734467  15.3341155  88.9305782  38.3298432  16.4254718  88.4727955
  46.2712227  34.6114116  61.4694166  46.0761391  34.2496257  60.6049585
  46.0219800  33.9184432  62.0808935  61.0942303  11.0829787  70.4320526
  61.7478119  11.7809062  70.4763985  60.5098568  11.3468890  69.7213554
  48.5071694  29.8101001  78.6104870  47.6959836  29.3081336  78.5315132
  48.6413323  29.9016147  79.5538092  96.7848760  18.9816623  56.2539625
  96.5480787  19.0867000  55.3324842  96.1975128  18.2977729  56.5757418
  95.4812622 103.1985950  95.3015232  95.8025360 102.2999859  95.3758335
  96.2691498 103.7396908  95.3532219  99.3002224 105.9295368  56.6636229
  99.9457836 106.6266823  56.7796898  98.6458492 106.0935783  57.3426771
  23.3400570   0.2713924  83.0307579  23.5479676  -0.4771943  83.5898781
  24.0562378   0.8885245  83.1806660 116.4732647  99.7024822  69.9815321
 116.5678024  99.8014164  70.9289026 117.3718166  99.6626568  69.6540308
  95.2226257 111.2897396  80.0835896  95.7385731 110.9112167  79.3717289
  95.8226967 111.8955994  80.5184174 112.8399641   4.7292953  65.3203297
 111.9104225   4.6411376  65.1095915 112.8596479   5.3170447  66.0755730
  17.0829903  20.8770137  78.3326483  17.9505478  21.1503844  78.0345726
  17.2574936  20.2404933  79.0259171  97.2397327  80.6403542  36.5569592
  96.3042450  80.4988289  36.7021585  97.6533985  79.8294353  36.8528056
  22.3466622  16.2923293  68.5011101  21.7535054  17.0161014  68.2997465
  23.0069863  16.6770892  69.0774488 117.8304768  88.8619614  74.6558857
 118.6696148  88.5391045  74.3275023 117.8102303  88.5870934  75.5725479
  40.3707665  73.7290723   0.3113815  41.1199587  73.4940678   0.8588383
  40.4496687  73.1646401  -0.4576614  13.4830414  16.9609027  95.0516891
  14.0617978  16.4739661  95.6383419  13.8515603  17.8440623  95.0303936
  44.2286986  71.9086129   9.0088150  43.4824961  72.3844201   8.6440918
  44.0340155  71.8378121   9.9433300  13.3937697 105.6198311  95.2218056
  13.4621291 106.4744282  95.6475067  13.7209658 105.7674122  94.3344593
 108.2791901  96.3037014  86.3751984 107.3901749  96.5870094  86.5887737
 108.2066727  95.9284878  85.4975986  95.6001091  97.6802444  96.5786934
  95.4542637  96.9594193  95.9660149  96.4736080  97.5185490  96.9351959
   5.7543425  89.6008396  58.3022547   5.7208686  90.5152035  58.5833883
   6.3613276  89.1842365  58.9140034  86.9653528  32.3435075  17.8181717
  86.4567679  31.9024617  17.1376965  87.6494807  32.8121144  17.3400471
  85.2910709  76.0287094  63.2918215  85.0066280  76.9018173  63.5620213
  84.5440769  75.6713772  62.8116608  26.0384499  32.4733977  92.8477669
  26.8373620  32.1933227  93.2944584  25.3439747  31.9509940  93.2490444
 111.1417961  89.5409393  63.6801577 111.8944073  89.1981888  64.1621733
 110.4438114  88.9065456  63.8432455  98.9597797  98.2320881  86.9503880
  98.2990456  98.0765152  86.2755203  99.5459843  97.4777985  86.8900490
  22.3773705  33.0579810  90.9492397  22.1452080  32.3611217  91.5630150
  22.9795586  33.6179118  91.4392185  47.9608952   1.9280963  63.1615353
  47.3337399   1.2064033  63.1160212  48.4826981   1.8426375  62.3636341
  70.3300589  56.7643697  24.0128014  70.6521147  56.7085893  23.1131336
  69.7359293  57.5148541  24.0084145  59.4575058  12.2325187  87.3081112
  59.2799603  11.5051704  87.9044914  58.6081635  12.6576572  87.1893406
  39.5480286  18.0012469  66.8245792  39.3489205  18.9322429  66.7254543
  40.4375302  17.9828315  67.1776915  73.1009626  91.5548229  56.8864489
  72.7674437  90.6943607  57.1406221  72.8229618  92.1377277  57.5929737
  95.3483772 108.0360126  81.2266445  96.1766052 108.0761147  80.7484531
  95.5630207 107.5782871  82.0394421 114.8354799  39.5747333  86.6267872
 114.3273288  40.3002124  86.9896793 115.0469524  39.8526435  85.7355690
  39.4788395  25.0091796  69.6971512  39.9705159  25.8234553  69.8040438
  40.0743710  24.4305472  69.2209578  39.0087830  32.9728370  80.0584412
  39.4272648  32.2816424  79.5452547  38.6855160  32.5273566  80.8415699
  55.4081839  85.3251988  10.7654354  55.5429381  84.8836095  11.6039249
  55.5634421  84.6458203  10.1092598 112.6029015  94.1381359  55.4142284
 112.1275139  93.7663555  56.1572075 112.1589756  94.9673557  55.2365541
  25.5817097  37.5575787   8.5872433  26.2621802  36.9712121   8.2565472
  26.0451143  38.3687741   8.7956879  29.9523961   7.9874282  96.1879444
  29.3189560   7.8416877  96.8906212  29.4598996   7.8234630  95.3837013
  77.8264380  90.9695244  86.4881420  78.1451273  91.0683346  87.3853111
  78.3898687  91.5435600  85.9692383  25.6708180  17.9031329  87.1503448
  25.1947533  17.0879035  86.9922447  25.4605042  18.1315761  88.0557728
 102.9376698 108.1085491  89.5116520 103.8915062 108.1886768  89.5090771
 102.7184963 107.8279591  88.6231327  32.2542702  34.8834949  84.7869587
  32.4317299  34.0216689  84.4101429  32.9801690  35.0342612  85.3924084
  93.4085464 111.1983490  55.2750874  93.4509087 112.1434116  55.4210186
  94.1508579 111.0112190  54.7004652  44.0796219   5.1058822  76.2309122
  44.4283616   4.3704753  75.7271385  43.9645802   5.8044105  75.5866575
   9.5361190  87.1523094  20.2712560  10.2556090  86.5692234  20.5133104
   9.6263461  87.9013729  20.8603263  15.6806599   3.5417132  50.8262062
  15.1826703   3.5253005  50.0089073  15.7993542   2.6193481  51.0529184
  40.6026381  51.5244538   8.2057545  39.8191946  50.9764726   8.2523319
  40.7213705  51.8489415   9.0984127  24.4644486  21.9489913  93.3916378
  24.3079602  22.4967246  92.6224041  24.9587285  22.5104194  93.9888954
   2.2732007  31.9478564  71.8346977   2.6709210  32.0214515  72.7022409
   2.4207436  32.8027778  71.4302635  11.2974869  15.5562072  96.4023781
  12.1504532  15.5395942  95.9683323  11.4216458  15.0334602  97.1945572
   4.9367194  99.3677139  77.4539375   4.2015509  98.7935257  77.2393036
   4.5277934 100.1922512  77.7169275 102.3703957 105.4963303  79.1424561
 101.7176342 104.9359989  78.7227392 101.8567371 106.1143208  79.6625328
  91.7442322  59.4907570  29.4316649  92.2039795  59.9595642  30.1281428
  91.0010242  59.0775967  29.8711872  40.1958101  58.2904584   1.6221401
  41.0886210  58.5212380   1.3654968  39.8305338  57.8541810   0.8524200
  91.7814142  15.4543834  78.5274982  92.3345644  14.9628692  79.1346836
  91.4082271  14.7880416  77.9504871  29.5701157  30.3296046  67.0788240
  29.4981133  29.3825774  66.9597149  29.2330109  30.4863792  67.9608774
  24.4328534   4.6376567  81.5022945  24.1246163   4.2073493  82.2998238
  24.9971615   3.9883380  81.0825825  28.7712037  17.3935466  75.3821087
  28.7854611  16.9905620  76.2502289  28.7717568  16.6538196  74.7746277
  64.8485106  64.3395001  18.2188961  65.3076475  65.1542622  18.4228203
  64.5598429  64.0079743  19.0691921  67.9715269  75.3519589   8.1285641
  68.7427252  75.1979405   8.6742470  68.0521029  74.7182614   7.4157021
  81.4940071 104.3400764  61.2487888  81.0772991 104.8342609  61.9547367
  81.4165211 104.9069786  60.4814291  91.6525650  96.2325859  74.5381212
  91.9603539  96.0357189  73.6533976  90.9249783  95.6267643  74.6789408
  92.7536869  96.0817623  83.2828522  91.7978573  96.0444164  83.2479286
  93.0263519  95.1676941  83.3625793  76.1582661  91.2063980  68.2772255
  76.7740393  90.5144215  68.5185337  75.8964968  90.9924793  67.3817110
  22.3656403  39.4139915  39.6322465  22.1320378  39.6330886  38.7302160
  21.7598092  38.7131267  39.8730707  99.3036825  26.3139205  93.3753967
  98.7397272  26.2716918  92.6031208 100.1656610  26.5462737  93.0300903
  18.0671471  55.8629186   1.1529514  17.6016634  55.4481751   1.8792793
  18.7575930  56.3760049   1.5727779  73.9333552  97.7538068  25.0213406
  74.0870970  96.9290025  25.4820892  74.3247145  97.6223046  24.1577503
  10.9839951  19.0629535  51.9749212  11.2092148  19.5523887  51.1837435
  11.4219224  19.5364051  52.6822376 109.6138287 109.9020672  71.8315601
 110.5380154 109.6892548  71.9613028 109.1919136 109.0559673  71.6820955
  79.4705343 109.2230797  96.3022232  79.1908789 109.0734386  95.3990936
  80.4262161 109.1822529  96.2669086   0.7345187  36.8072944  88.5547352
  -0.0928749  36.7104011  89.0261841   1.0849844  35.9182029  88.5007858
  96.0447502  98.8286591  80.7272434  96.8437672  98.5397720  81.1680889
  96.0435009  98.3520603  79.8971319  99.4045353  98.3452511  73.1250143
  99.2337799  97.7476120  73.8529539 100.0167465  98.9886951  73.4819508
  -0.0539823  87.0016670  64.9660397   0.3982501  86.1674690  64.8402929
   0.6383662  87.6602650  64.9100542 105.8362389 102.9131794  72.4477482
 106.3022327 102.6800919  71.6447830 105.0682449 103.3987236  72.1466255
  41.7480408   3.9366679  86.0824394  42.5459515   4.2357402  85.6464100
  41.4512955   3.1943374  85.5560207  97.7004337  82.4115944  59.0444899
  97.1804428  81.7536449  59.5059490  98.2524490  82.7998543  59.7232819
  32.5087868   9.3538623  73.4561396  32.7861058   8.4389835  73.5043669
  33.2909142   9.8538451  73.6896372  58.4153097  72.7306420   5.6935379
  57.7007979  72.7404076   6.3304016  58.1328314  72.1052415   5.0262138
  27.8830849   9.9288802  88.1451702  28.7886082   9.6436648  88.0230427
  27.8833615  10.3697829  88.9947796 114.7984505  78.2591295  94.6289062
 114.6313286  77.7759075  95.4380989 115.5461502  77.8116179  94.2327785
  80.6102467  95.2211094  20.3562188  80.8380032  94.3457890  20.0428939
  81.4517593  95.6285286  20.5614138  91.3850784  90.9865379  87.3246479
  92.2339916  90.7540607  87.7008629  91.0578918  90.1693726  86.9485855
  28.3306347   2.0830493  26.5296793  28.3683144   2.2765117  27.4663687
  29.0543877   2.5832133  26.1525106   6.2613522  31.9356208  72.0026016
   7.0747696  32.3660712  72.2658587   5.8999287  32.5026469  71.3213539
  95.7367516  89.1107750  62.5492907  95.9680462  89.8113632  63.1591415
  94.9073124  89.3929672  62.1637630  24.2590939   0.6315475  64.3792486
  23.7845837   1.1093574  65.0595236  24.6625458   1.3147407  63.8437986
 118.3828926  82.3220921  33.5965157 118.2089520  82.4603462  32.6654601
 117.9900932  81.4708519  33.7897348 111.4699966  15.8660464  59.6049595
 111.9850523  16.3484435  60.2516794 111.7039377  14.9489932  59.7481918
  45.1070135  71.7895562  21.1423275  44.9954909  72.0906598  22.0440647
  44.2597216  71.4094979  20.9101936  27.7516781  37.7979808  92.3320961
  27.5410496  36.8984752  92.0815754  28.3209645  37.7067428  93.0961800
  40.8628975   1.1703353  68.7038183  41.6857373   1.4786773  68.3242130
  40.1842629   1.5541701  68.1485224  47.3070145  94.7143841  29.4110584
  47.6924706  95.2090931  28.6879325  47.8272724  93.9122009  29.4566250
  16.3320576  12.4231105  56.2235832  17.1337353  11.9083648  56.3163042
  15.8151852  11.9465022  55.5740356 107.5063419 111.3339233  60.2170944
 107.2410297 110.4315472  60.0394201 108.4531975 111.2837791  60.3481770
  21.3865887  13.0714851  43.7719107  21.7116200  12.1718364  43.8069057
  20.4667889  13.0039840  44.0281057  30.3202933  21.4233167   4.9527714
  29.8458689  22.2533757   4.9063179  31.2175816  21.6460902   4.7048256
  69.9047995 105.1651764  73.1782627  70.4226971 104.4955635  72.7314663
  69.4692755 104.6959114  73.8898420 101.3607294  30.3404861  83.4155464
 101.4297945  31.1239772  83.9610767 101.2004978  30.6761031  82.5335503
  41.5682065   7.0764117  57.6091623  41.2798630   7.5136523  56.8079662
  42.3283898   7.5816398  57.8974438  27.0326458   2.6236491  93.2124043
  27.1719777   2.8773837  92.3000240  26.5751873   1.7844539  93.1604481
 106.7316658  30.0261550  89.7844410 107.5959427  30.2026801  90.1560497
 106.1179668  30.2846103  90.4720402   4.7533469 103.8827610  44.1615391
   4.9039798 104.7677803  44.4936275   3.8463263 103.6892319  44.3983603
  16.3362460 106.4382076  58.5497046  15.9338145 107.0680428  57.9517126
  16.8932776 105.8979893  57.9892397  97.7999878 105.5434322  62.7827978
  98.4403324 106.0424423  62.2756815  97.1137047 105.3242016  62.1525717
  21.2585579  10.0240474  80.3154564  21.7896973  10.7365661  79.9598742
  20.5456673  10.4645496  80.7780266  56.6488743 102.5456333  61.7741919
  57.1487188 101.7299652  61.7414474  55.7334471 102.2660351  61.7664289
  31.4209210  25.9237723  74.9686337  31.1799942  26.6526561  74.3968773
  31.8349778  26.3393836  75.7249784   0.2304732  46.5508132  41.5740395
   0.7811247  46.6239123  42.3535681  -0.5374301  47.0868354  41.7721081
  24.3313157  17.3139339  56.8185568  24.6182572  16.4303928  56.5877819
  25.1231228  17.7473979  57.1369743 116.0861874 101.9213772  72.0199776
 116.7222881 102.2671223  71.3938189 116.6188145 101.5745926  72.7357149
  67.3824423  32.4394757   7.7101204  67.1510905  32.9556233   8.4823296
  67.2070425  33.0221421   6.9712326   9.4176804  49.3603377  38.5482192
   9.2939888  48.5300689  38.0882525   9.1263424  49.1842513  39.4428420
  31.3007866  25.6029182  83.7541294  32.1350132  25.9266811  83.4143353
  31.5366875  24.8383670  84.2795277 115.4300117  98.9347076  87.3787785
 115.9399223  98.1336021  87.2585583 114.6508408  98.6530113  87.8581142
  75.5793142 106.4032936  81.9937515  76.3915682 106.6231346  82.4499798
  75.1179218 105.8182240  82.5946236 111.3535595 110.8048916  83.9118862
 112.2816658 110.8843040  84.1321945 111.0818863 111.6965866  83.6943436
  83.1737631  48.9441163   5.2294323  83.1468123  48.0057866   5.0422546
  83.2323473  49.3584878   4.3685696  49.9774950  79.6947820  11.7803928
  50.7663267  80.1105077  12.1284458  49.9371069  78.8479287  12.2247383
  86.7479992  85.4818821  34.4899511  86.9835281  86.3454628  34.8290324
  86.4983654  85.6418419  33.5798264  47.5527876  50.3332097   8.0430958
  46.6210001  50.5302483   7.9472706  47.9109591  51.0894830   8.5078499
  26.6640126  12.0238834  77.5072861  27.1359669  11.5117602  76.8506193
  25.9211480  12.3961978  77.0321465  83.7461758  94.6684837  63.5931969
  84.2682076  94.4468498  64.3642998  82.8567123  94.3971443  63.8200521
  70.5809420  68.3996255   5.9947178  70.5753535  68.0412919   5.1071331
  69.6614092  68.3952576   6.2605640 114.5468044 104.9373627  47.9320955
 115.1140308 105.2517319  48.6361265 113.9027977 105.6355190  47.8135777
   8.3445202  11.8012004  79.2476273   8.7766205  11.0372119  78.8657379
   7.6568161  11.4345317  79.8033810  38.1850308  51.7924840  11.8188736
  37.7142256  52.6257283  11.8355724  37.4968165  51.1278779  11.8488285
  90.0065214   9.3408446  42.5311279  89.5885784   8.8819652  41.8024397
  90.8457691   8.8948970  42.6452255  62.8822249  69.1700703   2.0445129
  63.3054846  69.2387540   2.9002926  62.2126692  68.4961564   2.1618626
  56.6155070  69.5526940  32.1967480  56.3362997  69.4534928  33.1069347
  56.9261759  68.6829049  31.9453690   2.9963736  81.4461327  83.1696892
   2.0722441  81.6698742  83.0593777   3.0285983  80.9611511  83.9943027
 103.9969635  96.8059063  41.8608046 103.4934425  97.4833107  42.3122787
 104.9063301  96.9830132  42.1014738  54.3717211  42.6579911   2.1047947
  55.0837725  42.3522527   1.5428898  54.2191332  43.5614640   1.8278477
  90.9756565 100.7532024  84.1679287  90.5396271 101.0962963  83.3879375
  90.4838371  99.9623108  84.3889141  34.2237317  17.2309928  91.2213421
  33.9972817  17.4232345  92.1312809  34.2770897  16.2759929  91.1844349
  53.8467711  69.7226960  11.3036129  54.3585699  68.9727074  11.0006401
  53.6578959  69.5286137  12.2217056   3.4138922  89.9881935  81.6957855
   3.6844497  90.4797840  80.9203053   3.3051829  90.6535530  82.3752785
 107.9785139  23.1261878  76.0271025 107.4684793  22.3712497  76.3206244
 107.4727375  23.4888034  75.2998257  63.6793709  78.4411383  50.9487247
  64.0363216  79.3231630  50.8445644  62.8993845  78.5608482  51.4905071
  78.3006811  99.3480396  48.2476759  78.6982012  98.5387325  47.9263878
  79.0299463  99.9649429  48.3095980  93.6296922   4.5783572  73.9694691
  94.2266733   4.8378043  73.2676697  94.1911537   4.1492419  74.6151114
 109.3536604 100.7606954  85.9194851 108.8753308 101.4335627  85.4350376
 108.9082325 100.7123215  86.7653465  17.4436873 101.2778695  44.6612930
  17.5897282 100.7945330  45.4744911  17.9902285 100.8304436  44.0152788
 113.2901610  92.6695080  42.8323412 113.2001985  93.0879063  43.6885405
 112.4241031  92.3037763  42.6522970  20.0058907 101.9283898  57.5197363
  20.6753224 101.4603896  58.0188036  20.2155274 101.7421622  56.6045284
 108.2687629  99.3839247  92.9966164 108.5453833  98.8011343  92.2894573
 108.2305325 100.2504380  92.5917339  36.6959357  26.6869974  15.8441436
  36.8654537  26.3863516  16.7369521  36.1692333  27.4786782  15.9539545
  89.5915092 105.7023324   6.1066163  89.9745000 106.3419218   5.5062205
  90.0973905 104.9031122   5.9597737  49.5707178  32.7601242  62.3203564
  49.5054054  33.5424256  62.8680563  50.1412344  32.1699643  62.8127480
  84.4840563 107.0990942  41.9443846  84.9372227 107.1322794  42.7868652
  84.3312640 108.0165769  41.7183065  83.9340759  81.6660995  16.2914979
  83.6625586  80.7545562  16.3991868  84.7589714  81.6148562  15.8086383
  30.2048612   3.8988447  65.8296728  30.1287079   4.3941492  66.6452169
  30.5224323   4.5368895  65.1907063  64.4839430   5.9899628  20.3214169
  63.6614847   6.4551950  20.4742193  64.2164373   5.1014715  20.0863504
  10.5684924   2.0159520  61.8693352  10.5428433   2.6238561  61.1303997
  10.0883234   2.4645741  62.5653267  42.6464128  11.6460240  59.9070835
  42.0393038  12.3522770  60.1281261  43.4810734  11.9198990  60.2872992
  97.2457112  98.7200220  50.9397268  97.0523335  98.0576022  50.2763748
  97.2530282  98.2366593  51.7658854  29.7239995  14.7337770  52.3307228
  29.8315907  14.6167767  53.2746363  30.4755235  14.2825377  51.9462442
 108.1993521  84.8242898  76.3820648 107.5991119  85.5692882  76.3517284
 108.6492742  84.9132652  77.2222328  29.8744702  37.8992438  88.0949497
  30.4645753  37.1888471  88.3466339  30.2260637  38.6711693  88.5385132
  10.9833562   4.3411210  54.5345592  10.7982290   5.2007109  54.9128008
  11.7969573   4.4647512  54.0456867  75.1832418  92.7463288  22.8711128
  74.5275886  93.1443186  23.4437871  74.9413467  93.0370457  21.9917941
  89.4109632  68.9509435  43.2233334  88.9685739  68.5928817  43.9929533
  90.1832033  68.3965535  43.1114101  20.7739990 102.8439213  23.6504841
  20.2497357 102.5473846  22.9065418  21.0896033 103.7095947  23.3911848
  28.4467602   5.2658439  42.2809696  28.7864161   4.9636945  43.1233311
  28.6577821   6.1992240  42.2585154  29.8419309   4.4440150  75.8272743
  29.8547745   5.3863627  75.6597996  29.6616530   4.3697342  76.7644024
 104.3603958  86.6509814  85.1795006 103.5130466  86.2507362  84.9844742
 104.1457332  87.4233742  85.7025337 114.3573607  95.2934749  69.2209482
 113.5283149  95.2959175  68.7425041 114.7699798  94.4638021  68.9809036
  92.3311342  88.1074066  48.5298824  93.2318569  88.1665106  48.8483715
  91.9103778  87.4789591  49.1166115   4.2143648  87.7710290  36.7723036
   4.8562973  87.4271579  37.3935199   3.3672589  87.5134129  37.1360040
   9.3496734   7.6224184  51.1862040   8.6657619   8.2088131  50.8627272
   9.8428887   8.1522006  51.8125439  -0.0764257  92.9086227  69.4385386
   0.6712597  93.1110890  68.8762140  -0.0401289  91.9589324  69.5525646
  44.6908283   4.5807731  57.6673937  44.9296570   5.4023337  58.0966139
  45.3584051   3.9577106  57.9543972  81.0227028 105.7809855  53.2114935
  81.2057280 106.7177794  53.1397247  80.7022239 105.5324442  52.3444557
  18.0035084 106.3859482  60.9564447  18.7251871 105.8456613  60.6347322
  17.4412125 106.5141089  60.1924849 112.4257554  94.6008737  79.9715281
 112.9962958  95.2989454  79.6499491 111.7651976  95.0537987  80.4956913
  14.7648114 107.2608421  47.1495867  15.6225699 107.6128853  46.9117832
  14.5524233 107.6877455  47.9795694   9.5383388   5.2999532  57.7199602
   9.0306181   5.3165334  56.9086790  10.4260898   5.5370855  57.4518204
  18.7382603   8.7936199  33.3242178  17.8178930   8.9706290  33.5186958
  18.7503099   8.5881501  32.3894072  81.1012989 106.8382354  57.4600220
  82.0560045 106.8245990  57.3923254  80.8257660 107.5014875  56.8272400
   5.8569473  14.5307958  41.0771561   5.8032715  14.0706158  41.9147635
   5.2637082  15.2756417  41.1746502  15.9155273  28.2668471  55.3630352
  15.6593597  28.2690525  54.4407511  15.5383086  29.0716553  55.7183123
  32.6850820  21.3279796  64.6875572  32.5638676  22.1237159  64.1695356
  31.9822311  20.7454181  64.3997097  45.3175020  11.2372172  18.2654440
  44.6246243  10.5861199  18.3760118  46.1212254  10.7221138  18.1952381
  43.0982828   0.9819492  47.4351263  43.7024879   1.5481639  46.9549513
  43.6065817   0.1925109  47.6212788  22.8773594   0.9070677  77.3920107
  23.7735248   0.5877993  77.4977779  22.8488326   1.2490514  76.4984417
  10.5903357  69.5102162  56.5015697  10.3135460  68.6393351  56.7865086
  11.3318032  69.3470759  55.9186077  11.7274063  86.2310619  46.1844540
  10.9036368  86.2636466  46.6708422  12.3982399  86.1138315  46.8571138
 108.3680142  71.4340205  32.6718545 107.8783906  71.2010188  31.8830514
 109.1659463  71.8492479  32.3445559  81.0123522  89.3927886   4.0432522
  80.7288915  88.5798480   3.6249039  81.8388445  89.6088340   3.6114380
 118.0872143  76.0718770  10.4215813 117.3832882  76.7185326  10.4721725
 118.8695873  76.5848441  10.2191210  19.1007870 104.1600461  46.7309189
  19.6230238 103.6241270  46.1340189  18.4573954 104.5891226  46.1668491
  55.9159297  58.2740178  88.9624539  56.3116795  58.7384539  88.2249495
  56.3569481  57.4245613  88.9750311   4.3064326  87.7802200  40.2076483
   4.2356365  88.2320256  41.0485363   4.6276539  88.4489174  39.6027613
   7.7891606 107.6807056  70.4422903   8.6709803 107.7825625  70.0841713
   7.5188225 108.5703010  70.6698179  -0.1014573 100.4268296  38.5128403
   0.7516402 100.1413543  38.8398933   0.0519722 101.3130112  38.1851602
  16.6671705   2.7729756  22.2928214  15.7223141   2.9205731  22.3339725
  17.0457172   3.5088846  22.7738333  31.8119311  35.3921008  69.3277597
  31.8098760  36.3222408  69.1017723  31.0830784  35.0228548  68.8291025
  94.8404909 102.8930921  76.8815613  95.7866598 102.8425933  76.7457390
  94.7080446 103.7240077  77.3379230 109.6878756  93.9866347  60.4985380
 109.7081984  94.9425657  60.5434132 109.2113985  93.7200267  61.2847471
  57.1766186  14.9902940  65.9639692  57.9300785  15.1574910  65.3977728
  56.4907217  15.5662191  65.6262064  31.3171148  20.4879236  55.1230526
  31.2802863  19.6640897  54.6370745  31.7487097  21.0990930  54.5260382
  19.7166222 101.9346918  51.5277910  19.1988390 101.7028422  52.2987556
  20.5508583 102.2415013  51.8829679  29.9603748  11.1767328  19.6312237
  29.7817755  11.4055228  18.7190890  29.1614962  11.4187253  20.0996923
  18.0193722  30.0855732  45.9024000  18.3526504  29.2985916  46.3334656
  18.8023746  30.5318928  45.5800056 115.1527894 104.5722587  60.5622482
 115.0209082 104.2234750  61.4438343 115.7425560 103.9459069  60.1426172
  86.9081576  92.9390366  42.0469713  87.1968485  92.6157136  42.9004049
  86.8175841  93.8843388  42.1671009  23.8819075   7.7288455  73.1811523
  24.5636272   8.2951057  72.8194380  24.1447353   7.5886321  74.0908146
  36.0369134   7.7887189  57.3702097  35.2930355   7.2660297  57.6696634
  36.7123675   7.6459020  58.0332327  18.3330750   7.1216512  74.1254282
  18.9319134   6.6984951  74.7407055  18.5854673   6.7758173  73.2693148
  27.8903985  26.5811658  75.8921003  28.5632229  26.6520333  76.5692377
  28.0587196  25.7363749  75.4746914   4.5449084  99.1185315  67.4390602
   4.2957705  98.1967301  67.5057411   5.1859635  99.2445857  68.1386232
 110.3662671 110.8489337  41.6017437 110.7304467 111.6388510  42.0012856
 110.9851230 110.1563330  41.8331575 109.6040071 107.9740791  67.6408672
 109.6330632 108.7646301  68.1797695 110.3594650 108.0533485  67.0584297
 116.7432178 100.3817613  57.0071602 117.1832241 100.6259329  56.1929083
 116.3501252  99.5291681  56.8206310  43.0087423  18.4281600  43.4351444
  43.1837225  18.1344903  42.5410700  43.7237358  19.0330946  43.6328030
  39.0999794   3.1449464  65.9596491  38.5621548   3.6796233  65.3756142
  39.6840572   3.7710527  66.3875198  43.0346680  13.2191074  53.6315203
  42.8007603  12.5384521  53.0004644  42.1945477  13.5577500  53.9409590
  40.6525898  34.6041369  41.6596746  40.1922226  35.0817180  40.9695959
  41.4472628  35.1146102  41.8150330 105.0595559 100.3269417  41.2735939
 104.5840348 100.3700395  40.4439831 105.9808410 100.4052896  41.0259485
  84.1081388 107.6415871  81.9133282  83.7825296 106.8429811  81.4980698
  83.3860160 107.9338897  82.4695015  41.6852283  10.6994224  62.9641342
  42.4377584  11.1468863  62.5772095  41.8190098  10.7787788  63.9086151
  76.1527139  65.3572364   2.6091358  76.1072904  64.4312336   2.8472206
  76.5874011  65.7746960   3.3527824  18.4401863 103.9288176  19.5230007
  18.5534304 103.1584735  20.0797558  17.5940436 104.2915107  19.7851610
   5.4440897 110.3301385  47.3021746   4.9408787 110.1345911  48.0925989
   6.3576668 110.2245286  47.5676107 102.6296009  90.5239792  58.2139540
 101.7871154  90.0883407  58.0848598 102.8592170  90.3364820  59.1240931
  22.9288054  10.3821123  38.0896497  23.0121970   9.7048974  37.4183416
  22.5125408   9.9374372  38.8280392  97.6140083  97.8964324  66.5268707
  97.7754463  97.2264237  67.1911430  96.6901613  97.7908285  66.2997437
   2.0525645   1.3134064  53.5684586   2.7183422   0.6266247  53.6045504
   1.2535657   0.8890972  53.8811779  12.9285115 108.7002082  69.8671198
  12.8925913 108.6378558  68.9126301  12.7217072 109.6156625  70.0552893
  18.7603426  21.1467600  51.0153532  19.6797979  21.4113522  50.9866476
  18.3286524  21.8352771  51.5211391  79.0382961  81.4693255  22.4097562
  78.7038197  82.1724219  21.8529701  79.6287438  81.9087596  23.0217218
  34.3605542  18.8741696  31.9465446  33.9670610  18.5801077  31.1250067
  34.9676037  19.5671713  31.6867948  29.3669868  28.1004834  70.7054472
  28.5930347  28.5244060  71.0762835  30.1044750  28.6018705  71.0532284
   7.6029998  28.0605030  44.5994997   6.9291717  28.4777403  44.0627480
   7.4075383  28.3442187  45.4925489 104.2298997  97.3872812  50.1300049
 104.2881263  97.7469880  51.0151339 104.1804875  96.4401216  50.2591610
   2.3501271 103.2201232  82.4061203   2.1943110 103.6269517  83.2584381
   1.5102547 102.8249962  82.1721935  68.9859457  93.9560337  62.6492071
  68.1950391  93.4417076  62.8109694  69.3053658  94.1850920  63.5219812
  19.6586561   7.3651868  59.2043447  20.3146386   6.6733861  59.1187239
  19.6771944   7.8184813  58.3614874  23.7844229  11.9096291  85.3431892
  23.5147190  12.8192627  85.2164745  23.1320238  11.5476966  85.9428692
  15.0014847 106.6626550  54.2227793  14.5409506 107.3360990  53.7221670
  15.8704060 107.0325385  54.3789625  62.7275944   8.5428751  35.9132600
  62.1875191   8.6463910  36.6967344  62.4032307   9.2104775  35.3088379
  10.8126896 111.2816362  71.3988161   9.9340409 110.9087166  71.4705276
  10.9795016 111.6686445  72.2582483  49.4227409   2.0490685  34.8255873
  49.3460178   3.0028528  34.8002839  49.8421335   1.8204299  33.9960885
  31.9496202   6.8331301  65.2727938  32.5174332   7.3951066  64.7455311
  31.1375880   6.7734647  64.7695303 108.5930050 103.6804516  65.9813690
 107.8700078 103.3604295  65.4418373 109.3392886 103.7192662  65.3832150
 111.1697615  80.5257077  72.2395611 111.1942328  81.2713642  71.6398716
 110.2539910  80.4673643  72.5119448  43.3539104  27.0887113  78.0384636
  44.2503595  26.8397880  78.2635307  42.8134012  26.3815141  78.3905363
  19.6708858  19.0053701  62.4079895  19.0852320  19.7603202  62.3506069
  20.5271482  19.3462932  62.1494961  44.9389267  33.8160467  55.7143211
  45.5342293  33.7225795  54.9706125  44.0751410  33.6099291  55.3570747
  71.9656510 102.1859200  33.7819743  71.4492930 101.5730418  33.2585359
  71.4036305 102.3967023  34.5275855  32.9079413  22.1573234  89.5146656
  32.8642964  22.7070785  88.7322998  32.1956515  21.5273976  89.4047928
  91.9914807 102.6814545  53.2617235  91.8729521 102.4526818  54.1835928
  91.1948408 102.3687346  52.8329992  46.5254784  17.5859964  50.6397104
  47.4465799  17.7623820  50.4481602  46.5265703  17.2565114  51.5384150
  99.5462550 108.2999833  81.5871048  98.9605130 108.1799011  80.8396339
 100.2653993 108.8310240  81.2449646 113.6969484 102.3711325  76.3366032
 113.8822378 102.1077920  75.4351902 113.5752023 103.3193589  76.2888956
  40.8410358   3.5355929  23.1598425  40.5078077   4.1966814  22.5530887
  40.4938889   2.7080894  22.8267407 109.4854916 105.2211411  85.6446552
 109.8846878 104.5924891  85.0432587 108.5491432 105.1764668  85.4510307
 112.6942838  82.3340983  30.6568050 113.0059160  82.5394220  29.7753525
 111.8063200  82.6903314  30.6859493  57.2821236   4.0529653  60.2236986
  57.2141647   4.6208838  59.4561815  56.7514515   3.2875150  60.0030041
  77.0293760  11.1454606  43.5648489  77.8234911  11.6623569  43.7006187
  76.4461184  11.4112592  44.2757607 108.5990776  98.4597356  58.0652905
 107.7314247  98.6707110  57.7204752 109.2055930  98.7639649  57.3901510
  77.9397488  15.3044569  57.5380659  77.7678776  15.8806694  58.2828236
  77.7789259  14.4230819  57.8750277  55.6546068  12.8186834  48.6828947
  56.4166164  12.5106299  49.1734791  56.0134888  13.1234503  47.8494978
   7.1280592  99.4364400  24.7376800   6.8585461  99.8276718  25.5686617
   7.0011347 100.1324482  24.0929365  13.9004772  96.4127834  83.5568237
  14.7974318  96.1899407  83.8059139  13.9605063  96.6483397  82.6310062
  32.3461693  89.2667646  76.7366934  31.9398468  90.1304455  76.8087149
  33.2670944  89.4167585  76.9503069 117.7770937  98.9320619  59.3479252
 118.2920230  98.2260592  58.9572382 117.5575889  99.5037897  58.6122799
 100.8208526  87.9600997  80.8013535 100.1774610  88.6153836  81.0713100
 100.6533993  87.2104926  81.3725567 107.5274004  86.6895242  56.2241411
 106.9756545  87.1821208  56.8317223 108.2992924  87.2417993  56.1000061
  70.8710296 109.4031185  50.0532484  71.4033170 109.9452522  49.4710159
  71.4810611 109.1066731  50.7286835  84.1721439  32.2059464  43.0592537
  84.3078041  32.3560381  42.1236801  84.0583134  33.0817771  43.4283018
  68.0775309   5.2667469  37.8408575  68.8057995   4.8229802  38.2755113
  67.3615026   4.6319625  37.8650260  22.3189759   7.5591058  39.7164989
  22.5446820   7.6442385  38.7901926  21.8795300   6.7110407  39.7789788
 105.6853236  76.9364519  59.6868181 105.8505214  77.8110165  60.0390625
 104.7402228  76.9132132  59.5368958  11.3782948 103.8126607  56.9178200
  11.9385212 103.4173072  56.2499332  11.9262236 104.4850410  57.3226786
  62.1035005  93.2689495  28.4158540  61.3868977  93.8780959  28.5937691
  62.3103977  93.4059925  27.4913859 101.5731348 107.5827239  56.6021299
 101.4128412 108.5228292  56.6842222 101.7184032 107.4453686  55.6660414
  45.2694607  30.3968620  43.2033253  44.4547510  30.4584241  43.7020206
  45.8444929  29.8606157  43.7492275  75.1000244 108.5786288  96.1095087
  74.9645979 109.5183414  96.2313188  75.4869086 108.2835668  96.9338195
  38.6236763   6.6315758  41.1193037  38.9923763   5.7680470  40.9332657
  38.9942789   7.2006339  40.4447222  25.1379317 109.5821286  10.6953287
  25.7890099 109.7304020  11.3811457  24.3584936 109.2854967  11.1651313
  63.6011028   4.6944246  37.9678869  63.4937048   3.7456238  37.9009986
  64.0641737   4.9401012  37.1669865  35.2175283   5.9834766  42.0004129
  35.8170652   6.7141306  42.1518517  34.6014452   6.0236156  42.7318954
  79.6824408  18.0346859  41.2440586  80.0167847  18.9315760  41.2502241
  80.3335094  17.5397849  40.7466459  44.3672752  14.2501986  18.6883485
  44.6340561  14.2147112  17.7697623  44.5439243  13.3710492  19.0231955
  55.6450748   2.4266484  94.4413185  54.9943972   2.3877120  93.7403679
  55.1427269   2.6609409  95.2216911   4.1258019 108.9330057  76.3358355
   5.0405234 109.1402278  76.1445713   3.6242026 109.5611323  75.8161354
  38.3479452  15.5469894  39.9815679  38.3246756  16.3268113  39.4269776
  38.9209700  14.9384177  39.5151854  61.8091059   7.4600577  17.9247642
  61.8684912   8.3998042  17.7527702  61.8405724   7.3887157  18.8787842
  42.7635193  54.1067457  95.2445030  43.4767866  54.6330118  95.6057835
  42.5185251  53.5148716  95.9557629  15.6100988  32.6616693  74.7696686
  16.3412821  33.0178404  75.2743864  14.8971856  33.2852030  74.9082041
  40.8303976  25.4677057  46.5392399  41.3321829  24.8757172  47.0995903
  39.9666333  25.5111003  46.9494343  42.7665424  38.6589074  42.2950506
  42.1300650  38.8857555  42.9730368  42.4807692  37.8032970  41.9749022
  63.2743168  12.6015806  43.7246704  62.8045082  13.2651043  44.2298937
  62.5953102  11.9866741  43.4470510  70.7185680  82.1255566   9.3525860
  70.4076821  81.9634964   8.4619019  71.6545707  82.2986747   9.2517826
  16.6438758  21.7983961  53.6577272  16.8836892  22.7223253  53.5864735
  17.4810576  21.3359427  53.6963797  39.5092297  46.8798113  48.7088394
  39.9785805  47.5699282  48.2401371  40.0570631  46.1022377  48.6016703
  33.3683252   2.7319425  51.9632292  32.9121089   3.3132973  52.5716114
  34.1390896   2.4357545  52.4474049  21.6177243 107.7134771  64.1210604
  20.7526463 108.0798502  63.9376354  21.5992802 107.5126384  65.0567722
  51.1692190  47.4030495  39.1279173  51.4818859  47.6153803  40.0073433
  51.6203547  46.5892553  38.9033151  88.1493694  90.4020931   4.4191906
  88.4756262  90.9560253   5.1283714  88.5952980  89.5645072   4.5449898
 110.3756620  10.3157747  82.9959583 111.1175986  10.7347691  82.5598335
 109.6158279  10.8299363  82.7229691  54.4256496  16.5212619  74.7071886
  53.4749222  16.4931095  74.8146963  54.7258759  15.6624711  75.0047970
  72.3817856  69.6935691   2.9665920  73.2208807  69.2390575   2.8919575
  71.8474395  69.3272151   2.2619698 115.1987685  98.2927854  56.2668180
 114.4495905  97.9726882  56.7693090 114.8823608  98.3327813  55.3643084
  27.5225949  23.8184381  71.6114187  28.1645107  23.2414150  72.0252037
  28.0487919  24.4439745  71.1133671  67.2297192   1.4565989  82.4237728
  67.9804134   2.0487210  82.4693584  67.3209333   1.0189303  81.5773869
  20.1629465  97.1268256  54.3721819  20.4152649  98.0462844  54.4568062
  19.5640820  96.9745393  55.1032066  32.7259892  79.4682164  18.7516248
  32.8473490  78.9436693  17.9601991  33.1659573  78.9689655  19.4396710
  16.2336462 106.6484837  31.0791326  15.2793282 106.7127721  31.1162734
  16.4972990 107.3440851  30.4767537  59.1211796   8.8471919  42.1950006
  59.1155529   8.3625305  43.0204153  58.7423706   8.2407868  41.5585995
  62.2513819  30.3007627  60.8493519  63.1900692  30.1134491  60.8535957
  61.8419456  29.4675994  60.6160545  29.6929979  21.0618711  71.7178726
  29.0837550  20.4660773  71.2818909  29.9542880  20.5975604  72.5130939
  56.4556170  20.6255221  64.4329071  56.9126368  21.4624548  64.3497849
  57.1551371  19.9730778  64.4678164  61.4072275   7.2860700  50.1601601
  61.8856096   6.4698637  50.3057194  60.4906225   7.0180947  50.0949287
  48.3390045  10.1124680  66.1774921  48.4556341  10.3181994  65.2499676
  49.2078209   9.8411089  66.4737272  25.3439587  86.7857094  47.8213644
  25.0115412  87.0815487  46.9738913  24.6065920  86.3232441  48.2196760
  93.3079147  31.0005975  52.3253441  92.6851463  30.2769732  52.3943520
  93.1954288  31.3291621  51.4333677  12.5080603  98.7500210  54.8326206
  12.7034825  97.8784222  55.1766539  11.7277020  99.0275009  55.3124952
  36.7386532  11.8452621  81.6626835  36.4993882  12.4304152  82.3814106
  37.6271582  11.5581250  81.8732548  22.9487484  96.6269202  92.6888180
  23.5659331  96.5313740  91.9634342  23.4662789  97.0156522  93.3940029
  83.9058685  14.1551793  47.1516705  83.8435650  13.7884033  46.2697268
  83.2148266  13.7126350  47.6444721   9.2700553  26.4052582  38.8223958
   8.3926183  26.1161733  39.0729284   9.6146619  26.8321371  39.6067762
  44.2861080  11.7857111  62.1174335  44.6283293  11.0258567  62.5883245
  45.0607061  12.3095429  61.9129086  61.8858910   6.7869025  59.5039463
  62.5941038   6.6042507  58.8864470  62.3162222   6.8225914  60.3582144
  25.6494379   7.1725988  80.0243855  25.7403755   6.3340604  80.4769516
  24.7053695   7.2821808  79.9105453  24.2164629 105.7403589  77.6858807
  24.2528456 104.9085463  77.2136593  24.5830649 106.3791121  77.0744658
  50.0942850  12.5684988  67.0248842  50.3593111  12.7958190  66.1336374
  49.1585875  12.3790431  66.9555521  38.8020802   2.0600599  87.1683788
  39.1292048   2.9415920  86.9891548  38.0093384   2.1994866  87.6864052
  31.7257261  46.0317516  73.9325666  30.8475566  46.3159466  73.6790276
  31.8866682  45.2504158  73.4035587  29.2245364  26.1788058  92.5220490
  29.3300223  26.7556071  93.2786179  29.2911220  25.2949953  92.8835392
  50.4384899  15.7265162  50.4157448  51.3599157  15.8846605  50.6211615
  50.4571342  15.0591195  49.7298431  91.0951978  89.0595438   3.9401409
  91.5449125  89.6987058   4.4928333  90.5528242  88.5569050   4.5479462
  27.0299792  29.3765736  68.8592291  27.5814986  28.9762425  69.5313883
  26.2322807  29.6300316  69.3236351 107.5585021  87.8940768  37.7793169
 108.0606664  88.6117000  38.1654239 106.6831649  87.9844947  38.1559372
  59.2347050  41.7116499  31.5060186  59.1459799  40.8207893  31.8447256
  58.3646679  41.9281912  31.1707854  11.3871682  42.8546238  44.7610426
  11.7153764  42.0323753  44.3971491  11.9563079  43.5266352  44.3859243
  49.9675226  50.9833527  68.8369513  50.4986429  50.2617025  68.5002613
  49.0668392  50.7356024  68.6280870  54.6854973   7.5002718  73.7460804
  55.5600214   7.6656693  74.0983248  54.1081715   7.5432837  74.5083666
  29.7768307  37.1963906  23.2341218  30.1840210  37.8217959  22.6347089
  30.2984285  36.3994002  23.1393766  30.7655787  17.0518136  50.8976841
  30.2047157  16.3471138  51.2218189  30.2000380  17.8240490  50.8907223
   6.1868829  37.1044970  64.9831963   5.5564201  36.6481018  64.4260168
   6.8670613  37.4037957  64.3798637   2.8037613  99.5651145  27.7763653
   3.6992758  99.2376561  27.8603745   2.5819653  99.8831994  28.6514997
  70.4859859  47.7540340   2.8710434  70.5095250  47.0228095   2.2538063
  69.7207386  48.2652010   2.6077339  38.9522243  18.0532455  20.5156803
  39.0542316  18.9176095  20.1173067  38.0508780  18.0427945  20.8376980
  16.8484991  99.5065362  88.5143375  17.3027724  98.7442870  88.1553936
  15.9380024  99.3931026  88.2416344  18.7829649  36.1496687  69.8170519
  18.2190561  36.8076611  69.4105053  18.5449111  35.3297877  69.3842030
  57.5152445   6.9067407  68.6531496  57.1635580   6.3916522  67.9270411
  57.9598045   6.2659609  69.2081261  45.2612019  23.3830905  20.4992247
  45.8988428  23.6298132  19.8293173  44.4515753  23.2265782  20.0131798
  31.8838906   9.1682959  35.9755778  32.2928834  10.0095904  36.1785054
  32.4412680   8.5207289  36.4071059  34.4094491  41.5599203  60.7776022
  33.4877896  41.3717270  60.9546947  34.8215556  41.5727615  61.6414547
  68.5665447  80.7020237   7.6150772  68.3695823  79.8300578   7.2728607
  68.7337238  81.2328388   6.8362877  70.1281643   4.3016300  39.5348835
  69.7629404   4.5689461  40.3783226  71.0755777   4.3748400  39.6501136
  53.9848948   2.5506100  88.3013439  54.0746260   2.6872951  87.3582077
  54.2471027   1.6401359  88.4374142   9.4483006   9.7385406  24.3418813
   8.6086112   9.7877705  23.8850117   9.4976443   8.8355935  24.6557021
  48.8664055  42.1992445  56.3992500  48.5503054  41.5652943  55.7554960
  49.6178150  41.7703772  56.8087482  33.0378216 104.7058172  37.5534439
  33.3616370 103.9525939  37.0594525  33.3727043 104.5725937  38.4402013
  41.7236614  55.8841276  65.3349257  41.6906834  56.5578032  66.0141182
  42.1348619  55.1328945  65.7624722  16.9198817 107.3454548  41.7393827
  16.1764973 106.7550264  41.6168690  17.3604267 107.0164980  42.5229263
  38.4826732   1.7735510  48.1653261  38.8317847   0.9399807  47.8498650
  37.6044178   1.8235691  47.7879667  19.7845018  26.3780069  41.0281992
  20.4830956  27.0103836  41.1964178  19.9665332  25.6547642  41.6282082
  94.2053224 110.7218262  72.7419949  93.8979853 109.8573976  72.4689770
  93.9258374 111.3084066  72.0391130 112.1445669 108.8906024  42.0873022
 112.7215303 108.1713007  42.3441076 112.7340759 109.5544265  41.7294598
  29.5359540   2.5276452  69.0182924  30.2594376   2.1742861  69.5359182
  29.1762114   1.7682901  68.5598183  40.3387356  13.0355966  55.2384806
  39.9004555  12.3081017  54.7970152  39.7598791  13.7848389  55.0977993
 114.0560997 104.5390452  53.8861609 113.6815227 105.4117651  53.7666464
 113.3885945 104.0566583  54.3739891  20.7106280   9.3303388  56.5473032
  21.4791870   9.2936349  57.1166897  21.0507274   9.1390097  55.6732607
  31.2363100  24.4108343  59.6646929  30.5871272  24.9411869  60.1267767
  30.9774518  24.4633079  58.7446547  13.6476421  31.9721985  66.8878651
  13.6928272  32.9241085  66.7981005  12.7975166  31.7366719  66.5163183
  86.8115425  29.1082740  78.9949083  87.3601341  28.3732581  79.2688227
  87.3347187  29.8847842  79.1938019 116.8793513  13.8218939  70.1809883
 117.5916798  13.9953649  69.5655775 116.1723860  13.4743536  69.6372509
  26.6248560  37.1305013  60.9397221  26.7961931  37.2157383  61.8775988
  27.1472073  37.8240800  60.5368137  74.3320877  54.8265906  14.8170731
  75.1067192  54.5464908  15.3046486  74.1122824  55.6815213  15.1872227
  24.6419781  98.3532781  47.6539946  24.6363991  99.2071218  48.0866051
  24.0739887  98.4671433  46.8919897  57.1810818  20.0250888  73.5898113
  56.4531851  20.6351566  73.7090492  57.9632664  20.5757213  73.6247492
  32.6548839  20.1308823  51.0063124  32.9647541  19.5880985  51.7312956
  32.5146127  19.5138669  50.2880907  88.4112437  94.4215710  71.5568304
  88.4682829  95.3111143  71.2079859  89.3201722  94.1693706  71.7195415
  48.1741095  47.6036787  32.6732206  47.2856188  47.8700733  32.9095411
  48.0905914  47.2501469  31.7876267  31.1117196  36.1398554  76.0635090
  30.8868718  36.9126701  76.5816116  31.7519903  35.6707907  76.5985441
  35.7658928 105.3698416  44.3836212  36.6947287 105.4342402  44.6057463
  35.3269785 105.2404500  45.2243614   2.6467245 105.8098639  65.6544733
   2.7245634 106.6973279  65.3043604   3.5455578 105.5547238  65.8624029
  36.3284755  39.7936702  93.6043167  36.1329722  39.9762988  94.5233631
  36.3072252  40.6513739  93.1799030  82.5158405  23.4090519  53.8530445
  82.5714970  23.8055348  54.7224903  82.8163052  22.5092101  53.9804697
  23.4694409  35.7164025  66.8625116  24.1189408  35.1740384  67.3099804
  23.2715487  35.2379203  66.0574484  59.5320940  15.2276278  71.0191441
  58.8626385  15.5876446  70.4373789  59.1127968  15.2009451  71.8792105
   0.9184045  41.7899323  46.8670940   1.6226852  42.1493292  47.4065876
   0.4732398  42.5588799  46.5110302  22.0275950  15.1986182  54.7911310
  22.3236203  16.0578716  54.4906569  21.0754585  15.2794230  54.8471642
  48.5071182  60.2850771  40.1657391  48.4311867  60.0418186  41.0883904
  49.1121054  59.6412706  39.7973084  42.8723669  31.2328124  48.2584047
  43.3649731  31.4271784  47.4610424  42.3951530  32.0406175  48.4480190
  46.4675379  25.4831910  67.8975868  45.8333540  25.8293605  68.5254478
  46.3027811  25.9765267  67.0940304  34.7503614  21.5294695  70.3049994
  34.1385365  21.0146618  70.8311892  35.6017947  21.3847804  70.7177448
  22.3707724  44.0200424  31.3201451  23.1168604  43.4755421  31.0689330
  22.4595404  44.8092413  30.7858062  40.4900122  12.3922098  19.6710217
  40.7312965  12.6642072  18.7855661  41.2857580  11.9947958  20.0246978
  25.5812979  23.2536149  65.2474403  24.7472501  23.6295700  65.5289602
  25.3713346  22.3476052  65.0209570  78.7525379 102.5783516  44.1863441
  79.4676154 102.7831758  43.5838985  78.3190721 103.4182097  44.3379307
 110.4475463  75.4315586  69.5414448 110.8686627  75.7095666  70.3548336
 109.5099486  75.4998107  69.7216797  41.4194584   0.4891283  95.7041359
  40.6703186   0.8319941  95.2168369  41.5849924  -0.3699114  95.3157043
  90.5855751  13.3033633  77.3147583  89.8698330  13.6404264  76.7759371
  90.1734352  13.0837107  78.1503010  33.2260578 108.7295319  58.6868477
  32.8946560 108.3572523  59.5040464  33.5388773 109.6008552  58.9300966
  37.2669435  35.2992558  43.6671352  38.0899644  34.8226357  43.7752962
  37.5053358  36.0776663  43.1636715  27.0153093  13.4323776  48.1879663
  27.6164699  13.7983239  48.8367510  26.1658144  13.8163197  48.4051752
  15.5335474  15.1341677  41.3471460  15.6857646  14.8605394  42.2516823
  15.2136624  16.0334241  41.4195490  52.7050304  32.0086026  51.6346693
  53.5458755  31.8321490  51.2126780  52.6590490  31.3754559  52.3510790
  26.3203734  97.7332468  36.3895082  25.5041474  97.9385097  35.9335756
  26.5084332  98.5156305  36.9079113   7.3985117  80.3817053  27.1361995
   6.8782728  79.8374958  27.7273154   7.0036476  81.2512274  27.2013593
  21.5158343  14.9148715  57.7720833  20.9414268  14.3288004  57.2793293
  22.2615075  15.0639999  57.1907377  58.6448860  11.9720471  49.2137766
  58.6661768  12.0454276  50.1679230  59.5400620  11.7347109  48.9717770
  63.8280821   6.4115399  53.1433249  64.0064907   6.5484530  52.2129202
  64.6917963   6.2891412  53.5373449  29.7480273   9.6934336  65.1349258
  30.5217957  10.2400160  65.2718973  29.1257453  10.2669954  64.6876860
  40.2400017   0.7136309   9.2835289  40.4906702   0.1060662   8.5876393
  40.5877399   1.5591677   9.0000218   3.2161921  98.7576241  60.1372433
   2.5217884  98.1021066  60.2030802   2.8293627  99.5537383  60.5016565
  63.6088943  20.8704472  60.1286316  62.8986788  21.3007498  60.6047201
  63.8036871  21.4627290  59.4023466  26.8554878  26.9102883  39.2017674
  27.4024773  26.7938280  38.4249330  26.2256742  26.1906171  39.1613126
   5.5691993  11.4746308  92.9848194   5.2598608  11.3926840  92.0827007
   5.5135345  10.5869818  93.3386707  53.6949682  38.5864854  77.2712612
  53.6382341  37.6349640  77.3585463  54.1340208  38.7242532  76.4319229
  14.6936870  14.0041566  38.8326859  15.1237297  14.3048215  39.6332455
  15.2531159  13.2970285  38.5113716 112.6841815  21.0172677  89.8186588
 113.0496211  20.8188152  90.6808090 111.8732031  21.4902258  90.0053596
  69.3793631  15.5658793  27.6210761  69.3162823  14.6122766  27.5672913
  69.3964863  15.8565927  26.7092514  23.9601684  38.1420827  60.8834362
  23.4522772  37.7042150  60.2003956  24.7903728  37.6662183  60.9068251
  87.7465183  47.9936154   9.7621223  88.3944589  48.1218405  10.4549191
  86.9023067  48.0630936  10.2078983  99.9662841 103.2019068  55.9479141
  99.8035849 104.1194368  56.1667728  99.1715730 102.9190220  55.4955435
  70.5784225   3.1109184  25.6436253  71.3367939   3.6659873  25.4619479
  70.2346182   2.8847513  24.7794056  53.7570858   0.2002483  68.9937639
  53.9433146  -0.0074070  69.9094200  54.5792866   0.5562595  68.6569023
 116.3919152 110.7056608  35.8932614 116.0723318 109.8437081  35.6265473
 116.9442142 110.9919683  35.1657844  61.6857433  29.3349934  79.1693926
  61.3936138  28.4609604  79.4281578  61.5489769  29.8737240  79.9486828
  48.9169979  12.2675645  72.4903631  48.9520121  12.7710938  71.6770601
  49.0961027  12.9095280  73.1774139  52.6283455  13.1281281  79.5809412
  52.4320745  13.2584560  78.6531878  53.0224466  12.2568047  79.6222830
  21.6742826   2.4082184  82.5160408  22.2798586   1.6709146  82.5927830
  21.4417624   2.4315637  81.5878010  90.4880142  17.9814959  23.8864040
  91.1577606  18.6646295  23.8547277  90.6149197  17.5609112  24.7368383
  20.1719874  90.3673739  72.5724554  19.3376511  90.7513685  72.8420162
  20.7300394  90.4392595  73.3468199  52.1368694  36.3341618  25.5482411
  52.9062700  35.8607912  25.2317405  52.4836016  36.9511533  26.1927032
  95.7760788 105.1111932  33.4400082  95.1591922 105.3966386  32.7660632
  95.3897251 105.4135914  34.2619061  97.0414335  30.7041408   7.1579048
  97.8551084  31.1775710   6.9846031  97.2758419  30.0624491   7.8283665
 101.9228233  86.3097496  66.0987329 102.8070224  85.9774728  66.2537146
 101.3652791  85.7832808  66.6716290  29.0754986  48.6900425  89.3949509
  29.3239903  47.7869940  89.5923996  28.4133410  48.6115599  88.7082100
  95.4032875 109.1100438  50.3705072  94.5120336 109.4578690  50.4007673
  95.2883519 108.1653691  50.2675009  50.1664972  21.3401651  43.0911779
  50.0418806  20.6976533  43.7896633  50.7667255  21.9858837  43.4640169
 111.9810564  56.6728316   3.7179157 112.0077497  56.7019282   4.6742985
 111.1731035  56.2013296   3.5150978  14.7111571   8.7304372  37.2849774
  14.5324183   9.5315421  36.7925215  15.6164956   8.5109729  37.0649123
  38.1789255  41.3456821  57.7879095  38.8355255  40.8983231  57.2540760
  37.9001188  40.6882906  58.4253550  50.6996155   7.5556850  70.1012516
  51.1056089   6.9854814  69.4483614  50.2791166   6.9544464  70.7160091
  28.8439584   4.3308899  45.3114319  28.3205438   3.6990505  45.8044338
  28.9253807   5.0834382  45.8973265  43.7339830   7.3576474  74.6433449
  44.5652199   7.8221184  74.5456648  43.1282902   8.0185795  74.9788094
  62.1482897  27.4885702  88.7774467  62.9018736  26.9797230  89.0764809
  61.4197302  27.1750665  89.3133068  30.3420734  24.9170470  81.0813046
  30.5513382  25.4699898  81.8340969  29.4392323  24.6375871  81.2329960
  32.1998978  13.4278047  55.0075054  31.7946792  12.6355302  54.6548986
  31.4863491  14.0646195  55.0468445  10.4048455  34.2502642  42.4336910
  10.6053877  35.1811886  42.3367596  10.9463561  33.8185382  41.7729282
  22.1724916   4.4057298  85.0176716  21.9808602   5.1506793  84.4479656
  21.4129806   3.8307875  84.9237633  61.6900843  80.3365583  82.3669815
  61.5959852  80.5745406  83.2893372  62.1627825  79.5043440  82.3813725
  15.5601656  15.2421319  93.8302040  14.9727321  15.9827673  93.9805794
  15.3736818  14.9669218  92.9325867  21.1812091  26.7350554  52.1199512
  21.8828869  27.3511457  52.3304558  21.0697913  26.2173820  52.9173422
  55.5778456   2.0555489  59.0782213  54.9901152   2.4407072  58.4282541
  55.1142406   1.2780908  59.3894529  95.8923555 106.3432110  83.5714340
  95.7657457 106.4982386  84.5074654  96.8332351 106.4547635  83.4352970
 109.3950445  86.2460114  16.3286564 108.6995680  86.4129116  15.6924984
 110.1403791  86.7534186  16.0073254  80.4217339  13.9708984  93.6151409
  81.0310459  14.2154264  94.3116856  80.3442478  13.0196059  93.6877346
  11.2201851 104.3843723  64.1937017  11.8024367 103.8413085  64.7250175
  11.2265938 105.2376808  64.6273518   5.5884254   1.2982929  54.1068840
   5.8631533   0.9276998  54.9455833   5.6386191   2.2454682  54.2356157
   8.2144230  82.8786011  88.2377529   9.0373343  83.2724185  88.5274982
   7.7462643  83.5928221  87.8053761  31.1318469  14.0757251  69.5091724
  30.8192110  13.3976960  68.9101982  32.0830941  13.9693487  69.5158386
  33.4117341   8.9628273  47.8522062  32.6359057   8.6418837  47.3925114
  34.1238451   8.8599879  47.2208977 101.3061489 108.9104585  76.2323141
 102.1647037 109.3304662  76.1802387 101.0307826 108.8144590  75.3206205
  31.7317128   4.0156323  63.2755613  32.4184227   4.4971004  62.8142071
  31.0079241   4.6381772  63.3448458  94.0607548   4.7128254  22.3357487
  93.5128689   4.1102529  21.8328023  94.1286945   5.4920495  21.7840004
   3.0479449  82.9875202  42.4252319   3.2658261  83.5258002  41.6643000
   2.4248999  82.3420210  42.0915031   4.3801373 104.0319420  32.8240681
   4.5484417 104.9649407  32.9560494   4.4852131 103.9005585  31.8817687
  56.5150976  14.5194507  37.1550989  57.2598410  14.7032404  36.5825486
  56.8313217  13.8377833  37.7480292 111.4556302  83.5138173  55.6700659
 111.8176616  84.0351481  56.3865709 111.8205608  82.6388521  55.8023310
  28.3312720  99.2567141  76.4936733  29.1010683  98.9012999  76.9378901
  28.3491200 100.1922912  76.6951895  73.2034922  21.4420485  78.5555267
  73.9453840  20.8506322  78.4288406  73.2009888  21.6253066  79.4950199
  61.1942577  13.9961398  73.9789343  60.9308147  14.3404245  73.1255341
  61.9830656  13.4850287  73.7978792 111.1685432 103.1786401  48.8539553
 111.4542593 102.6700724  49.6128750 111.8420757 103.0206431  48.1924248
   8.9260453  95.8533342  66.6700220   9.3627566  96.5722568  67.1268177
   8.0298489  96.1626382  66.5381289  35.1768589  32.5288916  38.0213022
  34.7780824  32.6760697  38.8789439  34.9429274  33.3048844  37.5120473
  96.0500689  16.9345820  67.7399111  95.1270695  17.1113276  67.9217577
  96.1693592  17.1989369  66.8277073 100.3734053  57.8915210  80.5797672
 100.7233561  57.8453822  79.6900272 101.0672558  58.3109279  81.0885906
  46.4335918  10.3164864  57.7570486  45.8416414  10.9776533  57.3983192
  45.8589745   9.7056043  58.2184267  60.1775932  11.4135754  80.9893608
  60.0597000  12.0576072  81.6876125  59.5697165  11.6898906  80.3035355
  53.3232498  -0.0735808  66.0253811  53.6862326   0.7469867  65.6919956
  53.3103371   0.0389045  66.9758606  37.4693251  27.9198146  74.7761202
  37.3534560  27.2516346  74.1005898  37.6199389  28.7296796  74.2886114
  36.8271375  25.7971787  69.7336245  36.3256192  25.1952648  69.1837025
  37.7240729  25.4650235  69.6960926  75.4681444  22.6418543  51.6145563
  74.5333385  22.8475809  51.6080427  75.7758713  22.9526997  52.4659729
 106.2691821  95.6803198  61.3182497 107.1368803  95.8041913  60.9335566
 106.0523332  96.5312929  61.6991091  34.8866129  22.8306603  46.9445276
  35.1171136  22.8894639  46.0173607  33.9301658  22.7933884  46.9516563
  54.4596815   6.3605756  85.2444553  54.6497917   7.2378391  84.9120426
  53.6940098   6.4782190  85.8067131   9.8104304 109.5694552  77.2217035
  10.7248562 109.3587477  77.0328617   9.3539255 109.4180893  76.3941002
  40.1531458  38.7959456  72.5067472  40.7373762  38.1164384  72.8431606
  39.3977666  38.3158684  72.1673965  16.6398543 100.9230144  80.9649944
  16.0308998 100.6269700  80.2884102  17.4888533 100.5754621  80.6917858
  44.8959589  22.0799947  82.8272247  45.6719828  22.4177861  83.2743454
  44.1924572  22.1658635  83.4706116  60.9028292  20.1494503  41.4286613
  60.8001518  19.2949414  41.8475866  60.3490114  20.7365727  41.9432497
  56.5669483  87.8838946   4.8015949  56.9473750  87.7847840   3.9288494
  56.2574321  87.0071103   5.0289413  35.0115132  14.7242796  27.5023341
  34.5956159  15.0976956  28.2793951  35.8182693  15.2285004  27.3967862
  11.3494318 110.7320845  27.7146006  10.8996313 110.0917266  27.1633744
  12.1908777 110.8727155  27.2805190   9.4744747 104.6524281  71.3350058
   8.7337702 104.0541060  71.4329767   9.6536320 104.6598459  70.3947544
  41.9086951  96.7453463  53.6189651  41.9328421  95.9269841  54.1148806
  42.3585242  96.5418298  52.7989244  21.7073250  41.6395092  76.0329008
  21.3142514  41.4964628  76.8938684  21.6130733  40.7993650  75.5840063
  40.0348568   1.2228391  22.1982479  39.4755077   0.6390612  22.7106595
  39.6805215   1.1756646  21.3102984  46.0333347  40.4422760  95.1593399
  46.0491228  40.5732107  94.2112732  45.6884098  39.5566607  95.2731037
  42.5958872  22.8688502  64.2421722  42.9412222  23.7433624  64.0627098
  41.6854286  23.0184984  64.4969320  59.5976830  27.7103066  63.1121683
  58.7027311  28.0162001  63.2595634  59.7818184  27.9385924  62.2010088
  18.5896271 110.7679153  70.6651926  18.1416291 110.0891961  71.1700392
  17.9037255 111.4012458  70.4538631  44.2829368  86.6909839   2.9497215
  45.1218158  86.3139846   2.6844284  44.1502348  86.3749077   3.8434383
  37.8838086  12.9957938  49.4093704  38.0031538  12.9979253  48.4596395
  37.1897268  13.6363149  49.5649815  63.7596273   9.4910896  48.9913130
  63.7317944   8.8493031  49.7009373  63.1467867  10.1745987  49.2623711
  37.9208439  88.1312580  67.4724913  38.4744375  88.8567181  67.7614117
  37.1579474  88.5543127  67.0784807  51.5120649  42.8984118  80.3418350
  51.1799288  42.0128441  80.1945591  51.7039299  43.2311487  79.4650793
  46.3713312  26.4723897  43.0873585  46.9638681  26.6983247  42.3703575
  46.8203115  25.7691908  43.5565662  63.1177139  38.7782407   8.4679157
  63.0209875  38.8180327   7.5164473  63.8403130  39.3757629   8.6603993
  77.1792442 104.2830183   4.2804215  77.0825154 103.8872291   5.1465771
  77.2028763 103.5391571   3.6784718  72.6942396  36.3860130  55.8912516
  72.9021120  36.6591048  54.9976969  73.0168819  37.1000195  56.4411020
  26.7615628  30.0394487  64.1034079  26.6774917  29.3337750  63.4621668
  27.3004436  30.6981921  63.6653471  27.1091390  29.7195554  47.5616932
  26.3039660  29.4509315  47.1192312  27.8115606  29.4048786  46.9926500
  44.2368412  49.5765257  74.5117998  44.9269247  48.9990139  74.1854668
  44.5834732  49.9231291  75.3339577  28.8636470  32.1723604  57.7180195
  28.8470745  32.9037786  58.3352566  29.7520065  31.8223143  57.7852392
  53.8072491  25.9065390  71.8062210  54.6582508  25.6136823  71.4802408
  53.8177252  26.8558502  71.6840267  69.0043020  37.1874642  93.7063789
  68.2036924  37.6968074  93.8321686  69.3610859  37.5031972  92.8761673
  50.7443571  44.0093899  63.4497643  50.8557177  43.0688190  63.5881662
  50.9089756  44.1351175  62.5152445  10.8004063  97.8041894  50.3504705
  10.6502550  98.1851895  51.2156439  10.0032633  97.3074825  50.1658726
  35.6872082  49.6387386  62.1334410  36.2931943  50.1711655  61.6181421
  34.8542428  49.7041845  61.6664124  46.7914915  42.1025085  43.3876991
  46.2226295  42.6227093  43.9551687  46.8216991  42.5917196  42.5655127
  38.6101359  81.0862369  59.7624493  39.5426386  80.9498901  59.5948887
  38.5537308  81.9857497  60.0848293  43.0813980  20.9823442  36.9615340
  43.9593792  21.3567114  37.0338535  42.9753780  20.7989216  36.0280728
  58.0680466  17.8934777  44.0548515  57.9642868  17.4758470  43.1998396
  58.8343191  18.4582043  43.9541626  58.5442972  35.3901911  72.2939301
  57.9696751  34.9069786  71.7001724  59.3999767  35.3738618  71.8652391
  47.2306538  39.7539163  67.3554325  47.8062820  39.9616957  66.6194201
  46.7364836  38.9876485  67.0641184  56.4296913  17.6372576  67.9457760
  56.8481731  16.8764806  68.3486652  56.5818930  18.3505929  68.5656309
  34.4396567  35.0045943  67.7843809  34.1524363  35.5143237  67.0268106
  33.8413477  35.2608132  68.4862423  45.3226328  38.5052991  43.1991434
  44.3931818  38.6330223  43.0092859  45.4191923  38.7719536  44.1133642
  32.4191976  18.6507356  40.2681589  31.7621589  19.3398571  40.1699543
  32.2555470  18.0575347  39.5349741  21.3241243  12.3828208  36.1319804
  20.9538984  13.1200099  36.6174865  22.0780301  12.1070826  36.6533494
  47.4400663  28.9645195   1.1880456  47.7534723  29.5794415   1.8512788
  47.1440744  29.5201945   0.4670429  42.2366047  23.7150764  50.7923126
  41.7615747  23.0868387  51.3362741  42.4331522  24.4425035  51.3826084
  20.7493067  20.1612139  40.2989197  21.3808012  20.6188273  39.7439098
  21.2723351  19.5167732  40.7757521  74.4731998  21.3573480  87.3102379
  74.3381071  22.2925758  87.4629688  75.3542948  21.2998390  86.9406509
  49.3798065  12.1155870  61.7732430  50.1594496  12.6698196  61.8080568
  49.3199158  11.8437076  60.8574200  71.5904045  14.7110701  35.5347776
  71.4420652  14.2989075  34.6836901  71.9097757  14.0014398  36.0921454
  66.2273455  13.3572292  64.8033237  66.3030148  13.4227216  65.7552767
  66.6753435  14.1360855  64.4733000  35.9061265  39.0676045  54.2457628
  36.7904520  38.9159870  54.5792437  35.4072070  38.3031654  54.5337582
  29.3160081  24.4383812  66.6445160  28.6450863  23.9792728  67.1498060
  29.5288420  25.2078676  67.1725559  49.5651102  52.7344656  54.9081612
  49.6237326  53.2957506  54.1350126  50.4563665  52.4098158  55.0365877
  62.6966000  26.4263558  47.6401472  62.8995085  27.1666360  47.0682716
  61.7685843  26.5325880  47.8492785  61.8261147  33.2025075  69.6496487
  62.6451492  33.5869145  69.9621248  62.0098782  32.9501176  68.7447929
  52.6420879  18.1530702  71.8939447  52.4050474  18.7272215  71.1656618
  53.1422615  18.7131834  72.4875164  35.4789257  33.8822484  54.2755508
  35.4220486  33.5179472  55.1588869  35.3987646  33.1232691  53.6978340
  68.5586691  65.5065250  30.1210356  68.9295912  64.7357464  30.5506229
  69.1387081  65.6684208  29.3770075  32.5481749  44.5377445  26.1156440
  32.3088360  45.4579830  26.2256813  31.7808104  44.1379833  25.7062840
  47.2672575 110.4957205  64.8458004  46.8568056 110.3333798  63.9964437
  46.6060751 110.9769648  65.3432655  46.3527632  35.0233054  79.1122055
  45.8225107  34.4251275  78.5856581  45.7594252  35.7428551  79.3276787
  53.4574461  45.2791023  16.1674452  53.2346058  46.0627508  15.6649828
  54.1469622  44.8550606  15.6565785  48.1066608  29.2434955  56.2558842
  48.3310318  28.5454893  55.6405163  47.1495914  29.2562604  56.2650108
  54.3816662  28.6831832  71.7104721  54.5150518  29.0976214  70.8580160
  54.5245028  29.3866014  72.3437452  42.8337908  59.5658112  38.3209085
  43.4870720  58.9216661  38.0479026  43.3286667  60.2078962  38.8298845
  62.6547003  25.4943180  56.0796738  63.2138777  26.2520456  55.9082031
  61.9790220  25.5372572  55.4030275  58.8351488  18.7932980  59.8356342
  59.5206738  19.2513883  59.3493843  58.8656998  19.1772604  60.7119179
  31.3774371  43.7469625  48.8579512  30.8283210  43.2805443  48.2277441
  31.6560197  44.5367718  48.3944559  61.1001205  28.9889455  41.5908146
  61.0688448  29.8068500  42.0870876  61.9482136  28.6054873  41.8142796
  48.2059622   8.5338718  40.9211922  47.4036884   9.0480900  41.0115957
  48.1620216   7.8944802  41.6321611  65.4427338  19.1706300  69.0259981
  66.2760401  19.6354973  68.9502764  65.0371218  19.5328522  69.8137188
  79.9155951  38.1249475  18.0505049  79.5432425  38.0555797  17.1714282
  80.0622749  37.2184634  18.3207035  24.3500113  34.6092486  50.4707050
  24.7624969  35.4208922  50.7662106  24.9463272  33.9185095  50.7597017
  67.2984123   1.9329652  13.1430840  67.1299171   2.3232187  12.2854459
  68.0494165   1.3568208  13.0006897  58.8068247   4.6180028  83.0540180
  58.4165192   5.4588193  82.8154373  59.6470642   4.8479363  83.4507084
 105.3258718 108.5385479  54.0331697 105.3768672 109.2812883  53.4315300
 105.9130324 107.8836704  53.6555290  47.5587893  19.6064198  44.5989656
  48.4257746  19.2100012  44.6851206  47.2479677  19.3184316  43.7406635
  71.7304754  27.8884792  55.0153065  71.0479116  28.4333634  55.4070187
  72.5362396  28.1619215  55.4537201  44.7650385   3.4386432  55.1171398
  44.4368696   3.7394905  55.9645033  45.3638411   4.1293508  54.8332596
  46.4144516  21.8763018   2.1231894  46.1093330  21.7619824   3.0232251
  47.0603752  21.1808729   1.9991073  21.7744803  27.8688169  42.0090485
  22.6624012  27.6480913  42.2903109  21.8899727  28.6022210  41.4048862
  65.2530527  18.0873120  45.3381205  65.4100561  17.7156734  44.4700956
  65.4571676  19.0174329  45.2409315   8.1282967 108.8404558  39.1471744
   7.3709934 108.2557393  39.1759324   7.8269976 109.5981171  38.6457753
  47.2751379  36.1041641  69.0558195  46.3307428  35.9542894  69.0992022
  47.4885082  36.5297389  69.8862362 118.2480753 110.5960679  75.0022268
 118.3518280 109.6450974  74.9687290 117.5330175 110.7805870  74.3932295
  68.3497572  14.9346745  50.4867935  68.9249849  14.2303944  50.7856894
  68.8999033  15.4648018  49.9101353  45.3590012  37.0208979  62.5060320
  45.6832886  36.3362145  61.9209862  45.1111031  37.7374959  61.9218493
  56.3203430  41.7543030  52.1494293  55.4844236  41.4983034  51.7596388
  56.9806862  41.4037752  51.5516758  52.4737692  53.8872910  27.4512053
  51.9976187  53.3805132  28.1089950  51.8594933  54.5714712  27.1851301
  25.8952761  41.3469744  62.6822281  26.1360836  42.1321154  62.1905041
  25.2104855  40.9350300  62.1553564  31.4299130  22.0524716  43.8709927
  32.3767662  22.1833205  43.8202190  31.3102984  21.1127210  43.7339115
  53.7360048  35.1476383  87.7187824  53.0383539  35.7295513  87.4172974
  54.5103598  35.4298210  87.2319889  46.5138245  35.6678629  46.2250376
  47.1526003  36.2482643  46.6389561  46.5176344  35.9260011  45.3033113
  42.3353481  16.5382218  60.3576326  42.1058321  15.6119859  60.2825069
  42.0879030  16.9155252  59.5134497  52.3294687  44.6089268  56.2528276
  52.5204897  43.8296556  55.7308388  51.7956305  44.2860079  56.9787598
  46.0002279  35.2739763  64.6935034  46.2913370  34.7288918  63.9624977
  45.4903173  35.9724689  64.2832184  70.1963806  33.3094192  49.4162416
  70.7129383  32.5130725  49.2928123  69.5289898  33.0650282  50.0574064
  22.1726322  21.4847302  51.3703108  22.1164227  22.0934248  52.1069002
  22.5960970  21.9883966  50.6751633  24.4706082  40.5642462  24.8507023
  24.7560620  40.4239178  25.7535076  24.1832042  41.4770317  24.8295140
  31.5642357  28.6483383  85.2488613  32.2389889  28.2110000  84.7295570
  31.1903811  27.9530144  85.7901478  13.3949059 109.3375197  45.4732370
  13.7510508 108.5935868  45.9589911  12.4952858 109.4213752  45.7892799
  34.6940160  21.2586999  82.5838852  34.3782139  21.2709045  83.4874058
  34.6775413  20.3340673  82.3368740  61.3182449  37.3806286  67.9313993
  60.5020618  37.2050500  68.3996439  61.9732618  37.4828553  68.6218548
  65.4001331  34.2541814  47.8991985  65.3450108  33.4886622  48.4711885
  66.3207388  34.5139074  47.9346991  41.0499430  42.0267725  60.9624386
  40.1155519  42.2159481  60.8766985  41.4830828  42.8466797  60.7250071
  18.1699264  31.8376160  43.2404995  18.4517717  30.9266233  43.3235073
  18.5250294  32.1224117  42.3984623  35.7403088  16.9962704  38.8074064
  36.6805148  17.1717227  38.8456368  35.6691313  16.1781788  38.3155799
  46.7673302  47.4085093  53.1445742  46.6650820  48.0441952  52.4362803
  46.3834286  47.8379250  53.9090681  85.2008057   1.5700395  51.7733574
  84.4654942   1.6818011  51.1708117  85.7674885   0.9294760  51.3434935
  62.5830269  35.5624676  66.1883211  62.3684549  36.2836862  66.7799568
  62.1871233  34.7922754  66.5961170  47.1773434  18.8735783  58.4742880
  47.5336456  18.7741661  57.5914526  47.6724052  19.6005929  58.8519096
  13.1838739  12.0536911  40.5466700  13.5066199  12.7044678  39.9233246
  13.3874953  12.4233460  41.4058113  65.6715107  42.6284552  45.9447193
  66.5108109  42.9970455  46.2203121  65.8360004  42.2899675  45.0646019
   7.3281080  48.7016678  11.3065398   8.1514871  48.8678551  10.8475637
   7.5821394  48.1963921  12.0788085  68.3605480   5.6699848  19.8882735
  67.9290915   4.8309925  19.7265136  67.6775074   6.3234949  19.7378945
  38.7112784  20.4713941  68.8293505  39.1503334  20.5883479  67.9868650
  39.0587544  21.1730504  69.3799639  24.3702745  60.3155661  30.7730699
  24.7958803  60.4308033  31.6226625  23.4344506  60.3024244  30.9738088
  36.4156699  15.9795356  56.9021702  35.7524467  16.5023303  56.4515543
  35.9154391  15.3164268  57.3778677  32.6184862  98.3775158  72.5333452
  32.0397585  98.2440598  73.2840109  32.2443407  97.8309519  71.8423176
  43.2132244  41.0535288  26.0609150  44.0883398  41.1285162  26.4414215
  42.6448488  40.8542252  26.8048644  56.7727184  31.6477680  64.8004532
  56.1827660  32.0550108  65.4347610  56.5062952  32.0130038  63.9567375
  26.1248701 108.4834109  59.3226004  26.6287392 109.0032912  59.9487543
  25.2273005 108.8034452  59.4130278  41.9092369   4.1602769  57.2553492
  42.7793646   4.1499087  57.6541042  41.6942883   5.0894415  57.1736145
  23.2929564  22.0207119  67.4482012  23.3823490  22.4578619  68.2950449
  23.0098438  22.7124810  66.8502617  36.8017077  41.6471386  47.2336245
  36.5365362  42.5569105  47.0986032  35.9968352  41.1428881  47.1146870
  56.2497759  32.5695610  62.2032213  55.5911064  32.9255652  61.6068602
  56.6647482  31.8634510  61.7078018  84.9291515  25.6219387  46.8163633
  84.4409847  25.1459837  47.4882174  84.3959141  25.5351734  46.0262012
  22.7276564  11.4825046  60.2820873  22.2215033  10.9982407  59.6297598
  22.4167037  12.3845172  60.2051878   2.6093548 102.4901999  45.6681871
   2.1172255 103.3106775  45.6974125   2.0306843 101.8489857  46.0807562
  12.9615801 102.0651425  77.6299953  13.1761521 101.2407083  77.1935320
  13.6132496 102.6856376  77.3035860  36.5170479  45.6800938  62.3568726
  36.2385392  45.3786325  61.4921236  36.8341136  44.8904085  62.7951622
  68.0366039  24.0729880  71.6815758  68.0683613  23.1298232  71.8417692
  68.8253593  24.2559099  71.1710501  57.4769354  24.7497225  80.5008698
  57.3032475  25.6817555  80.3690338  57.8809834  24.7015953  81.3672733
  22.0065165  30.9445453  47.2928619  22.8581452  31.2811971  47.5714684
  21.9659805  31.1407065  46.3568544  48.6864567  41.5082026  90.1374435
  47.9979849  42.1375370  89.9225521  48.2575035  40.6545305  90.0785255
  64.3056679  24.3923616  59.4268465  64.7342873  24.8405647  58.6977148
  63.7116623  23.7689233  59.0088606  36.5642524  43.3619785  64.8076153
  37.4453068  43.0560827  65.0230265  35.9845996  42.8158283  65.3386068
  56.7526674  49.9201488  59.9906540  57.1213627  50.8034039  60.0031662
  55.8880949  50.0271034  59.5940304  83.9617443  47.0510483  43.3716202
  83.5326958  47.8538561  43.6676788  84.7216606  47.3547125  42.8750944
  22.0237923  45.1506758  75.2881336  21.9819307  44.3456268  74.7720194
  21.2388587  45.6374216  75.0367594  68.7086153  16.8274248  53.1240273
  68.1803608  17.5662625  52.8218651  68.6183548  16.1703384  52.4338675
  34.9939990  18.9125228  78.5618973  34.1267776  18.5217285  78.4549332
  35.5931091  18.1661129  78.5749149  72.1235847   9.4654852  71.2847567
  71.1852837   9.5904285  71.4269161  72.1779346   8.7223053  70.6839561
  50.1070738  10.1873970  73.1221533  49.4841480  10.8759952  72.8897238
  50.7142496  10.1542056  72.3829222  74.8454332  22.0859694  84.4630814
  74.5604610  21.4556193  85.1246548  74.0657568  22.6103091  84.2802906
  89.3163181 109.0263757  83.6402225  88.4151793 108.9405824  83.3290672
  89.4338740 109.9663741  83.7773991  37.8656387  58.0407286  68.1256247
  38.5810685  58.6011887  67.8251648  37.2187781  58.6490250  68.4830856
  55.1024818  15.8748734  55.3774214  54.8493338  15.8868742  56.3004637
  55.9934902  16.2245321  55.3688669  63.8352966  11.0084248  67.2630072
  64.1805363  11.8922508  67.3890781  64.4072628  10.6200397  66.6010094
  37.3475599   8.2277298  54.2585373  37.2975898   7.2734869  54.2023659
  36.8551445   8.4472084  55.0494766  48.2139111  21.2813473  50.6219721
  48.3666706  22.0618629  51.1545992  48.9288044  20.6888938  50.8546877
  54.6241951  30.0973415  51.9049406  55.2700567  29.4323158  51.6665363
  54.6851921  30.1595998  52.8581619  58.6501074  37.7939272  69.0238523
  58.4239435  38.3345556  69.7806883  58.6556292  36.8985319  69.3621826
  31.3623142   7.9712552  56.5591383  30.5777502   7.5211668  56.2459087
  31.7611909   8.3353209  55.7688332  78.9037657  36.0551190  16.4850259
  79.4486284  35.4269218  16.0109699  78.7590981  36.7659068  15.8604610
  51.3849115  13.8465309  61.5159655  52.2039747  14.2602909  61.7883110
  50.8449602  14.5703101  61.1984348  22.0331407   0.3722058  60.1567173
  21.3140488   0.0458949  59.6157360  22.6811314   0.6895813  59.5277405
  46.5616894   1.9491768  83.0916405  46.7707539   2.7972054  82.7000141
  45.6066227   1.8971364  83.0545044  33.6154509  49.2721844  60.3483868
  33.7422848  48.4913683  59.8094320  33.1081486  49.8656464  59.7946024
  41.8673182   4.8542532  95.1572895  41.5923023   4.2452317  95.8426285
  42.7179337   5.1789749  95.4526711  48.7606668  40.9361601  80.5614185
  48.5856342  40.5829000  81.4336586  49.0801525  40.1865911  80.0591087
  57.7824020  32.5693941  50.8031225  58.4476948  33.0803561  50.3421116
  58.2788849  31.9035339  51.2789011  76.4895344  16.8626690  78.5718298
  75.9144354  16.7834628  79.3328905  77.3629761  16.9860637  78.9434528
  28.0877131 105.9064491  62.6641560  27.8853911 106.5549852  63.3384705
  27.5096958 106.1308361  61.9349289  41.3990402  50.7881784  68.4326315
  40.6018353  50.8522177  67.9067087  41.6207886  49.8571205  68.4190559
  63.2532883  17.1611977  52.2162819  63.8457966  16.8961847  52.9197931
  63.7760353  17.0779228  51.4187670  34.1389060  24.0263200  38.2890058
  34.3912077  23.2194638  37.8400493  33.9017487  24.6286488  37.5838876
  11.4841974  57.2739792  26.9151187  11.3475239  56.4875889  26.3867760
  11.1210322  57.9841471  26.3859653  60.9684563  22.7466321  55.6245327
  60.6529522  23.2063961  54.8465204  60.1858377  22.6176238  56.1603451
  65.0525570  29.6660209  61.0112238  65.3315783  28.8012791  60.7102251
  65.0867224  29.6097755  61.9661570  51.9308662  46.2868118  60.2677059
  52.4144697  47.0622540  59.9830198  51.0113287  46.5494347  60.2263165
  49.3478870  15.1095545  64.5394039  49.0491486  16.0074759  64.3954372
  48.5714626  14.6463192  64.8537493  48.8917589  47.1253252  60.8213091
  48.2315350  47.7767801  60.5847740  49.4014692  47.5422192  61.5160227
  32.9105282  45.8175325  61.6738415  33.3985639  45.4674053  60.9285498
  33.1997991  45.2903175  62.4185562  76.5709925  28.8839459  52.6258469
  75.6622601  29.0750003  52.8580809  76.5126371  28.1501746  52.0139599
  53.8771439  41.4869499  40.6041956  54.5318079  41.1140490  41.1946106
  53.9798546  40.9935760  39.7903967  52.7770138  47.9231405  30.1749015
  53.4106636  47.2797632  29.8574352  52.5451851  47.6182938  31.0521460
  72.9101801  18.1602502  74.1550493  72.3092365  17.4581468  73.9057541
  72.4244118  18.6732471  74.8008823  31.1270595  47.0601797  63.6056137
  31.7869306  46.5614748  63.1238508  30.5654120  47.4331331  62.9261351
  33.7095165  43.6862707  63.4613466  33.4881115  43.1286764  64.2072010
  34.5299649  44.1096497  63.7140274  78.1229115  29.7114968  36.8426275
  78.2159042  29.6165395  37.7905560  78.9393377  29.3618631  36.4856553
 103.4849561 108.1695307  70.6597805 102.7893842 107.6635678  70.2397633
 103.2489503 109.0826870  70.4964447  45.1758480  17.9328096  37.9423165
  44.9591208  17.4315083  37.1562147  45.8431959  18.5551035  37.6531315
  34.5450943 102.6157601  54.8156786  34.7767609 101.7515821  54.4754457
  34.6674698 103.2064600  54.0724897  47.3422194  37.2580147  59.2787552
  47.9321957  37.9473448  58.9738274  46.9070292  36.9467926  58.4850454
  15.4124844  26.2544990  73.1976748  14.6946955  26.6017437  72.6681185
  16.1604166  26.8116069  72.9821301  20.3649688  16.7029452  31.8360233
  20.2367806  16.9411230  30.9178352  19.7354209  15.9987402  31.9909310
  59.7779703  30.5271935  57.1614408  59.6168327  31.3359380  56.6754389
  59.3205738  30.6522512  57.9929304  72.8160572  21.6866159  34.5922160
  73.6698341  21.3234687  34.8276305  72.3507786  21.7640042  35.4251385
  57.4310684   5.9281850  62.7321053  56.8212938   5.5993491  62.0715904
  58.1909227   6.2237006  62.2305870  46.5114355  32.4660826  87.9867268
  46.0353088  32.9402900  88.6683846  46.1333895  31.5867734  87.9980469
  74.3216085  28.0572081  45.6295967  73.9024305  27.3442960  45.1476431
  75.2340174  28.0374956  45.3408766  81.4388657  17.9692936  45.7831240
  81.1185169  18.0865610  46.6774654  82.1567726  17.3416519  45.8662319
  51.6441441  56.9490862  85.6450176  51.5185165  57.3380041  84.7794533
  52.3312902  57.4794531  86.0484600  25.2860093  18.5497570  42.5724125
  25.3462100  18.0944180  41.7326069  25.6990957  19.3987131  42.4147177
  76.0090256  19.9275827  50.6960201  75.1670647  19.5702887  50.9782934
  76.1010504  20.7424450  51.1897421  51.0977030  69.8925400  71.1416864
  51.9951057  70.2252293  71.1563778  50.5540133  70.6626463  71.3077068
  49.4034052   5.0225192  62.6961136  49.4611788   4.8173565  61.7629480
  48.4758329   5.2069610  62.8438187  67.2457075  33.4147954  39.4422483
  67.9271746  32.8511548  39.0759921  67.7164507  34.0148139  40.0206995
  83.4098244  35.4740453  47.3091364  82.9697990  35.5844140  48.1520081
  84.2509174  35.9177899  47.4181318  72.0546341  31.7550468  44.7705126
  71.3092041  32.0844555  45.2725649  72.0693827  32.2958970  43.9808989
  56.2301826  43.5759068  32.7465296  56.2940836  42.6386976  32.5626945
  56.9561338  43.7526608  33.3448505  15.0890702  94.8368544  77.2409868
  15.0433510  95.1332970  78.1499767  16.0246199  94.8279126  77.0387411
  76.0962534  27.1203160  59.1934872  75.3982592  26.8771458  58.5852909
  76.5451622  27.8485513  58.7640858 116.6325034  99.0487952  92.2763348
 117.2964443  98.9978845  91.5887165 117.1049727  98.8376434  93.0815792
  50.1836967  30.0730610  76.4912462  49.5739651  30.1837754  75.7617235
  49.6528482  29.6936917  77.1916103  34.5696712   0.5267751  79.3553591
  35.4939318   0.7728455  79.3931293  34.5664644  -0.3261935  78.9209986
  62.7732849  29.1941261  71.5102673  62.6968336  29.5953369  72.3759556
  61.9391537  29.3872237  71.0822821  56.2526751  50.0301361  38.9509034
  55.9519386  50.8754826  38.6174655  57.1075201  49.9009991  38.5400605
  35.1302099   4.1175956  29.7246742  35.7573080   3.5486811  30.1711226
  35.3225088   4.9940613  30.0579309  72.7906466  34.5116878  53.1142473
  72.1436977  33.8166547  53.2351589  73.3985186  34.4029546  53.8456154
  54.6340847  17.4058044  59.7084045  53.8391447  17.1184123  60.1575184
  55.2673721  17.5504816  60.4114342  69.8273754  21.9958806  45.4254293
  69.4830894  22.6354480  46.0488510  70.4960537  22.4747205  44.9357224
  55.1264381  16.2833250  48.5517263  55.4893875  15.6840146  47.8995514
  54.3758392  15.8144522  48.9164019  64.9813778  76.8638183   8.2675430
  65.3368742  76.8173553   9.1550610  65.3105623  76.0753252   7.8360912
  17.6916766  44.5928764  69.1290951  17.0706582  45.3163004  69.2140770
  17.3761249  43.9326000  69.7461033  20.6001377  24.2390156  61.3794613
  19.9504399  23.8253736  60.8111095  21.2035823  24.6735668  60.7767582
  44.1827679  22.7956271  67.4613380  43.4118795  22.2992778  67.1863794
  43.8960648  23.7088180  67.4504852  39.5587254  52.6534081  31.1246109
  39.9618602  51.8713474  31.5015602  39.4543648  52.4452591  30.1961637
  41.4417553  46.5541506  63.8714838  42.3643780  46.3181305  63.7750912
  41.0344553  45.7770443  64.2541695  30.2596491  95.4214747  12.0201612
  29.6996659  95.1732583  12.7557147  30.7691162  94.6336336  11.8304753
  35.5165625  39.7830033  76.2347603  34.5848298  39.7985482  76.4535379
  35.9368157  39.3983436  77.0039558  52.6683187  32.9866481  85.0083065
  52.2631645  33.3898544  85.7761002  52.1064186  33.2447839  84.2776489
  72.1027660  55.4229164  43.5124683  72.5995636  54.8889160  44.1323662
  71.2686062  54.9635744  43.4154558  31.2332630  41.9362402  31.2562943
  31.7746139  42.6947260  31.4750862  31.0067272  41.5514374  32.1029592
  99.0357113  30.1635695  24.7070694  99.2613029  29.3910098  24.1889048
  99.4761944  30.0264311  25.5457568  26.8772578  27.9671025  66.2273121
  26.4713740  28.7237978  65.8043432  26.8323731  28.1631517  67.1631432
  76.4661598  47.6503468  60.7838964  76.9832134  46.8563890  60.9199762
  75.6997871  47.5363445  61.3459492  19.8357522  31.5625048  77.7782440
  18.9026511  31.3613772  77.8496838  20.2742791  30.7295752  77.9519033
  64.3695879  24.2751241  28.7790871  63.5910082  24.1451669  28.2376456
  65.0509930  24.5367885  28.1598568  49.4037771  31.2503433  57.4644709
  48.5455036  31.6681123  57.5356245  49.2354202  30.4366207  56.9893456
  81.7361164  57.0488310  28.5386419  82.2071934  56.7183447  29.3035579
  81.3800430  57.8909254  28.8220429  65.6190014  35.5986452  52.1542597
  65.1716089  34.7589350  52.2589684  65.0493622  36.1027098  51.5731764
  51.9535780  28.1015277   2.8973076  52.4412680  28.8838220   3.1549987
  51.5842104  27.7692294   3.7154630  84.0968990  17.5409913  73.3366537
  83.2201862  17.9251909  73.3358812  84.4942474  17.8526306  74.1498137
  65.0553131  33.5763693  69.3112707  65.5354357  33.3271980  70.1009703
  65.2927208  34.4921422  69.1655684  61.4696741  28.6350131  58.3250046
  62.2605848  28.5985923  57.7870798  61.0349274  29.4446397  58.0571795
  31.4791346  42.0234442  75.0126600  30.7542133  41.9439793  75.6326628
  32.1708727  42.4621439  75.5079079  54.9705410  38.7062883  50.5377865
  54.3087006  38.0818534  50.8349085  55.8054590  38.2941532  50.7598066
  51.8637085  17.3086953  60.1974487  51.8802977  17.6482534  61.0922432
  51.2359667  16.5866780  60.2268648  43.9429665  58.6756706  55.2714205
  43.8304090  59.3856382  54.6393538  44.3352032  59.0961933  56.0366344
  58.5038137  45.7280159  45.2839947  58.0153370  46.0395336  46.0459518
  57.8480387  45.2892113  44.7421074  88.6970234   3.0329713  51.2990665
  88.0579281   2.5644383  50.7621717  89.0756798   2.3589867  51.8635130
  70.0338268  26.5354609  46.2004852  69.7879934  27.4110103  45.9018040
  69.9194384  25.9787488  45.4302788  58.0529928  19.7610307  36.0285234
  58.5613251  18.9964044  35.7580090  57.3507404  19.8230708  35.3810453
  65.6891108   7.9131502  42.4163246  66.1438131   7.7486128  43.2424021
  66.3829613   8.1655407  41.8071461  49.7389030  37.8255057  65.8268023
  50.6567574  38.0924630  65.7766867  49.5331907  37.5088668  64.9472237
  45.9799671  23.5460854  72.4639940  46.6587925  24.2157602  72.3805809
  45.9724379  23.1055236  71.6142416  26.9536781  18.9994550  80.4813385
  27.4974585  18.2147086  80.4126930  26.3283944  18.7974405  81.1773586
  38.6064053  45.1552105  83.0103207  37.9806328  44.7465754  83.6083603
  39.4535446  44.7875834  83.2621861  23.5164809  41.3952017  60.0316191
  23.1834912  41.9673252  59.3402243  24.4355750  41.2545776  59.8041916
  25.6118035  19.6483517  52.1782923  26.0561156  19.9364376  52.9756832
  25.6540871  20.4051828  51.5937853  47.2680473  28.5968447  70.4522800
  48.0140591  29.0869236  70.7980013  46.5372992  29.2138672  70.4913139
  41.0242033  22.6038170  41.1607599  41.1990595  22.7919555  42.0828581
  41.6509676  23.1466627  40.6825209  78.0456829  11.1356950  32.1620226
  78.9604139  10.8552706  32.1326613  77.9326439  11.6670334  31.3739014
  94.6518803  44.2977047  39.2064738  95.4651260  44.0128469  38.7896681
  94.8929596  45.0910711  39.6846771 104.6190357  37.7173996  47.8116035
 104.7995758  37.1014929  47.1014643 104.0849876  37.2194600  48.4305382
  65.0758839  21.8731093  78.3595371  64.4455576  22.3275542  78.9184618
  64.6740675  21.0212731  78.1888056  55.7711887   5.5517006  64.7796965
  56.3799381   5.5251068  64.0414858  55.5107260   6.4706475  64.8423672
  82.4168491  34.3500161  51.9311190  82.5611496  33.7980080  51.1625528
  82.9448891  33.9452386  52.6192760  75.0541496   8.8869953  45.4462147
  75.8576441   9.0600729  44.9556351  74.6309614   8.1734681  44.9686956
  75.1773930  63.2260466  63.3529186  74.8267412  62.5967026  62.7226782
  74.4797611  63.3311987  63.9998245  59.4254780  43.3550167  40.3434896
  59.6173620  43.5369396  39.4235325  58.7426519  42.6847076  40.3177166
  16.2232018  47.3369074  48.6443329  16.4531934  47.0709324  49.5346069
  15.7442486  46.5890837  48.2871294  43.1749010  35.8410358  41.3820362
  43.4378767  35.7100511  40.4710388  43.9298534  35.5499768  41.8934727
  74.0510702  42.1057320  60.3898525  73.6782360  42.9816914  60.4894590
  74.9553537  42.1946669  60.6908417  50.1883268  30.5482006  19.1317022
  50.8945894  30.3128147  19.7333813  49.5054054  30.9125423  19.6948278
  60.0897169  41.5063667  61.3365602  59.6332407  41.1325645  62.0903015
  60.9175825  41.0275650  61.2963057  37.3304105  54.6688318  14.3319762
  38.1908989  54.8839331  13.9720845  36.9373322  54.0870190  13.6814284
  79.0799618  49.5553970  37.0187354  78.4268522  50.1344156  37.4116921
  79.6368027  49.2906523  37.7509046  98.9902687  28.1729078  59.6008205
  98.0974007  28.5036111  59.5025539  98.9942551  27.7448034  60.4569387
  58.0202913  13.6322641  22.6077533  57.6096964  12.8444517  22.9641128
  57.4237967  13.9219046  21.9174409  91.1500359  33.6932802  51.9175911
  90.8057404  32.8070211  52.0282078  90.8583736  34.1628098  52.6990652
  90.2217579  71.5204573  37.6814842  89.7111034  70.7532072  37.9399061
  89.8564625  71.7772245  36.8348074  44.0565157  22.6875234  58.0317211
  44.1881323  21.9344449  57.4557161  43.7196016  23.3737016  57.4556303
  19.6257942  96.1322613  39.6933818  19.4716757  96.4762063  38.8135076
  19.0007990  96.6008456  40.2465916  64.8957348  58.2244110  57.8857183
  64.2295742  58.0773497  58.5571623  65.5870438  58.7094164  58.3363676
  66.4187479  64.5281410  66.9690275  65.7110882  65.1717091  67.0047474
  66.4049530  64.1089821  67.8294659  93.9836216  43.5520887  52.9087257
  94.2771149  43.0097723  52.1766138  93.8352394  42.9314184  53.6221552
  73.1450653  49.4803572  65.8270597  73.5165691  50.3537130  65.7026768
  73.8681126  48.8830280  65.6356764  74.0370798  52.9698610  66.7549610
  73.4566641  52.9425955  67.5156212  74.9185467  52.9162312  67.1242380
  85.9018612  41.3269186  31.9755912  85.9832191  41.7970276  32.8054166
  85.4261589  41.9299221  31.4043427   6.0420375  33.8222170  65.4422331
   6.0690932  32.9865170  64.9762869   5.1677089  34.1681528  65.2630377
  85.2712822  42.4981022  47.1403265  85.0546265  41.5718603  47.0337009
  85.6387711  42.7569485  46.2952328  85.2221584  33.5103846  56.6390991
  84.9258232  33.8738394  55.8046436  85.1197529  34.2289114  57.2631693
  74.9199247  55.2769756  39.1526508  75.2588463  54.4555473  38.7968183
  74.2158747  55.5251265  38.5535145  68.3584499  60.9056377  55.5039978
  67.9694319  60.9707928  56.3761520  67.8315830  61.4931202  54.9622345
 112.1589661  17.3591328  51.3589478 113.0163288  17.6979220  51.1013126
 111.6806030  17.2664559  50.5350447  86.8159485  63.0796432  36.8084097
  86.6910267  63.1883526  37.7511740  85.9860325  62.7184916  36.4969015
  71.7465925  74.8040676  44.6606350  71.7517948  73.9922047  45.1676702
  72.0463514  75.4728842  45.2763128  69.6524334  57.2083950  60.0592899
  70.4673195  57.1357203  59.5623827  69.5955276  56.3870096  60.5474710
 105.3211975  65.2196980  48.3715391 104.9874115  64.4905043  47.8489542
 105.0110245  65.0400114  49.2590857  69.1597319  63.9801455  58.3757973
  68.3903217  63.9886379  58.9451504  69.2467117  63.0663872  58.1043005
  75.2137136  55.6623316  68.7936497  74.3887234  55.6133366  68.3107185
  75.8141184  55.1043129  68.2993174  91.1445618  63.3069801  81.0041046
  91.5789032  62.5425100  80.6257439  91.3022041  63.2306814  81.9451523
  77.6744604  60.4839230  59.0583992  77.9436588  59.6484852  58.6765480
  77.5040102  60.2828312  59.9785852  61.3335800 102.2901058  41.2547493
  61.6081810 101.4597511  41.6437626  62.0112038 102.9131985  41.5170813
  63.0019522  55.1909542  61.7997789  63.3017874  55.5474186  62.6359987
  62.6732159  55.9509087  61.3195324  71.6760254  62.2391272  71.8646049
  71.0595322  61.5130329  71.9592476  71.1669064  63.0168962  72.0928669
  87.7918720  52.8327322  42.6084185  88.6923885  53.0239201  42.8706408
  87.6544952  53.3600092  41.8214369  95.1226997  93.8658905  71.0734558
  95.6081486  93.7322044  71.8875122  95.2654648  93.0615330  70.5745935
  92.4632645  62.4581909  66.9978666  91.9898129  62.3507643  66.1729288
  93.1948471  61.8440342  66.9358778  71.5859079  49.7402859  45.3087425
  71.3086939  48.8242626  45.2919722  70.8366585  50.2236795  44.9606180
  76.6950655  42.0007706  40.2390385  76.2298298  42.6344204  39.6928930
  77.5487614  41.9023657  39.8174262  76.2915421  48.3187389  54.9580526
  75.8020782  47.4963045  54.9420452  76.7371798  48.3157825  55.8051825
  77.1293640  72.3398447  64.0089560  77.1423149  72.2074699  64.9568701
  76.2043333  72.4652910  63.7972546  96.4943409  61.4961433  68.8430548
  95.9060383  61.1000967  69.4859219  96.6280460  60.8118582  68.1872225
  91.8129730  79.9844790  50.6772757  91.3773155  80.2027321  49.8533821
  91.2514496  80.3642559  51.3530636  84.7008610  57.8489447  38.1099033
  84.4111252  58.6692286  38.5091829  85.0265980  58.1045866  37.2468972
  92.7089024  39.6638775  38.5199165  93.2677555  40.1057291  37.8806353
  92.9448986  38.7391973  38.4457421  89.0954018  52.5984287  60.7195759
  89.8898220  52.6492023  60.1880217  88.8762569  53.5104370  60.9104824
  74.9011564  72.0689631  60.8458185  75.3686619  71.3144541  60.4875135
  74.8516369  72.6880312  60.1174450  85.1499939  25.0880170  62.8935385
  85.4387569  24.2656994  63.2893133  85.0851154  24.8939872  61.9584560
 103.3555984  55.2271748  76.0254288 103.8109779  54.4585323  76.3690233
 103.6820412  55.9552145  76.5542221  91.1793995  73.1606674  65.0398207
  91.5987492  72.3891354  64.6588802  90.2461147  72.9481077  65.0447750
 108.7719154  55.5282211  79.6330929 107.8547287  55.5136585  79.3596125
 108.7695694  55.1240730  80.5007839  70.0868893  34.8517156  10.8637619
  69.3519402  35.3631234  11.2022090  70.8547926  35.3996921  11.0258770
  80.2418900  32.6068473  28.2307839  80.0545406  31.8624663  28.8026476
  80.5624104  33.2881880  28.8217711  89.6691227  60.7660198  45.7761812
  89.0824032  60.0574207  45.5118418  89.1289330  61.3305664  46.3291025
  73.0535650  52.0100117  69.4796801  72.1395493  51.8111992  69.2765141
  73.0136538  52.5197268  70.2888918  87.9850578  64.1557455  30.4746437
  88.6841679  63.9696169  29.8478746  88.3499146  63.9025450  31.3225818
  90.8846951  72.0649195  52.2924042  91.3659668  71.6457987  51.5789938
  91.1528111  72.9830503  52.2552443  67.3940659  63.6061049  60.8360195
  66.5547276  63.2401609  60.5570364  67.7044582  63.0046606  61.5128851
  82.4798393  76.1237907  43.0988073  81.8361187  75.7892036  42.4743748
  82.4231243  77.0755720  43.0144310  82.9663944  52.2084379  54.2106628
  83.4654999  52.6049852  53.4966087  83.4374237  52.4650240  55.0034618
  90.0922203  43.8505316  45.3274679  90.9418869  44.1028309  45.6889153
  89.4742012  44.4720840  45.7121134  69.0219402  59.2314672  61.9625282
  69.3586493  58.5345030  61.3994169  69.5780468  59.9859667  61.7683411
  67.5510788  69.9429178  61.1424923  66.8266106  70.1837540  61.7198801
  68.3347034  70.2410269  61.6043234  74.9610949  50.2690840  68.3778238
  74.2844296  49.7713518  67.9188967  74.5330477  51.0911798  68.6169100
  78.4667826  74.9150276  48.7515831  78.8725710  74.3993330  48.0547190
  77.5276279  74.7629738  48.6462212  58.2963419  43.8327265  34.1531205
  58.3937693  43.5672569  35.0675964  59.0153456  43.3939409  33.6984396
  86.1599827  50.8370256  41.6757393  86.6670513  51.5363979  42.0880508
  86.0315323  51.1335325  40.7747316  76.9232893  72.7178049  66.8695641
  77.4839926  71.9912100  67.1414089  76.0404491  72.4458790  67.1203327
  73.0294991  63.8193989  64.6057749  72.1886396  64.2767572  64.6094608
  72.8469992  62.9792118  65.0265074  82.0708752  68.3058405  53.6308241
  82.4555111  68.9029503  52.9891443  81.8941879  68.8558722  54.3940258
  97.4395084  68.0527687  35.6464386  96.6007137  67.7720165  35.2806115
  97.2927189  68.9602232  35.9132838  64.5102453  76.4778566  59.2654419
  64.0456772  76.7196035  58.4642124  64.7835779  77.3129702  59.6450615
  97.0684338  59.1713667  39.2899418  97.5678921  58.8491821  40.0402498
  96.1561775  59.1397524  39.5780802  85.7400322  19.5542204  43.3435297
  85.0327206  19.4437015  42.7081394  86.3572407  18.8516164  43.1394863
 104.2555809  71.1827278  93.0006695 104.2568016  72.1281719  93.1502342
 103.3427238  70.9220552  93.1230545  99.1197300  97.2648335  93.2509518
  98.6333942  97.8769493  92.6986599  98.4498978  96.8452168  93.7908268
  73.1360245  59.9736786  66.9750834  73.8857794  60.2065516  66.4274788
  73.4814835  59.3290329  67.5925922  69.9858427  55.2380562  68.2939911
  70.7007456  55.8651400  68.4031296  69.7403145  54.9969196  69.1871881
  65.9678841  56.9239235  61.9000673  66.5683699  56.8118811  61.1631155
  66.2133217  56.2336302  62.5160933  89.6815205  58.1954718  55.3121138
  89.7198105  59.0751410  54.9366903  89.8496914  58.3258200  56.2453651
  81.3099003  46.8891478  25.7761884  81.4316368  47.8350401  25.8580542
  80.3602886  46.7688751  25.7774615 105.0069714  38.9934492  30.0861049
 104.4859123  39.4193339  29.4054079 105.2397442  38.1433201  29.7128367
  73.3713961  63.4298325  47.9195023  74.1799498  63.3072186  48.4169292
  72.9915476  62.5532484  47.8599691  70.8152533  73.2493353  71.5153742
  70.4824257  74.1450691  71.5712833  71.5079308  73.2919121  70.8561182
  89.1428661  81.1033535  42.2514915  88.4062481  81.0608196  42.8612566
  89.0074825  81.9187927  41.7688274  74.0321779  64.6407080  52.6969099
  74.8697615  64.6895981  53.1576633  74.2580986  64.7664070  51.7752886
  78.3471775  59.4906521  56.0074091  78.0366898  59.5952368  56.9067907
  78.8050032  58.6500406  56.0083055 100.3121853  60.9503031  48.5908318
  99.7706318  61.2020016  49.3388987 101.1487293  60.6911325  48.9771700
  75.2642107  69.8515987  82.7458000  75.8961916  69.9934196  83.4505749
  75.7443953  70.0676537  81.9464397 105.0851917  26.5748024  47.2029066
 105.6920815  26.5872264  46.4627981 105.6114674  26.2626123  47.9389763
  90.7605362  55.6910563  52.9333925  91.1416626  56.5486145  52.7447796
  91.5072632  55.1468039  53.1832552  76.7283297  64.9954128  61.8276167
  76.1372423  64.5788336  62.4547529  76.2625122  65.7827806  61.5460157
  94.3692493  80.9000969  65.0092411  93.9512253  81.4263916  64.3276978
  95.2488995  81.2686253  65.0906754  85.0071430  62.3099852  70.0932264
  84.6994114  61.4387655  69.8432112  85.9390068  62.3067570  69.8744774
  85.7871532  82.4842072  54.1615057  86.2827110  82.1594906  54.9133158
  85.4636192  81.6941738  53.7286043  64.9909258  74.4628143  49.3602848
  64.4821739  74.9937010  48.7474537  65.0538111  75.0016165  50.1489353
 102.5385952  69.8442888  33.6328316 102.7764893  68.9217567  33.7254524
 103.3057880  70.2501106  33.2291603  78.6151361  63.1365633  57.3666000
  79.3404675  62.6105595  57.7034092  77.8340483  62.7467871  57.7592945
  79.6080923  67.3191690  37.5897145  80.3087997  67.4996996  38.2163286
  80.0108147  66.7439079  36.9392371  75.6563854  28.3763885  36.5517759
  74.9677324  28.8053584  37.0596862  76.3946772  28.9845514  36.5877700
  74.9654293  95.3203964  62.5086260  75.0033283  94.4250202  62.1723080
  74.8193169  95.2170563  63.4489489  46.2928295  46.0730934  46.8322229
  46.3118219  45.9774113  45.8800077  46.9060612  45.4112053  47.1517277
  81.8428898  26.7238235  60.8591270  81.6739655  26.7244792  59.9169493
  80.9824944  26.5898252  61.2566280  66.6428185  56.1187410  64.8317194
  66.8977833  57.0366907  64.9244452  67.4654722  55.6338358  64.8976183
  67.1368027  74.7709656  42.6153994  67.5190687  74.0028000  42.1910954
  67.6577568  74.8900080  43.4095430  86.9099140  72.1600533  37.8122354
  87.7884388  72.0223761  37.4580288  86.4826488  72.7342081  37.1766043
  81.5663433  41.3516617  40.8611298  82.2465420  42.0014524  40.6840897
  82.0243263  40.5116272  40.8325052  62.1456671  75.8371258  41.2392807
  62.5652027  76.3068247  40.5184412  62.3961544  74.9227571  41.1073112
  89.0407658  48.6125040  51.4328337  89.9694157  48.7059736  51.6451931
  88.7386513  47.8952551  51.9900751  86.1372662  67.7894163  37.5830531
  86.3652992  67.5724125  36.6790938  85.6122017  67.0471668  37.8824019
 106.3041401  50.4273796  61.0475922 105.5048943  49.9892712  60.7551718
 106.7440605  49.7802019  61.5988207  58.2432556  57.7458096  19.1648018
  58.1288862  58.4233236  19.8312318  57.8917742  56.9518328  19.5676517
  74.0679979  56.9945669  50.8190823  74.4884634  56.3569498  50.2421141
  74.7601318  57.2642660  51.4227772  91.4414406  68.1791830  70.7602692
  90.9070301  67.4126387  70.9677505  91.5472221  68.1471634  69.8094749
 102.4975109  64.5028353  36.8474603 101.8868637  64.2775869  37.5493193
 102.0646095  64.2032671  36.0480309 101.6412163  63.4647226  70.0258732
 101.0979366  64.1255379  70.4552937 102.5372887  63.6949158  70.2714252
  99.0986824  44.6883106  60.2354860  99.1901875  45.0680542  61.1093616
  98.7762547  45.4086637  59.6938658  70.2562189  26.2414408  51.3186407
  70.3474760  25.3530049  50.9742785  70.6906176  26.2136745  52.1711445
  74.4071770  58.2920551  68.5642385  74.7396374  57.3961067  68.6187935
  74.8848867  58.7666321  69.2445374  78.5401869  42.2914124  51.1038589
  78.0691433  41.4772892  50.9262228  79.3583250  42.2064734  50.6142998
  72.8895140  56.2678099  61.1008596  73.7770319  55.9105730  61.0704184
  72.3597860  55.5619383  61.4714861  88.5785675  75.7544136  56.3420868
  87.7725983  75.2900362  56.1162710  88.3450031  76.2821341  57.1057558
  63.0478239  28.3324623  63.5613060  63.9478874  28.4032011  63.8792849
  62.5398064  28.8849068  64.1554022  99.1451550  60.7519674  60.7630539
  99.9411774  60.7562160  60.2314949  98.4568024  60.4686403  60.1612759
  85.1291370  44.9346352  52.5130272  85.9133816  45.4555750  52.6857138
  85.2683067  44.1231775  53.0012894  75.7053566  99.5759583  37.2076440
  75.2106524  98.7651253  37.0891356  75.0364685 100.2580357  37.2676134
 101.7562294  58.3409357  89.4720650 101.8282223  59.2835712  89.3221188
 101.9789124  57.9465771  88.6287785  88.0284119  71.9064331  43.5054874
  88.4972858  71.5081882  42.7721548  87.7634335  72.7671814  43.1812525
  73.3620453  93.0429173  51.4786482  74.2687225  92.8769207  51.2205601
  72.8613377  92.3443985  51.0572338  75.6399488  64.8471451  50.5559492
  75.5278587  65.2773094  49.7082329  76.5753126  64.6492004  50.6022692
  71.8099976  53.8984299  62.1972132  72.4168730  53.2755852  61.7972183
  71.8426514  53.6976576  63.1325483 108.9298916  84.4391823  57.1433449
 109.6232605  84.0495491  56.6107512 108.5127258  85.0769329  56.5641403
  90.3093719  54.4336462  43.1014061  90.6473446  54.6991730  42.2461271
  91.0863876  54.3701839  43.6567974  97.0540524  61.6977167  91.1098766
  97.6381016  61.1731148  90.5622292  96.3248634  61.9251490  90.5329895
  82.5520897  59.1217852  67.3193741  82.6294422  59.9943495  66.9335270
  83.1313419  58.5736179  66.7900229  77.1243000  89.7119904  79.3549395
  77.9788733  89.5228195  78.9674473  76.7693949  88.8528442  79.5833063
 104.9918652  94.2347622  24.5703363 104.1144276  94.4914341  24.8540092
 105.5808926  94.6910763  25.1712108  96.4430809  75.8733940  49.7850323
  96.6416645  75.7566977  48.8559580  97.2939682  75.8207560  50.2202797
 107.5339890  59.8722839  42.2189856 106.6724205  60.2893305  42.2202873
 108.1201839  60.5324030  42.5889301  89.8385620  72.7407598  73.0647039
  89.6812630  71.8185282  72.8622818  90.7910252  72.8324127  73.0395842
  74.1874695  79.5303488  42.7673531  74.8045254  80.2455235  42.6124573
  74.0249205  79.5542717  43.7103510  89.8075581  87.7736950  52.5923443
  90.6247616  87.4661255  52.2001505  89.4429493  87.0007133  53.0233765
  88.8169003  39.5617723  62.9894400  88.0628300  38.9857030  63.1149578
  88.8927364  39.6535373  62.0396709 110.0153828  69.7298050  56.6358995
 110.0955963  69.9324226  55.7038355 110.4753304  68.8968849  56.7403889
  68.8922024  94.5650101  51.6630554  68.4060526  94.0711498  52.3233557
  68.9152718  95.4598522  52.0021057  73.9188576  92.4586582  10.1772094
  73.0736446  92.1328545  10.4865575  73.7545633  92.7314854   9.2745465
  82.2982121  90.7302952  51.7669582  82.8790283  90.2947044  52.3907709
  82.8307629  90.8381844  50.9789324   4.8451953  59.3421078  46.8597221
   5.6611876  59.6445560  47.2583675   4.3513350  58.9601755  47.5852966
  78.0373240  51.1992645  11.7082179  77.2056818  51.5755510  11.4201093
  77.7865791  50.4662228  12.2703648  95.5749893  71.7208815  65.8277321
  94.7618008  71.9863224  66.2572622  96.2445164  72.2870731  66.2116432
  72.2007036  57.9309273  44.4871330  72.1922064  57.0485258  44.1162825
  72.5097561  57.8104019  45.3850174   9.8957972  65.6915808  78.0864620
   9.6770625  66.6214609  78.0256224  10.7602553  65.6752491  78.4971762
  95.7063293  91.8463707  48.5602903  96.2782764  91.0824013  48.4863472
  95.8408546  92.3262691  47.7430820 109.9686813  92.6911068  47.5875568
 110.7418823  92.3067379  48.0006552 110.0654030  93.6330032  47.7279472
  89.9825859  65.3947783  47.6556158  90.2556896  64.6541262  48.1969881
  90.7664967  65.9390068  47.5812387  97.2305393  73.5200024  87.8814316
  96.5139294  73.3325148  88.4877014  97.9794502  73.0449772  88.2415962
  79.3969679  84.9954224  55.7383919  79.6024656  85.8169365  55.2921724
  79.7100830  84.3145657  55.1428795  87.0089340  71.5610647  67.0467567
  86.8126774  70.6245613  67.0207262  87.8906727  71.6312551  66.6809130
 105.6433964  55.3937292  65.4457998 105.9559155  54.5696974  65.8193398
 105.5340195  55.9724998  66.2003183  99.0676212  60.4250813  84.8521328
  98.3909321  60.4771757  84.1771507  99.7200489  59.8247242  84.4913673
  87.9658127  82.1642494  73.8595629  88.1185055  83.1091881  73.8556671
  87.6908493  81.9623756  72.9652071  74.5964050  60.4025745  62.4248171
  73.9699221  60.0499105  63.0567741  74.5365572  59.8125696  61.6734552
  37.8258579  39.2153127  17.0339844  37.3391073  39.3921906  17.8389809
  38.0052012  40.0811440  16.6673729  97.2665977  76.6949892  42.0727873
  96.5784454  76.1479092  41.6941309  97.1807861  76.5680218  43.0176401
  69.6004868  63.5239220  53.0687380  70.2489042  63.2057428  53.6968660
  70.0424337  64.2378616  52.6091719  82.9585838  79.0626764  72.7259684
  82.5739956  79.9129391  72.5129604  83.8994217  79.2313719  72.7769661
  85.7198048  97.6383877  56.6071653  85.3478622  96.8961143  56.1307907
  86.1860847  98.1418800  55.9398460  99.5749378  64.8493910  43.4789133
  99.3956089  64.1222668  44.0750360  99.1584969  65.6059122  43.8918161
  67.3654938  58.9347458  59.7128725  67.2577667  58.9700079  60.6633377
  68.0648375  58.2959652  59.5746231  84.6045494  78.6072683  68.9166451
  84.2272091  78.1395483  68.1716013  85.2831554  78.0199003  69.2494059
  87.8372860  99.6288776  73.1708956  88.5912704  99.0413189  73.2210398
  88.2121277 100.5064583  73.2455492  81.4188480  76.1774588  95.0423622
  81.7743111  75.3970289  94.6171570  82.1010685  76.8402910  94.9352932
  88.6613083  80.8706951  63.5523224  89.4200897  80.6225204  64.0804195
  87.9717731  80.2650738  63.8243341  89.0457439  65.1342726  81.1895180
  89.7208118  64.4562578  81.1610794  89.4982815  65.9342051  80.9220314
  77.2601080 100.1430416  68.7879276  77.1020508 100.9395695  68.2811689
  76.4706278  99.6171379  68.6599493 103.4522152  74.0280151  54.6119308
 104.0261555  73.4393406  55.1021194 103.6022377  74.8889446  55.0024748
  67.0371199  88.6309814  31.3510013  67.9871607  88.5246277  31.3994741
  66.7700529  88.0693340  30.6233621  97.7903175  83.0520153  55.7102108
  97.6450634  83.1351566  56.6526651  96.9928455  82.6377487  55.3805828
  70.2293968  90.6676483  59.2972755  70.8377457  91.0305214  59.9410677
  69.3635941  90.8060837  59.6812773  74.9568796  76.8248415  43.3411360
  75.2959061  76.5427351  44.1906691  75.1107264  77.7694368  43.3235502
  88.0237579  64.2522335  70.8151579  87.8059006  63.3243990  70.9040165
  87.5746250  64.5282650  70.0162125  67.6726103  90.8834648  60.2843714
  67.2147131  91.3148212  61.0058212  67.0934057  90.9973907  59.5308590
  86.5179348  72.2986078  40.6090736  86.6077232  72.5503254  39.6899438
  87.0035076  71.4768505  40.6808949 110.1981258  50.5328846  46.7713928
 110.6186676  50.4267025  45.9181023 110.2705574  49.6717119  47.1829319
 115.9093952  77.7943182   4.1857472 115.4228497  78.1292439   4.9389628
 115.2936268  77.2099972   3.7434399  85.9427929  80.7407093  52.0342207
  86.5119362  80.0056648  51.8061256  85.0567150  80.4166031  51.8727922
  73.7012100  93.6857033  84.0684795  72.8225613  93.5522366  84.4239998
  74.2799330  93.2385349  84.6860218  98.0997658 101.3679981  80.0320244
  97.5882053 101.6461277  80.7917500  98.0466175 100.4123497  80.0443172
  95.6518173  68.4557724  75.6754112  96.5426636  68.2138920  75.4222059
  95.4069614  69.1464520  75.0595903  99.0824223  66.2999964  64.0586519
  99.1117382  65.9934711  64.9649668  99.8460865  66.8708658  63.9740658
  83.0742264  48.5981607  59.5804071  83.8934422  48.1044054  59.6169138
  82.4562359  48.0055094  59.1525269  75.8416748  67.9899454  76.0332108
  75.7770967  68.9311314  76.1951685  76.4670324  67.9132652  75.3126001
  85.2398682  65.5963421  58.9676285  85.1447010  65.8145952  58.0405140
  84.5664692  66.1161947  59.4064140   2.6121478  85.1249409  71.5639162
   3.2916693  84.4595528  71.6723013   3.0837207  85.9570980  71.6008902
 114.7249985 101.3814354  65.6424761 114.9852371 100.4653931  65.7392693
 113.9032936 101.4496517  66.1286688 107.7241516  45.9187603  92.3392296
 108.4106827  46.5816832  92.2654533 107.2439480  46.1584377  93.1318092
  66.4465475  79.7761869  44.5326090  66.7988634  80.4553890  43.9574671
  66.2862253  80.2248192  45.3628206 104.1381454  66.9591475  41.6900969
 103.7810993  66.1113024  41.9544983 104.7007084  67.2200346  42.4192715
  85.2731705  98.2079411  26.7032647  86.1696720  98.2009983  26.3679123
  85.0154305  99.1294575  26.6788459 106.3122940  51.3334036  67.3176432
 105.8701324  50.7827806  66.6714668 106.7503071  52.0076132  66.7982101
  65.0323534  88.1724072  69.5768976  64.1760302  87.7456856  69.6061230
  65.0711203  88.6870861  70.3830242 105.2858067  88.8183498  38.8082504
 104.8969936  88.1060505  39.3158793 105.0037670  89.6147823  39.2581248
  66.7507172  84.5545959  53.0733681  67.5365782  84.7814083  53.5705757
  67.0353842  84.5608234  52.1595001 111.0107994  51.6563034  42.2015095
 110.5204678  52.4606514  42.3713064 111.6286755  51.8938828  41.5101242
  87.9099655 111.0573006  72.7173758  87.5561237 111.2935734  73.5748148
  88.0197811 111.8935966  72.2648573 107.8633213  78.2174063  77.2689438
 108.1040668  79.1396475  77.3569441 107.5269890  77.9743099  78.1315088
  91.9606495  83.5692120  51.3390636  91.5458584  83.6716652  50.4825115
  91.3938332  82.9567623  51.8079472  80.8936310  54.2496443  54.0506029
  81.4148521  53.4468746  54.0396976  81.4004421  54.8569775  54.5896006
  68.9573383  75.7057381  45.0362921  69.7175741  75.2725935  44.6481466
  69.2367983  75.9301853  45.9238482  14.6332125  43.2654619  60.1172686
  14.2875151  44.1496420  60.2395487  13.9247947  42.6894522  60.4046392
  64.9687290 109.3297577  81.5898418  65.5788326 109.9716282  81.2265110
  64.2001200 109.8435402  81.8378448  74.6624804  62.0656538  50.1686382
  74.4412184  61.7750597  51.0534143  75.0623703  62.9264879  50.2922535
  94.1172218  61.2531948  63.1835270  93.4057236  61.7770290  63.5517788
  93.7784481  60.3579569  63.1798887 110.1651287  47.0818138  46.9869757
 109.5740891  47.3037958  47.7064371 109.6002579  47.0470619  46.2150002
  90.8482265  65.5072975  54.4530344  91.6326523  65.4466057  53.9078522
  90.1271725  65.2977562  53.8594055  79.8797083  73.6204433  88.0856991
  80.1061344  74.5422888  87.9625416  80.1964951  73.1879902  87.2926903
  87.2226048 102.3067760  39.1805816  86.9916534 103.2351971  39.1500735
  88.1663132 102.2893620  39.0213656  31.6489809  48.7232739   1.7823956
  31.6896170  49.6437413   2.0418617  31.4317339  48.7464959   0.8504555
  94.0504742  45.7723141  55.2680492  93.5263062  46.0772181  54.5274305
  94.8955822  45.5394316  54.8836136  79.9065971  77.6645374  39.7427559
  80.2693939  76.9755125  40.2994013  79.3276453  78.1602430  40.3218222
  92.3402214  77.6249456  67.6487780  92.0032692  76.7848921  67.3373032
  93.0361462  77.3910046  68.2629395  15.7011734   0.5010371  50.8815765
  14.8136937   0.1469474  50.9383869  16.0985314   0.2880530  51.7259550
  80.1803780  97.3777294  41.4981079  80.3096867  98.2027531  41.9659185
  80.9779072  97.2685146  40.9801865  75.0888634  37.7744627  47.5889063
  74.3016577  37.6625228  47.0559740  75.0161743  38.6619568  47.9400492
  80.8675289  62.2307873  61.2737465  81.5258026  62.3777819  61.9529343
  80.0310898  62.3798990  61.7146158 104.8060417  67.4187660  66.9098186
 105.5595398  67.3014832  66.3312674 105.0056648  68.2132339  67.4050045
  64.4116306  97.3085976  65.5386257  65.1959085  96.7600346  65.5533409
  63.8844204  96.9924641  66.2723398  85.7803822  49.0582657  54.5721388
  86.5816212  49.5783901  54.5111704  85.4951859  48.9504671  53.6647940
 115.5413151  74.4336939  79.8580933 115.8590031  75.0518227  80.5162907
 115.6391048  73.5748100  80.2691746  85.1014709  71.7275667  76.7520380
  85.8099270  71.7697573  76.1097431  84.3057442  71.8754959  76.2410021
  72.5783587  47.2828913  54.8068666  73.0545902  46.4921093  54.5536947
  72.2827196  47.6600456  53.9782572  36.8863010  98.7953758  76.9773197
  36.5206933  98.1340790  77.5649023  36.7810702  98.4225178  76.1020327
  65.1989794  61.6884041  58.9135790  64.7665787  62.5420856  58.9356804
  64.7262859  61.1636972  59.5597029 112.6096249  98.0650997  52.5968981
 113.4972191  97.7093983  52.5535393 112.7322865  98.9892960  52.8137970
  24.2380749  96.2970640   1.4721272  23.5598027  95.6531431   1.6759369
  23.8322293  97.1419956   1.6660664  81.6562080  53.4412241  38.5647321
  81.3426876  53.3776617  37.6625705  81.9074249  54.3592072  38.6668777
  79.6869659  72.4944305  54.6967077  80.4258728  72.9917479  54.3461037
  79.8277760  71.6017771  54.3811655  79.8039007  71.6506720  40.6659746
  79.9363661  72.4990463  40.2429485  78.8545370  71.5774870  40.7638788
 107.5852585 104.0497589  91.0324383 107.7698040 104.9569035  90.7889843
 108.4407902 103.6827374  91.2551022  79.2715502  65.3307819  60.7080841
  79.5814514  64.4251394  60.7068300  78.3498573  65.2681875  60.9586811
 106.2522030  55.0158930  39.4059801 105.8772278  55.2259588  40.2612591
 105.6443501  55.4034328  38.7762451 107.7728271  37.4098229  62.8550482
 107.4087524  36.5655398  63.1212568 107.1968937  37.7077079  62.1509171
  59.3146706  86.2251854  60.7574606  60.0343657  85.7858181  61.2104750
  59.5479107  87.1532440  60.7809496  67.7834511  79.9739599  62.0119810
  67.7066040  79.7333622  62.9352570  66.8935919  80.2118111  61.7515850
  80.1367855  83.5060883  71.5772486  79.4384480  83.8518047  72.1331549
  80.2426243  84.1630840  70.8892155  18.1032055  10.9617812   3.1019375
  18.9837044  10.9363419   2.7273533  17.7515333  11.8094165   2.8297684
  95.8565044 109.2172146  36.8760800  96.5057945 109.4882774  36.2270951
  95.2637959 109.9653053  36.9488120  93.6882210  98.6021614  63.9944792
  93.1501198  99.3000603  63.6208344  94.0993309  98.1852245  63.2372522
  64.9769211  75.6603861  83.6451912  65.6014538  75.6165075  84.3692493
  65.5126429  75.5493546  82.8597546 116.2256050  80.4306984  50.0020266
 116.8546581  81.0724735  49.6723938 116.4261150  80.3561401  50.9350157
  99.9250221  56.9220543  34.7708917 100.6286430  57.0405054  35.4089499
  99.1206551  57.0229626  35.2798605  80.4399204  89.1129875  50.1745558
  81.1082458  89.6051311  50.6513882  79.9650097  89.7766972  49.6743727
 104.7330952  82.5713444  52.0083284 104.1609764  81.9205761  51.6016293
 105.6069756  82.1833134  51.9636250  79.4843054  10.5476880  37.8265595
  79.3217754  10.0220215  38.6098170  80.4301167  10.6948757  37.8289008
 111.7961407  93.0191135  58.9737034 111.0436344  93.2347584  59.5245838
 112.4045563  93.7465191  59.1038895  92.8196335  69.2777109  57.7409315
  92.5339699  70.1094007  57.3628855  92.0316792  68.9156437  58.1462288
 107.7850246  58.0715418  75.5266523 108.0534554  57.3297071  76.0687351
 107.2919083  57.6766682  74.8075247 110.9520340  63.0751467  83.5027313
 110.8726501  63.9332533  83.0860901 110.7030678  62.4530554  82.8191757
  69.8168325  67.5213289  40.7997084  69.4405746  66.7445612  40.3858376
  70.1055622  67.2180128  41.6604424 112.3057747  53.8327408  54.3425989
 112.8469849  54.5255184  53.9639425 111.5453911  53.7793779  53.7636232
  98.0391693  64.0944242  53.0059290  98.8288498  64.3914938  53.4580183
  98.2255459  64.2390299  52.0782471 107.0810223  91.4685726  63.9693689
 107.9834747  91.6764355  63.7272930 106.5548611  92.1344566  63.5266829
  77.3926544  44.9022198  58.3127117  77.8785372  44.3573236  58.9317799
  76.5177917  44.9760532  58.6940145  73.8319206  52.7701139  60.7170296
  74.6298599  53.2859278  60.8330536  73.9577293  52.3187876  59.8823404
  85.9700203  47.4793673  40.0933933  86.7896843  47.0576763  40.3513575
  85.8240128  48.1483793  40.7622242  79.7660255  86.0912228  96.4850044
  79.8827839  86.6498947  95.7165813  79.0050888  85.5500984  96.2743187
  48.6285054   9.0185790  56.2896013  47.8236615   9.4301467  56.6043663
  48.6245095   9.1758304  55.3454161  87.6723003  67.9672432  56.6072321
  88.4091663  68.0037498  55.9973812  87.0068264  68.5310125  56.2128448
  93.2522106  59.5880890  66.4369249  94.1198921  59.2284966  66.2524176
  92.7967358  59.5582962  65.5955601 111.4979267  96.9105434  71.8292141
 111.5645885  97.0766640  70.8889008 111.2939548  95.9775639  71.8937445
  85.4532146  67.5656796  93.4564877  86.1106777  68.1549931  93.8261986
  84.8793030  68.1370640  92.9462147  77.2623014  47.3915052  45.7206917
  77.0286369  46.7088461  45.0917196  78.0155706  47.0353889  46.1918640
   1.0834651  57.8193188  52.6450920   1.7139869  57.8560591  53.3643389
   0.3699736  58.3939695  52.9224682  97.2680092  85.7928371  37.0744061
  98.1994534  85.7285309  36.8634248  96.8911839  84.9764156  36.7462420
  85.1550961  78.9122009  42.9637289  84.8189354  79.2935896  43.7747574
  84.5750427  79.2504597  42.2815609  74.4394445  43.7559080  33.3330917
  74.7388458  44.6302652  33.5822749  73.8399029  43.9072371  32.6024199
  85.9633064  77.1065474  55.0175953  85.8306313  76.1792421  55.2143955
  86.9053364  77.1873283  54.8683262  80.5776024  94.1285229  24.3491745
  80.1674747  93.6286831  23.6433458  81.0764694  93.4787273  24.8442745
  89.9172497 107.2091007  43.9213324  89.6993732 108.1149483  44.1408682
  89.0946770 106.8345261  43.6062288  97.1807957  60.4430485  82.2051334
  96.3517094  60.0040102  82.3951244  96.9618416  61.0874319  81.5320396
  76.2679720  94.1050339  45.9842205  75.9412384  94.8219585  46.5278244
  77.2038507  94.0628338  46.1806488  97.2298622  80.4937077  71.8914175
  96.3043213  80.6346893  72.0907497  97.2311974  79.7832108  71.2499905
  93.9990902  64.9625683  66.5959454  94.9478817  64.9065828  66.4823389
  93.7102890  64.0516329  66.6508818  81.0965538  95.7924843  73.1582832
  81.4985180  95.8396339  72.2908497  80.8425808  94.8746777  73.2550097
  94.4146824  87.9131794  76.7728329  93.6032200  87.4822712  77.0412922
  94.1292953  88.6286068  76.2045479  94.5911694  66.4062357  58.5593891
  94.7174644  66.9713545  57.7972078  94.5813560  65.5188704  58.2006264
  56.8919485  16.5847594  12.7885029  56.1644285  16.8136699  12.2100994
  57.5220221  17.2961718  12.6739189  84.3015957  80.9972954  63.2949257
  83.5533333  80.6547165  62.8060722  84.6551323  81.6902256  62.7371693
  67.9770994  76.1793566  62.3933077  67.5692177  75.5206156  62.9553795
  68.6104679  76.6191387  62.9604626  90.4088879  44.3976068  37.9776359
  90.8677959  43.6052895  38.2566881  91.0801411  44.9219465  37.5409269
 104.9555206  92.4484730  73.0788803 104.0000248  92.4042416  73.1149721
 105.2344990  91.5366745  72.9950190  87.6234436  71.3409281  55.0254107
  87.0196724  70.7929754  54.5239782  87.0645809  71.8040609  55.6494427
  86.4487362  37.2119546  56.0626602  86.0235500  37.3929143  56.9009304
  85.8267879  36.6555357  55.5938196  70.0442696  76.2475920  38.4960103
  70.6108189  76.9507933  38.1785798  69.9998856  76.3845015  39.4423294
 107.6752186 103.1701565  70.2040863 107.2329330 103.9196110  69.8054218
 108.5171127 103.5176849  70.4984808  78.2854563  13.2473045  39.9123144
  78.2336313  13.7492900  40.7256746  79.0342409  12.6643996  40.0379086
  80.4084873  69.6219587  86.6093159  80.3081417  69.3452787  85.6984901
  79.5573092  69.4432735  87.0090771   3.5301261  82.2276020  87.8210926
   3.3539729  81.5157509  88.4362793   2.7106147  82.3352623  87.3383427
  22.5331740  93.3920288  35.3079724  21.9560771  92.7181625  35.6672788
  22.1743922  93.5766888  34.4399810 105.7161617  71.7781830  22.3890448
 105.2311707  72.5515747  22.1011639 106.4742565  71.7400885  21.8058896
  83.5917187  90.9963894  40.6015730  82.6931095  91.0039520  40.2718878
  84.1119862  91.3643551  39.8873258  64.4062901  84.8734283  57.9704618
  63.6166716  84.9393082  57.4334383  64.6877289  83.9638519  57.8719807
 111.9589901  51.1722851  39.4903135 111.1472321  51.5832520  39.1930246
 111.7833042  50.2325773  39.4421721  83.3573341  54.3976164  47.3143148
  83.3593845  53.4498358  47.1803570  82.4448967  54.6559429  47.1840906
  93.4475136  94.0688324  50.5279589  94.3926525  94.1474438  50.6574297
  93.2052135  93.2764339  51.0071516 101.8288231  72.6743078  83.9510345
 102.5487328  72.8493023  84.5571136 101.1595440  72.2521591  84.4896221
  18.0211514  17.6881224   5.2667877  18.0313318  18.0135114   4.3666527
  17.4080389  16.9532687   5.2489063  84.2960453  70.7466841  62.1057701
  83.4744453  70.3008413  61.8997574  84.0295029  71.5288639  62.5888634
 101.4225578  99.0514374  44.0159893 100.9624672  99.3928623  44.7827816
 102.3503494  99.1441250  44.2324305 107.8428841  76.1310053  33.9555550
 107.1308231  76.5023327  34.4764376 108.0658245  75.3143644  34.4023561
 105.7723904  64.5996618  73.0077744 105.9771538  63.9190149  73.6488867
 106.4085770  65.2930260  73.1831169  99.6140003  72.4287510  75.7694817
  98.7402153  72.2141647  75.4428625 100.2071953  71.9128227  75.2234268
  82.2577000  99.2230415  73.2940245  82.4197102  99.3110371  72.3547459
  82.9772568  99.7004890  73.7069464 103.3251190  51.0167980  66.0040045
 102.7671242  51.2894583  65.2756310 104.1417980  50.7390356  65.5891371
  62.2187185  81.7495823  69.2234993  62.2965097  81.9633961  70.1532650
  62.4007130  80.8109665  69.1775370  90.3959560  73.1986523  27.9396796
  89.7760963  73.8759613  27.6690245  89.8633003  72.5644398  28.4195518
 110.9019852  44.7326994  70.0265217 111.3458824  45.1140833  70.7839727
 110.9731483  43.7872696  70.1581812  68.0512094  83.5320759  86.0217571
  68.7614441  84.0177822  86.4411545  68.2138157  83.6322021  85.0837994
  65.5503511  91.6809654  58.7665033  64.6537209  91.4996624  58.4846973
  65.5387545  92.6028633  59.0238047  88.5880280  73.3666611  62.7537107
  88.7566280  72.8103352  61.9932413  89.3971443  73.8646364  62.8702688
  23.4453743   9.6062381  17.4845764  23.1245297   9.9634225  18.3126518
  24.2906159   9.2143876  17.7042362  76.2232542  70.9475994  75.3614283
  76.3549042  71.8813801  75.1972532  76.8041611  70.5106783  74.7386265
  83.8481617  51.2060070  58.7775517  84.5549011  51.7563105  59.1150713
  83.6871243  50.5691814  59.4737959  24.1087298  63.1705999  34.0530777
  23.2156043  62.8334379  34.1228843  24.6443801  62.3961163  33.8813496
  89.4178391  67.8103161  54.4999313  90.0988483  68.4587622  54.3210840
  89.8976707  66.9996309  54.6695900  99.0756893  97.8740692  47.7082539
  98.2423019  97.4992466  47.9932117  99.4355488  98.2837009  48.4949780
 107.5551987  53.4767389  66.1570501 108.1343842  53.7829685  65.4591894
 107.9128456  53.8679886  66.9540739  81.5554333  89.0913105  62.4698305
  82.2872734  89.7082424  62.4636984  80.9513283  89.4297600  61.8089724
  72.5299931  85.3387260  57.3106194  72.7798176  86.1309624  57.7861977
  71.8308783  85.6231785  56.7219353  72.4568605  72.8104687  41.8421125
  72.7003765  71.8954611  41.7017937  72.1891594  73.1223536  40.9776497
  99.2326927  74.2845488  68.8389444  99.3591785  73.4556293  68.3772898
 100.1084328  74.5273066  69.1395998  78.6451149  46.3161755  25.2310777
  77.7283239  46.5636826  25.1108193  78.6681557  45.3796816  25.0343966
  77.0270634  77.2937346  56.7992973  76.7970228  78.1166935  57.2306299
  76.5076065  77.2913361  55.9953117 114.1198158  59.8788834  82.4807644
 114.0297699  59.3039751  81.7207623 114.0100574  60.7617474  82.1275711
  65.0138950  69.1640615  47.5286055  65.1897955  68.2623720  47.7973890
  64.4160032  69.0802670  46.7858171  88.8370705  55.5900145  54.7722769
  89.1932678  56.4569092  54.9668121  89.4177055  55.2384233  54.0973854
  64.8048735  78.3378410  61.9284344  64.9000835  78.5467291  62.8576994
  64.2031050  77.5936651  61.9106579 102.4947929  38.1374669  96.1480713
 102.0427418  37.4978495  95.5978203 102.1448994  38.9835000  95.8687210
  73.6223984  80.3816700  86.7307568  73.6711264  80.9168911  87.5228310
  74.4105482  80.6105614  86.2381554  70.6795597  66.5297699  54.2757416
  70.4941988  66.2677050  55.1775169  71.5470219  66.9323349  54.3168068
  91.9472599 104.7116947  14.9331295  92.2817898 104.8007298  15.8255386
  92.5645447 105.2076530  14.3953490  73.6837578 102.4641418  31.5247965
  73.1938934 102.5144958  32.3456073  73.6953688 101.5315056  31.3096285
  51.0580557  44.8856026   1.0017559  51.6705530  44.9351270   1.7356655
  50.6484621  44.0249020   1.0892841  87.0056534  88.0443668  67.0012856
  87.2042561  88.8674450  66.5548325  86.7210484  88.3089828  67.8760481
 112.0725632  98.3278084  64.6430826 111.4501476  98.7740993  65.2172327
 112.2250271  97.4827290  65.0659561  85.0251007 107.1967697  66.2664318
  84.3191528 107.7144909  65.8793449  85.8276081 107.6153946  65.9550333
  81.9196033  93.5374832  46.2073469  81.9649792  92.8679562  45.5247784
  82.3924351  93.1572247  46.9476604  86.1881351  88.9784622  82.5341320
  86.4046001  89.8810577  82.7680206  86.8898010  88.7098789  81.9410419
 103.6594105  99.4728374  22.6004362 104.5019436  99.6672153  23.0110240
 103.3058643  98.7451649  23.1120372  91.8769646 107.2794056  47.5415993
  92.4537945 108.0425644  47.5085449  91.0638237 107.5758934  47.1327734
  81.4179611 109.0068436  50.4322100  80.9027195 108.4636974  49.8357725
  80.7726765 109.3854046  51.0293055 114.8885536  79.7641230  41.9606352
 114.1906261  80.4035091  42.1031857 115.6265545  80.0973129  42.4710989
   4.3268447  88.2779217  55.4570961   5.2465110  88.0443954  55.5832481
   4.0208010  88.5257435  56.3295364 104.9854660 108.2937908  86.0646343
 104.6538830 107.6738548  86.7142200 104.4225693 108.1647873  85.3012562
 105.6251621  64.5091820  92.4536705 105.3656101  64.9242544  93.2762146
 105.0442028  64.8940086  91.7974377  79.9773598 104.0949345  50.9185314
  79.1676235 103.9556408  50.4274511  79.9210310 103.4824753  51.6519880
  79.4095087  57.7106333  48.7224627  80.1667881  57.8121948  48.1458855
  78.6538792  57.7673054  48.1376171  92.8822327  87.8120232  60.8623028
  93.3152103  88.6646366  60.9047508  92.0419121  87.9480743  61.3000059
  88.4999943  47.0280361  40.8375645  88.7521744  46.1260509  41.0351944
  89.0155888  47.2569275  40.0642586  69.6063757  75.9638786  68.2874060
  69.8346996  75.1056576  67.9302597  68.6531687  75.9422112  68.3720112
  91.2781239  81.1785030  47.9909801  92.1610641  81.5337563  47.8887510
  91.3022995  80.3402710  47.5294447   9.4063317  21.5283160  77.6325655
   8.9396798  21.1742168  78.3895874  10.2385079  21.0554557  77.6215219
  30.4750382  21.0924773  62.3662663  31.0879647  21.8066650  62.1916771
  29.6611725  21.5307098  62.6148701  99.7915173  76.3432169  19.9006128
  99.4193077  76.9487810  19.2595303 100.2409840  76.9072008  20.5300021
  99.9047947  81.1846447  62.0485210  99.4943428  82.0430088  62.1532631
 100.5983257  81.1687088  62.7080631 102.9695606  81.8987465  19.9069953
 103.3269978  81.4761925  19.1260219 102.3191738  81.2793350  20.2380109
  28.6249577   4.9429851  49.3804550  28.9668023   5.4326873  48.6324120
  28.2429444   5.6110149  49.9496889  92.1409321 101.7079258  17.8435493
  92.8505039 101.7153740  17.2011411  92.4507904 102.2755432  18.5492635
  87.0092201  62.4596310  52.2367859  86.3000393  62.2258091  52.8356361
  87.5183105  61.6545391  52.1424913  74.7585821  99.4913578  66.2748909
  75.4112148  98.8340187  66.5161562  74.5235300  99.2755413  65.3724480
  78.5508823  76.4301729  54.7756577  78.2352400  75.6646204  54.2955208
  77.9621315  76.5011406  55.5270338  89.5252895 101.3400650  81.4556885
  89.6113300 101.8249798  80.6349087  89.2881489 100.4527950  81.1859417
 110.8795834  96.4393044  45.9186602 111.4887047  97.1776485  45.9257174
 111.1879730  95.8811951  45.2047729  73.4015751  87.2041893  40.5123234
  73.6801338  87.7270794  39.7605157  72.7057314  86.6434193  40.1694202
 109.4708920  85.5079556  87.0944405 109.5734596  85.9143925  86.2339020
 110.0478745  86.0124207  87.6678848 107.8142101   2.0809798  38.0435991
 107.1396000   1.7065387  37.4770951 108.3991033   2.5453525  37.4448538
  52.3667908  97.4926090  69.1259956  52.9016304  98.0657387  69.6752644
  51.8545532  96.9751358  69.7473335  11.0192828  99.9978542  63.3568048
  10.3917937 100.0241852  62.6344490  11.4580779  99.1524315  63.2622051
  93.6724949  92.2495747  62.3048592  93.3741379  92.7674866  61.5572071
  94.2910957  92.8206825  62.7602673  46.3297211   6.8008285  16.0103881
  45.8707177   6.9623427  15.1860893  47.1857201   7.2126823  15.8925653
  27.0697342  14.3927341  34.4339323  27.0739209  15.2469497  34.0020370
  26.9142758  14.5919089  35.3571844  70.0673819  83.6492729  59.6066284
  69.8811817  82.8911304  60.1604986  71.0188866  83.6420059  59.5026302
 116.4574051  86.8525410  62.8425741 117.0837879  86.6803169  62.1395636
 116.9868851  86.8544006  63.6399937  88.8998985  67.1071005  60.4219198
  88.7892914  67.7611732  61.1119795  89.3073273  66.3611126  60.8620787
  71.9789362  96.2052345  52.2964382  72.2731495  95.6167126  52.9916477
  71.2110186  95.7714653  51.9244480  65.6667137  94.3758774  59.2862463
  64.9052191  94.8247623  59.6534872  66.4177275  94.8688602  59.6166706
  94.6378803 102.7368641  35.2367568  94.3251801 103.4191322  35.8308601
  95.4114532 102.3772907  35.6709528  71.9194174 106.1414337  39.1298747
  71.3479662 105.7661724  38.4599042  71.5181446 106.9840908  39.3423510
  85.2775574 108.4305954  70.9533358  84.5267487 108.0835629  70.4715872
  85.7311344 107.6542377  71.2815905  92.9615974  93.3409405  67.6144886
  92.7800179  94.2723751  67.4892950  92.6976967  92.9325294  66.7899895
   9.7729544  91.9631386  85.4493141   9.5336585  92.8851795  85.3554535
   9.0794329  91.4879227  84.9916935 106.1199760  77.6478338  72.1534252
 105.8562279  78.4442663  72.6142502 106.6085625  77.1447992  72.8049421
  74.5454550 100.1749992  83.9904118  74.9675179  99.5668888  83.3835411
  74.5895100 101.0231590  83.5489178  71.5463209  81.8097782  39.2930603
  70.8087206  81.2930679  38.9687181  71.7812777  82.3783684  38.5597610
  99.3488121  95.7522011  50.6446552  99.6904755  96.2836456  51.3637257
  99.5246792  96.2703800  49.8592901 115.4662037  99.3619633  22.7753711
 115.1307487  98.5603046  22.3740721 116.4180851  99.2760658  22.7225733
  94.8736286  98.0631065  66.4899683  94.3768692  98.1567860  65.6771421
  94.4993687  98.7204647  67.0765162   0.2335315  77.7826452  79.6107912
  -0.3125901  77.6971817  78.8293314   1.1306243  77.7852154  79.2769527
 108.0879402  95.8776188  76.8778658 108.9194679  95.6557560  76.4588547
 107.5974083  96.3469410  76.2030649  39.4333016  26.2739520  38.3545065
  40.2323758  26.0488563  37.8780198  38.7931572  25.6214957  38.0703545
 114.1612053  81.7210960  54.2367268 113.5528183  81.6727066  54.9741220
 113.7540531  82.3399258  53.6305046 101.2386131  92.5636196  44.1837835
 101.1170387  91.9865131  43.4298611 102.0353031  93.0548763  43.9833546
   4.0289437   2.6773219  48.7347937   3.8282620   2.4864535  49.6510506
   3.1779515   2.6697593  48.2966232 102.0386410 103.0378342   7.4441159
 102.1507549 102.2920418   6.8546599 102.7537727 102.9542160   8.0748528
  82.8415394  74.6163034  75.0300932  83.7121010  74.5560360  74.6367502
  82.6595402  73.7311697  75.3457594  69.0617800  75.6942177  20.0853229
  68.9782619  76.4420462  20.6769371  68.2750797  75.7302237  19.5412314
  81.9120502  65.0375462  38.1264472  81.1387730  64.4748974  38.0853415
  82.0756435  65.2866316  37.2168159 103.9980221  94.7024918  51.0024977
 103.6840916  93.8635349  50.6650925 103.9981937  94.5932484  51.9534397
  24.6142518  25.3458362  68.8534021  23.7794148  25.3198867  69.3209648
  24.7450863  26.2715488  68.6480570  90.1114464  87.3130989  43.3661795
  90.9687996  87.1003914  42.9974794  89.4848537  86.9389057  42.7468252
 112.1263313  68.2627153  83.9938736 111.9491959  69.0924978  83.5507965
 111.8273449  68.4023762  84.8923874  16.9367556 104.2046833  38.3186340
  16.5601878 105.0757313  38.1932592  17.5357203 104.0941429  37.5802183
 117.3982143  65.6070709  39.0436435 117.7497578  64.8110485  39.4423866
 116.4660835  65.5922031  39.2607951  17.8239112 110.7036114  59.0176058
  16.9609694 110.7632923  58.6077309  17.7059512 110.0804806  59.7345591
 102.2846127  92.5039196  68.9221764 101.7137718  93.1852150  69.2774487
 102.9155350  92.3315907  69.6210814  91.3288879  69.3169832  63.9017057
  91.9095516  68.7273598  64.3827677  91.8703461  70.0827122  63.7101030
  83.7113285 100.5921173  43.4413958  83.8355541 101.4632988  43.0647659
  83.8531113 100.7145596  44.3800879  98.4057903  65.5339527  57.1640825
  97.7528477  65.9329462  56.5890169  99.2425728  65.7070303  56.7327309
  11.5749775   0.4625468  64.2010641  11.0504185  -0.3364797  64.1498756
  11.1431824   1.0713344  63.6017609 100.0786018  77.8647614  44.0442133
  99.5632744  78.0733585  43.2650089 100.0696659  78.6709499  44.5601702
 106.0492039  91.3304806  59.1610479 106.5611744  92.1390629  59.1789722
 105.7667065  91.2057304  60.0670671 111.2194157  72.7710342  78.1574631
 111.5657806  73.4371996  78.7511730 111.1119175  73.2268047  77.3226309
  21.1896073   3.2249885  46.7095184  20.5588566   3.7641292  47.1867037
  20.8804356   3.2397227  45.8037472 105.1871092   2.9674010  79.2188692
 105.5890209   2.1341567  79.4646406 105.7928116   3.3469157  78.5822105
 105.2863598  97.4633121  76.2338686 105.1035786  97.6852417  77.1468687
 104.9993134  96.5543747  76.1462355  91.7356300  82.5282955  84.1885567
  91.1292553  82.6390266  84.9208736  92.1496391  81.6798592  84.3465996
 116.0036087  77.1717358  40.4119873 115.2166557  76.8263817  40.8335018
 116.2175369  77.9590607  40.9125614  42.2458683   8.6862807  38.2851815
  42.3670899   7.8808265  37.7824092  42.2521912   9.3821292  37.6279259
  95.2675629  78.8602829  42.2013187  95.2254581  78.5326433  43.0997086
  96.0242558  78.4155512  41.8194008  14.7210633  20.8521800  58.4608316
  14.9058377  21.7910533  58.4853220  15.5661522  20.4467445  58.2667017
 112.8936577  95.2866459  52.0459414 112.7162838  96.2150288  51.8946934
 112.5152874  95.1076508  52.9067707 103.1894016  89.2952919  60.6337261
 102.2822857  89.2606354  60.9373236 103.6992264  89.4786835  61.4228249
  45.1359003  50.5569989   5.3641960  45.5705088  51.0981423   4.7050163
  45.0039595  51.1451108   6.1077950 102.7624893 100.5995846  80.1579762
 102.2469616 100.5788708  80.9642220 103.6689568 100.5058479  80.4508305
  54.8686236  16.0055405   4.8937771  54.6821802  15.0668485   4.8754856
  55.3236120  16.1754853   4.0689537  14.8734318  44.7973685  48.8050222
  15.3679215  43.9780288  48.7854338  14.8155915  45.0200610  49.7341585
 108.8113529  15.9460216  76.0068798 109.6662599  15.8142333  75.5970049
 108.5846359  16.8530707  75.8017015   9.5871769   9.3662696  78.3736229
  10.2867924   8.7143283  78.4154701   8.7805497   8.8512092  78.3564138
 100.8295441  90.4795361  12.2863722 101.6627979  90.6499481  11.8471825
 100.1682091  90.8298206  11.6895819  86.6951847 100.7863903  62.7754116
  86.9274616 101.6691399  62.4872446  86.0075474 100.9205246  63.4276295
  91.4136219  79.1499043  96.1671543  90.5549622  79.1223526  95.7450390
  91.2191486  79.1801453  97.1039009  73.2622671 104.0512848  46.9616461
  72.4720478 103.5704899  46.7154360  72.9373026 104.8662281  47.3443985
 113.1151009  83.9016247  52.6064348 112.3055077  84.1022778  52.1368217
 113.7197685  84.5978069  52.3496532  33.2176529   3.3991962  37.2508693
  32.8460061   3.9373164  36.5519142  33.7400853   2.7401786  36.7937160
  51.8346917   2.4488502  50.8636045  51.2991272   2.8248744  50.1650238
  51.7478882   1.5025096  50.7489395 105.8741188  98.5860920  48.3191681
 106.5287685  98.0242729  47.9044199 105.6832695  98.1562996  49.1528893
  73.2707787  57.8190756  46.9475126  73.0171919  56.9374609  47.2207928
  73.5030937  58.2648087  47.7621222  56.0255848  13.0295329  76.8061113
  55.1257359  12.8010516  76.5730906  56.4344822  12.1936660  77.0305061
  38.4718834  35.2522807  62.4468136  38.6682545  36.1890369  62.4346209
  38.7212311  34.9439292  61.5756226   2.7662043 104.8895550  58.1387615
   3.6304908 104.7605610  57.7481079   2.8399424 104.5096111  59.0142250
  12.3593383  94.6592903  51.8282747  12.1470027  95.0946140  51.0026550
  11.8727069  95.1505566  52.4901390  55.4390942   3.8495212  50.1948452
  54.7336613   4.0404372  50.8130217  56.2412869   3.9602428  50.7052040
  75.7187891  80.1600933  31.4383197  76.0204363  79.4012690  30.9388924
  76.1606693  80.0814342  32.2837687  35.5826127   4.7720866  68.7788868
  34.9613320   5.4637103  69.0067291  35.7025944   4.8598819  67.8333044
 101.0811710  77.3227215  29.4758987 101.2042332  76.9075394  30.3295445
 100.9703922  76.5918303  28.8678193  92.9182053  81.5102768  43.7667704
  93.2708836  82.1438217  44.3916464  92.7876186  80.7137012  44.2812109
   7.2855525 106.0871220  50.2423573   8.0278926 105.6963444  50.7032824
   7.3279528 107.0170784  50.4651117 113.2397175  58.4049606  54.3641663
 113.3595753  58.0976582  53.4655952 112.2957325  58.3490658  54.5125008
 102.7718639 106.6750431   8.2420230 101.9872952 106.5648556   7.7048647
 103.4726620 106.8403530   7.6113254  73.3705187  82.7149677  83.9927483
  73.6135721  83.1733608  84.7971344  73.4296274  83.3826256  83.3093929
 108.1321239 107.4473667  93.1980801 107.8191471 107.6644325  94.0762424
 108.7161255 106.7004871  93.3297539  76.0130835  57.7218056  56.2990284
  76.7553806  57.2615480  56.6906786  76.3919735  58.5226774  55.9367132
  74.8463964 103.1554222  60.6509972  74.4641972 103.7271023  61.3168383
  75.7794857 103.3687592  60.6591177 105.1611805  78.2958031  30.1385403
 104.7667885  77.6784611  30.7546377 104.4250011  78.8157320  29.8161364
  93.8819027  84.9743557  36.7582202  94.6292591  84.4141579  36.5487719
  94.1332531  85.8396721  36.4353037 103.8548660  77.1510553  65.4467535
 103.5213089  76.3738966  65.8950710 103.7442398  76.9566488  64.5160580
 107.4041271  79.9709272  69.2048454 107.0737553  79.2930555  68.6152840
 108.3383942  79.7804928  69.2891312  94.2409515  73.3690596  49.0973377
  95.1744843  73.1592512  49.0703917  94.2088795  74.2826366  49.3812037
  99.4713020  83.2809925  80.9111500 100.0624084  82.5639915  81.1407757
  98.6265469  82.8564262  80.7615852  85.5882931  76.1444044  48.7472200
  85.6866550  76.5844059  47.9028511  84.6991062  75.7904243  48.7306976
  99.1563320  72.2271061  56.4593124  98.9450169  73.1594515  56.4112520
  99.7005081  72.1449184  57.2424841  17.9741990  11.6896491  65.8146858
  18.2538067  10.8129554  65.5511045  17.5240647  11.5567737  66.6489267
 115.4817200 105.4221439  77.4641037 115.2972317 104.4866276  77.5477791
 114.8378944 105.7374382  76.8298244  61.1775160  71.6235399  81.9677639
  60.6596518  71.8097782  81.1845875  61.8109655  72.3397923  82.0119572
  86.6439533 103.9062691  75.4405737  86.7593575 103.5940552  74.5431137
  86.7840481 104.8515415  75.3851986  79.6497250  93.6629295  73.5567951
  78.9670706  94.3069649  73.7450266  79.2186880  92.8161716  73.6727428
 100.9199142 104.7684765  39.2696309 101.6662788 105.3676796  39.2808270
 100.8093739 104.5064831  40.1836157  93.8257027  96.8274021  51.6539288
  93.9921093  95.9290695  51.3683748  93.5410404  96.7406940  52.5636959
 108.7304115  64.4988680  60.2362823 109.1413307  63.7790775  59.7574472
 108.4496975  64.1069937  61.0632420   0.3109412  44.4068050  45.6834602
   0.8906512  45.0712347  46.0558891  -0.5632444  44.7925282  45.7404613
   4.0106444  85.1499367  59.8562145   3.5063128  84.4212723  59.4943857
   4.5054393  85.4918671  59.1115761 100.9043980  86.2971973  62.9098892
 100.2232647  85.6623363  63.1317711 100.7876205  87.0050621  63.5435438
   0.1541095 102.8411388  48.4279680  -0.4380651 103.2716465  47.8113413
   0.6067138 102.1803761  47.9037857  15.1849322  99.8964024  61.8549871
  14.7862677  99.3212605  61.2019062  14.8055987  99.6132469  62.6869488
  94.2815399 102.3914719  61.7686558  95.2361870 102.4472332  61.7265081
  94.0015316 102.3820972  60.8533764 110.5446529 105.3245640  45.3999662
 109.6540546 105.0013447  45.2635908 110.4451275 106.2729168  45.4833364
  67.4421072  79.3855000  41.2807703  68.0674791  78.8663864  41.7863989
  66.7855310  78.7526989  40.9897375  65.4400492  85.5975437  45.8201075
  66.1876965  86.1905289  45.7451248  65.5943203  84.9316788  45.1499891
  80.8736992  64.4200897  48.8458681  81.2519073  64.9303150  48.1297207
  81.3149548  63.5721874  48.7949276  19.8224311  90.8677006  18.2720637
  19.6149878  90.2401733  18.9644551  20.6284385  91.2916851  18.5667086
  92.7926350  87.3277855  68.0408955  92.5952148  86.4786339  68.4361219
  93.7443829  87.3290443  67.9389286  94.2037868  87.7084064  71.3580799
  94.8450661  88.4188366  71.3752842  93.3643532  88.1395435  71.5183926
  18.4868865  92.8812599  55.1859808  17.9774718  92.0775604  55.2898788
  18.1166415  93.4845066  55.8303785   9.8684727   0.9862857  54.2544413
  10.7401024   1.2000041  53.9215612   9.4368683   0.5395274  53.5261822
  92.0122051 100.6034946  62.3776531  92.8870583 100.7936954  62.0390034
  91.4668274 100.5149651  61.5960169 100.7843208  72.1086550  58.8454628
 101.5342522  71.5365458  58.6825943 100.1498318  71.5499115  59.2943048
 117.2432518  67.1001482  33.8323140 117.6383114  66.8187714  34.6575332
 116.4270496  66.6032982  33.7758303   7.2169625   5.8576923  64.7425508
   6.4806115   5.5790382  65.2869558   7.5980889   6.5974288  65.2155828
   1.1409890   0.9501224  68.1032610   0.5692088   1.3309627  68.7697935
   0.6173502   0.2528434  67.7085114  99.0330505  86.4405823  70.5794764
  98.9906883  86.0988045  71.4725733  98.4044933  85.9100342  70.0899172
 114.9134237  22.1056800  56.0347080 115.1933176  21.3083987  56.4843988
 115.3942138  22.0952182  55.2070808  65.4686308 103.2780933  48.9253569
  65.9678125 103.1518555  48.1184387  65.3990602 102.4015331  49.3035650
   2.2715031   5.9367423  48.5276842   2.0949112   6.8735271  48.6142349
   2.4088799   5.8045726  47.5896597  25.0106751   3.0650096  63.5091352
  25.0027691   3.6873298  64.2363834  25.8957135   3.1275993  63.1499529
 116.5760612  82.8110123  87.6786327 116.5171242  82.3561192  88.5187721
 115.9866047  83.5596561  87.7697659 109.0118122  66.7319155  66.7949343
 109.4754505  66.8030787  67.6293230 108.6544895  67.6070118  66.6440821
  92.2217274  51.1473465  46.1098909  91.9505882  51.8488884  46.7019701
  92.3336124  51.5787411  45.2627707 115.1778221  97.2664356  70.8919001
 115.5144310  97.8949070  70.2531958 114.7253227  96.6080952  70.3645754
  95.1239204  78.2751369  44.6502161  95.3938389  78.4761381  45.5463028
  94.1839218  78.4553099  44.6370935  91.8305111  99.8799229  44.9732828
  92.2382259  99.7740269  45.8328152  91.6076565  98.9892673  44.7025394
  92.8721714  68.6458874  72.9998350  92.3020935  68.4304571  72.2617054
  92.8946495  69.6027231  73.0138111  42.0746266   3.8516383  35.7687068
  41.3606297   3.7323337  35.1424384  41.6697632   3.7069564  36.6239190
 101.0081768  54.7465277  74.4692993 101.8361282  55.0379372  74.8511505
 100.7526588  53.9914322  74.9991751  89.0782642  75.4907370  73.1198215
  89.8219109  75.9759569  73.4773016  89.2847824  74.5726538  73.2950401
  88.2730293  94.7012806  61.7745161  89.1888523  94.7315121  62.0512581
  87.9627228  95.6012344  61.8746567  23.9152085   3.4180312  51.2242651
  24.6534382   2.8586536  50.9827185  23.1466710   2.9612975  50.8822584
   1.3173632  94.4710827  55.2593756   1.1514811  93.9735985  54.4586134
   1.8880229  95.1878357  54.9821663  20.1355319  74.3938351  31.7734599
  20.9713130  74.1494656  31.3759804  19.4771247  73.9509964  31.2380838
 118.0554676  83.8772202  50.5731821 117.6834297  84.1826153  51.4005613
 118.2412052  84.6786213  50.0838041  11.3091521  81.6929626  63.6403322
  11.3603167  81.4701462  62.7108335  10.4199557  81.4483166  63.8966751
  17.4071936  86.3969231  58.2238817  17.1186404  86.7522812  57.3832321
  17.4091582  85.4484463  58.0949783 106.6657639  71.9486761  30.5137086
 106.7924213  72.8877831  30.6488729 107.0107841  71.7843342  29.6361065
 109.4019699  73.8903904  80.6958675 109.0773869  74.1767883  81.5495872
 109.1360283  72.9729605  80.6339741 117.3013878  85.1760769  90.0397587
 118.2559299  85.1976967  89.9717903 117.1272087  85.2181721  90.9800434
  96.3507462  53.2719564  60.8092117  95.4131603  53.4550285  60.8695412
  96.6602612  53.3065319  61.7143297 114.7019482  84.0341282  57.3510027
 114.1767311  83.5348034  57.9763508 114.1909027  84.8269463  57.1882200
   0.5954509 108.1766033  32.3598742   0.6474833 109.1097736  32.5665712
   0.7463221 107.7371407  33.1967425  57.0380592  83.4430790  52.4234009
  56.6156578  84.1763878  51.9761181  57.1809196  83.7572956  53.3162022
  75.1339722  61.3439322  65.7569504  75.8826256  60.7494545  65.7085276
  75.5201101  62.2189617  65.7188797  74.5871925  94.6354866  35.6553388
  74.6613598  94.8309803  36.5894222  75.1783848  95.2583885  35.2325916
  54.6448135  90.1748753  76.0932875  54.2821503  89.5566273  75.4588842
  54.9543285  90.9088230  75.5624771   0.3029971  68.0320597  51.0412121
  -0.0330777  68.9188480  50.9112692   1.2531905  68.1397867  51.0831833
  51.0254622  79.1019106  65.7091379  51.1979055  79.1262197  64.7679138
  50.1824665  78.6551809  65.7867289  95.1780987  70.8618879  72.0729923
  95.7114887  71.3683271  72.6855659  94.9359131  71.4887524  71.3913631
 101.7310238  72.3517132  87.8260612 101.5007877  71.9076872  87.0099354
 102.6670837  72.1835279  87.9343987  97.8521633 110.2173615  71.6796827
  96.9933701 110.5661583  71.9185162  98.4621906 110.9289074  71.8741417
  72.0676804  89.3988609  86.9287777  72.3643208  89.1909790  86.0427666
  71.1964464  89.7762585  86.8072891 105.7492065 104.3220997  75.5808878
 106.5008068 103.8806057  75.1853991 106.1035728 105.1467705  75.9134150
  81.3295954  19.3837792   9.8003552  81.1811465  20.1320226  10.3785679
  80.8209151  19.5837075   9.0145466  68.6857510  80.0200844  77.7231312
  68.2516289  79.7132015  78.5191154  69.1865587  79.2640686  77.4167681
 116.7600042   3.4979396  55.3915071 116.7887813   4.4014030  55.0766134
 115.9884388   3.1212764  54.9683809   9.3348841  92.3637867  54.3777609
  10.1696543  92.5844288  53.9646006   9.3140464  91.4068127  54.3794918
  80.0664234  86.4020920  32.8429818  80.7992554  85.7907295  32.9166031
  80.4214478  87.1436214  32.3527527  76.6720200  69.9534607  59.5653915
  76.8160725  70.0579071  60.5059099  77.4475336  70.3411579  59.1597986
  24.3782841  13.9377551  44.5500851  23.4895455  13.9158206  44.9049044
  24.5426785  13.0404239  44.2602587  99.4867897  99.8085308  45.6338930
  98.8619328 100.5316544  45.5801821  99.1258717  99.2294884  46.3052177
  16.0919051  83.6835194  60.5103207  16.4667563  83.3241272  61.3144064
  16.8294291  83.7294102  59.9018955  67.5530481 106.2500286  39.7889686
  68.2147551 106.5049171  39.1459990  67.1384764 107.0737934  40.0454330
  83.4474468  65.8677292  53.7265587  83.0577755  66.7415953  53.6990833
  82.9912281  65.3803778  53.0405617 103.3930779  59.6101570  66.6669464
 103.7111378  60.4779196  66.4178324 103.0963898  59.7142458  67.5710344
  64.0452862  40.2544928  45.9826422  63.5944700  40.4289198  45.1564646
  64.5882654  41.0293722  46.1274433 116.4464647  35.8373504  18.5118556
 115.5085165  35.7871871  18.6961567 116.5120250  35.7064395  17.5659180
  88.6115265  75.2713728  60.3517914  89.5642662  75.1918697  60.3985834
  88.2887650  74.6947575  61.0443068  76.2871599 100.1652145  57.3780870
  76.3885498  99.7845173  58.2504559  75.5223417  99.7220612  57.0107889
 107.1839428  60.9173059  68.8699913 107.2116947  60.5453205  67.9884624
 106.7488861  60.2483654  69.3986464 107.4249649  99.5546246  75.8149862
 106.7742634  99.4771862  75.1172590 107.0048141  99.1600704  76.5791988
  33.9445817   1.2798648  60.2958298  34.5348679   1.0620551  59.5744753
  34.3784176   0.9303432  61.0741949 117.8394729   6.9041114  36.6401410
 117.6800806   6.7144637  35.7155514 118.5150797   6.2778335  36.9000864
  82.9848974  89.5526559   7.4989578  82.2681635  88.9220578   7.4290916
  83.3862608  89.3660027   8.3476612  38.6907422  40.9418731  72.8094292
  38.5928093  41.3214641  71.9361877  39.1756093  40.1293998  72.6644230
  30.2153718  34.2015605  67.2071457  29.5674359  33.6734920  67.6735687
  30.5564820  33.6183124  66.5291357  36.6603522 105.9141159  21.5015841
  37.0300250 106.7875957  21.3727236  36.1427455 105.9889793  22.3032784
  27.6614224  12.2571235  59.4208527  26.7633282  12.5681739  59.5344687
  28.0948960  12.4697356  60.2473688 104.1996479 104.9732780  51.2499189
 104.3068981 104.3038940  51.9256830 104.8486328 104.7471333  50.5836535
 117.4243641 111.4117146  60.2363300 118.1016731 111.9659328  60.6240320
 117.9090691 110.7122231  59.7981310  20.4452281 100.9064770  29.0616632
  21.0661845 100.1842308  29.1565704  20.1339106 100.8376503  28.1591249
  14.5807969  35.0110774  48.4528065  15.0559079  35.5922370  47.8588676
  15.0567757  35.0737720  49.2809057  21.9222104   8.7490134  70.9022617
  22.8580987   8.5565238  70.9597254  21.5546738   8.0088573  70.4192352
   3.3679538  91.0596371  75.0620127   2.5249533  90.7635403  75.4053926
   3.9979605  90.4159069  75.3859472 117.6982021  87.7479553  87.3315048
 117.7998161  88.0814362  86.4400482 118.5493088  87.8995895  87.7424240
  77.9367655  73.7418992  10.9462997  77.6763266  74.6274621  10.6929466
  78.7465208  73.8630158  11.4421436  87.8201025  24.2780167   0.7201645
  88.4466379  24.5615727   0.0543758  87.1951025  25.0001962   0.7839176
   1.5106808   4.7896628  73.7045956   1.9924008   5.4047160  73.1515217
   1.8477475   4.9461513  74.5867109  18.1886136   7.0936732  56.2496233
  17.2453057   7.1929603  56.3782740  18.3000790   6.1788707  55.9909010
  71.0481756  64.6144158   8.6978313  70.3073424  64.2016084   8.2539913
  70.6568354  65.0720841   9.4418976   2.8869282  18.5137897  29.5604014
   3.1238781  17.8309398  28.9328599   2.1144139  18.1695228  30.0086546
  87.9166126  88.4522533  23.6770725  87.2003174  88.9961433  23.3494520
  87.5733566  88.0632019  24.4814658 114.1570950  86.1823750  64.1654348
 113.5849285  85.4930401  63.8282681 114.8975086  86.1970234  63.5589695
  15.0124221 109.4724464  90.2513790  14.3668608 110.1515102  90.4472160
  14.4943957 108.7361240  89.9262619   5.2334838 105.6232834  57.3963833
   4.8615126 106.2976933  56.8280220   5.2212291 106.0132217  58.2704735
  97.9440594  70.2401924  68.6349106  97.1662712  70.7814693  68.4996271
  98.0603504  70.2211618  69.5848322 110.7698822  71.2694597  38.0611062
 110.9620667  72.2033882  38.1452155 111.1468792  71.0224533  37.2166586
 116.9760895 102.5023270  64.8626614 116.0718441 102.2280407  65.0154543
 117.4378204 101.6932964  64.6424150 109.5597363  73.4517288  57.5995111
 109.1364193  72.9962397  58.3272171 109.9862862  74.2065811  58.0050755
  48.8142621  28.4549766  45.3012896  49.2262684  27.7922206  44.7469997
  49.2982518  28.4120326  46.1259985  49.4644295  15.6898265  60.4432011
  49.1245877  15.2641349  59.6561003  48.6835801  15.9255271  60.9441423
  44.7059189  19.4056087  95.7490730  45.4393517  18.8944297  96.0911465
  44.9082219  20.3084808  95.9942913  71.0992289 109.7101307  82.7182484
  71.6900110 109.1662216  83.2391834  71.5846109 110.5228138  82.5762081
  94.9837399 111.2963390  87.5775814  95.7175350 110.7236958  87.3542786
  94.2163563 110.7249737  87.5477982  -0.2217717 107.8719997  75.3049612
   0.5453162 107.6270866  74.7874308  -0.1450486 107.3544979  76.1065531
  57.8924214  25.1867728  89.1533566  57.6838719  26.0491996  88.7942410
  57.0475232  24.8315959  89.4294548   3.3063178  96.8952751  66.3616419
   2.7179293  96.3347530  65.8558273   2.7630286  97.6387691  66.6229725
  39.2101418  26.0325961  72.6862764  40.0266778  25.9732967  73.1822538
  39.0127408  26.9688754  72.6609612  23.5058629  21.6211944  84.3234158
  24.0634762  20.9776168  84.7605801  23.6941658  22.4454265  84.7722054
  87.5479412  74.9746990  80.2620983  86.6905594  74.5692682  80.1327133
  88.0847454  74.6331978  79.5469427  18.9487700  58.8819790  67.4558401
  18.4292369  58.1623030  67.8141451  19.8238330  58.5115099  67.3407030
   5.6545214  94.9556923  66.5639019   6.1441569  94.8681545  67.3817205
   5.2294116  95.8107853  66.6296196  35.1322781  13.0183177  93.6798859
  35.9605252  12.6819472  94.0220737  34.8908173  13.7202029  94.2842674
  15.1482522   6.9507175  31.6040111  15.9797322   6.9649558  31.1300063
  15.3958642   6.8094688  32.5177789 103.7281322 110.3016853  75.7347965
 103.4369755 110.8628559  75.0160885 104.4265842 109.7688007  75.3547621
  63.4571682   2.4792724  68.6791229  63.6125027   1.5347724  68.6739922
  62.5043522   2.5651317  68.7106276  27.9225766   2.0899253  39.4653440
  28.8645398   1.9238715  39.4284296  27.5422036   1.2533145  39.7329974
 103.7678719  69.4321012  83.6685658 104.2131519  70.1480675  83.2154083
 103.9077091  69.6131945  84.5980167  18.0151801 105.8912468  55.2620459
  17.5654082 105.3454113  54.6170616  17.9797702 105.3829384  56.0723543
  24.6303021   5.1476340  45.6799793  25.2432286   5.6983619  45.1928949
  24.6897732   4.2910342  45.2569675  69.6781540  96.0022926  47.7752447
  69.9527597  95.2535343  48.3045769  68.9511728  96.3876343  48.2643604
  97.1730709 104.9692726  79.5191956  97.8072929 104.2865086  79.7378778
  96.3383007 104.5064831  79.4469070 103.7581093  17.0508342  20.0669813
 103.7290222  17.9131751  20.4814029 102.8560335  16.8866115  19.7921765
  25.4572999  16.5139632  53.1123972  25.2499520  16.7872195  52.2187710
  24.7697388  16.9082790  53.6490583  36.2362229  32.4439292  68.0657244
  37.1475445  32.1692519  68.1670570  36.2868916  33.2680946  67.5815582
   8.5919034  17.5872378  59.3666315   9.2887722  17.5807433  60.0228119
   8.2334649  16.6999679  59.3891335  73.1571245  95.6479549  76.3103104
  73.7987328  95.1053619  76.7687416  73.3050776  95.4620075  75.3830719
  28.5550820  35.1038127  27.3490191  28.7931286  35.9329467  27.7638817
  28.5065400  35.3084808  26.4152169   0.6891398  98.0158615  54.1307211
   0.1602416  98.0284882  53.3330107   1.5937857  98.0042076  53.8181353
  32.8834569  38.6207252  49.4469833  33.1937539  39.4479232  49.8153448
  33.6807763  38.1160884  49.2861938  39.6719014   4.6283393  34.0208745
  39.2845665   3.8891463  33.5520530  38.9632927   5.2685504  34.0858984
  31.8453537   4.2481952  79.8173046  30.9433304   4.0789085  80.0892162
  32.2497403   4.6676021  80.5767727  17.4919276 110.5174637  84.1169262
  18.3145480 110.0693703  83.9200974  17.7558665 111.4012623  84.3727970
  51.1432969  22.7691608  81.4616203  51.8034874  22.2977882  80.9535027
  50.7204949  22.0928626  81.9908619  46.9282263  24.2627580   3.9300606
  47.5545233  24.9676282   4.0947887  46.2504976  24.6664101   3.3878586
  22.3572957   8.5299258  86.1283302  22.6885735   8.3474879  85.2490044
  21.8490731   9.3351417  86.0305214  98.2004356  82.6523876  51.8301773
  97.5742340  82.6542664  52.5541258  98.2498360  83.5675049  51.5538597
  28.1418358  11.3048320  79.7902918  27.5809418  11.6436725  79.0925646
  27.5844990  10.6911998  80.2688980  71.6220188 104.6560574  50.3337479
  72.3292208 105.2247238  50.0292587  71.1692762 105.1728153  51.0002470
  92.0872593  56.1954737  66.3795710  91.7918682  55.2878666  66.4518547
  92.5063324  56.2432432  65.5203056 109.3678284 100.7178402  37.0677233
 109.9661446 100.4215240  36.3818336 109.0153408 101.5442276  36.7374706
  39.4508397   6.8444114  71.8007040  38.6531579   6.4073424  71.5025616
  40.1622426   6.2944274  71.4725780  32.5455033   1.3345485  67.1074104
  33.0043160   0.5295234  67.3475456  31.6181504   1.0989528  67.1347570
 112.3728085  90.7356453  31.2164831 112.1849346  91.6023636  30.8562994
 111.7255974  90.6199455  31.9121623  30.5364453  12.3383765  37.2702360
  30.2607094  11.9639926  36.4335561  30.2335583  11.7096763  37.9253912
  50.8402300  87.1229267   0.0500012  50.7622910  86.9659996   0.9910277
  50.0105381  87.5332260  -0.1939180   1.1817221  95.8312225  64.7743273
   1.2200980  95.0298786  64.2522144   1.3627486  96.5332222  64.1492987
  93.4041309 101.5736198  83.0115700  92.6569462 101.6724014  83.6016464
  93.8637066 102.4115944  83.0647087 102.9817390 109.5951176  58.3440685
 103.2020187 109.4509411  57.4237871 102.7929020 110.5317688  58.4012461
  91.3488007  68.0994654  51.6827059  91.0762691  67.1818972  51.6780043
  91.1720181  68.4063864  50.7934475  75.2349567  74.2456675  73.1466770
  75.4417753  74.2501640  72.2120953  74.3955183  73.7892818  73.2040215
  94.8645115  66.6959286  40.5639553  95.5457401  66.1899710  40.1210403
  94.9600029  67.5824261  40.2157736 105.9072304  69.4436502  44.2779112
 105.7277489  68.5331488  44.5124340 106.7054081  69.6620274  44.7590113
  15.0344121  22.8728347  46.3253498  14.8087536  22.5487380  47.1972847
  15.9841095  22.9894786  46.3515520  77.2799730 106.5641975  24.8562670
  77.8497124 105.8049393  24.9793625  76.3944101 106.2209511  24.9753737
  58.3476292  52.8030830  88.3954811  58.6817109  53.0299239  89.2633343
  58.4212624  53.6133247  87.8911877  93.6028194  75.9081984  49.8138189
  94.5290852  75.8717060  50.0524187  93.2294846  76.5640926  50.4025936
  62.0667952  82.2098786   7.7772972  61.7202299  82.8726537   8.3746693
  61.2904471  81.8219239   7.3735401 109.4419670 100.0987244  81.6455936
 109.7379303 100.9418869  81.3024998 109.1485023  99.6155262  80.8731747
  20.2364575  10.7153564  58.9237261  20.3182923  10.2202563  58.1086111
  20.1584946  11.6272216  58.6432886  73.2352304  96.6525745  86.4593315
  72.8343010  96.7408752  85.5946350  73.1264734  97.5137329  86.8628216
   9.6754603 102.8939342  91.9645309   8.8970427 103.4485245  91.9123650
   9.9596171 102.7939224  91.0559750  18.8852839 105.5923367  85.0165272
  19.5336776 105.3070259  84.3727779  18.2570414 104.8714352  85.0593853
  53.3500325  20.0568156  50.9129143  53.2574212  20.6210380  50.1452541
  53.9706742  19.3811088  50.6400490 109.0330315 106.3656044  57.6966667
 109.7604656 106.9835854  57.7685261 108.3791542 106.6924477  58.3146095
 114.8351288  78.6967659  79.4874811 115.5414963  78.2078934  79.0652514
 114.9028587  79.5789766  79.1223192  32.0089089  44.3027930  36.5711689
  32.9386078  44.2925887  36.7987323  31.9168984  45.0442844  35.9728718
   5.3499846  83.2821178  52.1856880   4.4363837  83.5544491  52.0996714
   5.3801589  82.4142742  51.7829943   6.7758309   2.1158557  72.6375484
   6.7834794   2.1511512  71.6810274   6.1209713   2.7644210  72.8959227
  24.5162236  11.2775092  67.7708817  23.5631978  11.2502055  67.8559160
  24.7107159  12.1875625  67.5468159  73.6245554  45.2435834   2.5189182
  73.1074827  45.6865460   3.1917164  72.9767245  44.7941834   1.9761536
 117.1668434  98.5420322  51.7177296 117.8092098  99.2174053  51.4998722
 117.5033092  97.7483463  51.3016796  73.7577152  88.9710426  60.7307243
  72.8772163  88.8153076  60.3891087  74.0831327  88.1005192  60.9599257
  97.4089831  33.6879689   1.4726803  97.7729052  32.9073769   1.0549995
  97.8897303  34.4162614   1.0793659   3.0063282  13.2224708  64.2180586
   3.0797040  13.8455443  63.4951305   2.8362500  12.3817020  63.7932920
 107.7161694  98.5455513  71.0410309 107.6180935  97.6162052  70.8338451
 108.3115196  98.5623550  71.7903662   7.6654391  54.5597124  69.9585867
   7.6959376  53.7808466  69.4030046   7.0277934  54.3437290  70.6390190
  84.3288898  96.4159966  59.6099329  85.2272797  96.6730690  59.4024897
  83.8656139  96.4686203  58.7739706 111.6900730 106.6230965  55.4892588
 111.4923763 106.7810822  56.4124012 111.1484241 105.8698177  55.2538347
 107.4669743  94.3644238  43.8151693 106.5660667  94.2359638  44.1119909
 107.7435684  95.1790333  44.2348480 104.2146492  83.1542778  38.1948447
 104.2699337  83.6953163  38.9825320 104.7452354  83.6187172  37.5475383
 111.1341763 107.8598881  84.7844887 111.3591766 108.6513805  85.2735138
 111.3124847 107.1432686  85.3935051   5.2696376  77.9608870  87.6926804
   4.6433406  78.1032038  88.4024143   5.8254962  78.7400770  87.7039146
  39.7868954  30.1713424  37.0635438  39.1893994  30.8950763  37.2517824
  39.5517956  29.4951968  37.6989794   0.8616023  99.7295761  91.0323048
   1.2488131 100.3976345  90.4666233   1.1971621  99.9314976  91.9057274
  28.1003796  17.1001201  47.4981737  28.1776654  17.0874267  48.4521627
  27.1606480  17.0236449  47.3329735  91.0581112 107.4728107  63.6657667
  91.5927887 106.9496632  63.0685616  91.5573597 107.4892044  64.4822884
  36.1523091   7.4241214  62.5720739  36.9014107   7.0363288  62.1196413
  36.4997708   8.2224231  62.9698420  10.4751353  96.0419750  60.4762125
  10.5979495  96.2826920  61.3944769  11.1944823  95.4390717  60.2883863
 110.3784275  95.6295013  93.8209724 109.7661209  94.9240494  94.0299225
 111.2437153  95.2449703  93.9611435  62.3388134  27.2686057  75.3793383
  62.5758301  27.6748138  76.2130356  62.1976315  26.3464789  75.5937719
  80.7767504  49.3392617   7.0914433  80.5532568  49.5554120   7.9967377
  81.6940230  49.5980985   7.0028469 108.4304905  91.8148899  41.6416264
 107.8375244  92.2477245  42.2558594 108.0869484  92.0411110  40.7773161
  61.9987618 109.4660808   3.7851688  61.3564049 108.7580349   3.8328526
  61.5611016 110.1530792   3.2824585 114.6991444  86.3146019  66.9611883
 115.4368877  85.7322216  67.1423149 114.5156002  86.1863136  66.0305500
  89.1776848  84.2710209  70.2010059  88.7231159  85.1116753  70.1471424
  88.9520550  83.8240242  69.3852091 112.7647495 106.7135143  23.9876318
 113.5629845 106.1869621  24.0300417 112.6753139 106.9387436  23.0616140
 100.9824657 107.0858669  69.7776747 100.1795006 107.4483585  70.1519394
 100.8940029 107.2301674  68.8355589  98.9839840 102.4969101  72.1771812
  98.8786030 102.3760128  73.1208515  98.7971497 103.4244347  72.0321989
   6.6432147  74.9528122  50.6774855   5.7409148  74.6456671  50.5894756
   7.0814280  74.2673779  51.1818504   6.7389540  87.1960449  55.6278419
   7.4431948  87.8443241  55.6307364   6.9521098  86.6141129  54.8983526
  20.8788239   7.0885425  95.1949692  20.7375180   7.5223594  96.0364342
  20.1958214   7.4424796  94.6253490  76.7139244  77.4721289  39.1947532
  77.1653128  78.3155680  39.2277503  75.7900524  77.6989031  39.0885782
 102.6655865  81.2517929  80.7852650 102.8784943  81.9693279  80.1885700
 103.5158348  80.9109688  81.0630226   4.6330886 110.4642105  54.5730257
   4.7778277 110.1436710  55.4632711   3.9583258 111.1365509  54.6672916
 112.8790474  97.9699230  88.3250523 111.9671249  97.9236031  88.0378437
 112.9023170  98.7114811  88.9298439  98.7856960  92.6386070  75.0757170
  99.2615700  93.2001019  75.6876755  97.9525375  92.4607849  75.5121279
  34.0853708  45.8452470   5.4904625  33.8558310  45.4180295   4.6652100
  33.2445973  46.0066563   5.9185669  11.3676696  92.5963783  93.8495255
  11.8094401  93.4450054  93.8194180  11.9954543  92.0146179  94.2780876
  82.6586056  86.6301537  72.0713043  81.9929028  86.8884182  71.4338398
  82.5766563  87.2720718  72.7766085  64.3463360  16.7446761  34.9896526
  63.6992966  16.2304740  35.4725361  65.1896035  16.4609199  35.3426456
  31.4852559   1.9917255  29.6905899  32.0549714   2.2770267  28.9762688
  30.8164822   2.6739078  29.7506046  13.5294966  82.5878239  76.4935827
  13.6530738  82.2018433  75.6264114  12.9574065  81.9714546  76.9507790
 103.9370823  84.2068291  54.3622875 104.2211628  83.6392593  53.6457729
 103.9364624  85.0865936  53.9851284  94.7216892  93.7839794   0.8153802
  93.7824154  93.9534187   0.7426436  95.0869942  94.1014385  -0.0104560
 113.3987617 106.3890076  59.7746754 113.6946487 106.7918015  58.9583206
 114.1278076 105.8303165  60.0440979  20.1143889  94.1299343  45.1223135
  20.1849799  94.7914791  45.8105087  21.0014586  93.7815285  45.0331068
  82.7369499  71.9606209  47.7662325  82.9685593  72.8659582  47.9734802
  83.3292580  71.7188597  47.0542192  37.2588687  88.2336426  42.0387220
  36.7940669  88.3129501  42.8717327  37.1591906  87.3132420  41.7955112
  38.9882790   3.7924724  59.5249748  39.1152798   4.7411399  59.5368338
  39.0904080   3.5486369  58.6050034  47.0671766  48.7202699  10.5525753
  46.8282622  47.7939278  10.5850288  46.9976443  48.9532620   9.6267769
   2.1259886  14.1402602  50.5600452   2.5223255  13.7928629  51.3590860
   2.4089801  15.0541806  50.5300999  89.3555082  87.3465295   5.4418218
  88.5073907  86.9635053   5.6659210  89.9131263  87.1509452   6.1948425
  14.8131955  24.1060543  29.8360300  15.0995600  23.9748049  28.9321494
  14.0691912  23.5128784  29.9400902  38.9588904   7.3684603  68.6620951
  38.9631248   6.5915841  69.2212725  38.1386018   7.3068047  68.1726503
 111.9948972 109.6226811  32.7318239 111.3096679 109.3887534  33.3578992
 111.5413726 110.1304541  32.0589852  10.7814854  88.1239099  53.9938450
  11.2654131  88.2497616  53.1776333  10.5655020  87.1914382  54.0028954
  42.6188564  25.9548402  27.5207448  42.8449869  26.8349338  27.8216267
  42.0507336  26.0990357  26.7639923   0.1559537  99.7134979  30.6923628
  -0.1081640 100.4124470  30.0940776   1.0034769  99.9983091  31.0341430
   8.2176703 104.5240087  28.1130028   7.9792469 103.6380334  27.8401780
   8.8561934 104.3949766  28.8143349 107.2213377  98.5327155  31.1145878
 106.7501653  98.4180732  31.9398665 107.9525317  97.9173691  31.1687660
  43.7690067  17.6412904  50.5569506  44.7236681  17.6960266  50.5137587
  43.5530949  16.8409443  50.0783491   0.1887935  90.5598111  82.1893787
   0.2639454  91.3357944  81.6340160   1.0011547  90.0769062  82.0373917
   8.6937350  93.3773203  47.7326012   9.0483969  92.9927487  48.5341930
   9.1111677  94.2367215  47.6742029   4.5101612  93.5147996  62.5684214
   5.3927248  93.8444204  62.7377272   4.5709866  92.5733275  62.7301741
  10.2983427   0.8599637  76.5993214  10.7240665   0.0038150  76.6440439
   9.6020585   0.7477095  75.9521580  39.7969788  87.3799963  77.0417404
  39.3793362  88.2351107  77.1446371  40.7331675  87.5744648  76.9973946
  51.4131737   2.6638097  66.5504313  51.2068510   2.0438182  67.2499132
  50.8578920   3.4222567  66.7311430  47.5312281   2.1188162  30.3468513
  47.6708746   1.2748644  30.7763577  46.7014217   2.4350101  30.7041740
  27.2103548  31.2099433  22.8616500  26.5316629  31.8771029  22.7591324
  27.1556306  30.9520316  23.7818241 102.4075926  79.8693819  41.5357161
 102.3827709  80.8094735  41.7141628 101.5023030  79.6418304  41.3238096
  24.1948390   0.7584845  58.4378815  24.0743732   1.2202854  57.6081467
  25.1274610   0.5440534  58.4594393  33.4000921   3.0018833  27.9549766
  33.9744139   2.2728789  27.7205849  33.9946985   3.6856061  28.2635164
  49.9314690  22.0473504  63.2104397  50.2047920  21.4559126  63.9116716
  50.0733423  21.5474486  62.4065733  29.3551111   1.5550511  42.4258041
  30.2557373   1.6096522  42.1062326  28.8535571   2.1046272  41.8236065
 109.8453034 104.0699614  58.8094473 109.6582259 104.7974152  58.2161140
 110.2157534 104.4852776  59.5882320   3.7353152  85.5217643  24.1949296
   4.2045801  86.1015935  24.7947788   2.8105372  85.7127852  24.3515444
   4.6565216 102.5725473  29.7757173   4.3781727 102.2198547  28.9305186
   5.2503365 103.2892812  29.5523238   9.6998471  90.0147076  51.5251637
   9.2664164  89.5386405  50.8168364   9.1657942  89.8322053  52.2982836
  22.5699759   0.8937508  22.9933739  22.7342749   0.6677470  23.9088845
  23.0998063   0.2720355  22.4943948 108.2221759  99.7603984  43.7488365
 108.6271513 100.6207199  43.6389542 108.6787332  99.3744881  44.4964075
  11.5250087   2.6893979  56.8927813  11.0359800   3.2174698  56.2617350
  12.4406815   2.7945533  56.6344833   9.3183058  99.9712021  36.4807606
   8.7226456  99.2223341  36.5056396  10.1661080  99.5951278  36.2440586
  47.2432375  24.5754981  44.7040749  47.5622463  23.6802983  44.8184681
  46.6999197  24.7365594  45.4754972  10.3435159   3.9353529  28.5226774
  10.6145334   4.7345632  28.0709648  10.5391765   4.1031662  29.4445157
 116.7172564  94.3911345  38.1298757 116.5682543  94.1139467  37.2258878
 116.1082614  93.8628192  38.6458611   8.8352507 107.5282745  31.8893528
   9.1883248 108.2689856  32.3822212   8.5412567 106.9123296  32.5604820
  42.6187181   3.0646223  39.9774361  42.0737123   2.5021306  40.5277157
  43.4797859   3.0465192  40.3951168  21.2475031 103.1694950  14.2342019
  21.8565720 102.4455572  14.0886581  21.1248320 103.1921775  15.1832378
   1.0448187  98.7691028  66.5821743   0.3157061  98.8262410  65.9646320
   0.8522242  99.4348545  67.2424126  67.2856808   0.8284558  38.0369592
  67.7437019   0.2995608  38.6901951  66.5921688   0.2560839  37.7088332
 109.7403968  89.4195576   4.1622451 110.1374758  89.8356171   3.3970958
 108.7989605  89.5416827   4.0397176   2.6748436 102.9929782  34.7267509
   3.3908194 102.5893546  35.2173615   3.1105679 103.5153396  34.0533185
   0.6024617 104.9519194  12.0446396   0.1304811 105.1297409  12.8581798
   0.6272381 103.9968402  11.9859695  62.0015907   2.8812584  34.8945522
  62.9097843   3.0392927  35.1523185  61.7764378   3.6284843  34.3403053
  46.7887497   8.9913929  23.7131286  47.6627970   8.9622146  24.1022611
  46.6251373   9.9221987  23.5612655  21.5783358  35.1767325  69.2545795
  21.7680168  34.7823787  68.4032631  20.7449412  34.7869825  69.5187378
 100.5737198  95.9298427  36.3811636 100.2594102  96.4260716  37.1369410
 100.8937849  95.1070936  36.7511272 107.7727998  85.5635447  94.7710609
 108.5064925  85.9477038  94.2911148 107.8783835  84.6193666  94.6544075
  33.2582140   6.3218588  57.7404308  32.7837181   6.0411876  58.5229301
  32.6368856   6.8776679  57.2700453  23.4948128 107.3473681   3.1540799
  24.0269297 106.5935726   3.4087944  22.8324097 106.9850881   2.5656867
  35.8898926  10.0846684  60.8013201  36.2188840  10.9415698  61.0728264
  35.1401281  10.2827668  60.2402115 104.3965383   1.2050901  33.7306261
 104.7376318   1.0661501  32.8471184 103.6069472   1.7308165  33.6026025
  25.2444714 110.8749339  38.1735492  25.6987398 110.0460635  38.3246970
  24.3222063 110.6314952  38.0936098  72.2892809   2.1842445  35.6688285
  72.6475430   1.2990235  35.7341242  71.9396305   2.3660642  36.5411353
  95.8225001  85.3544660   6.1915636  96.6940309  85.7422180   6.2710381
  95.8580256  84.5709081   6.7402047  42.1567774  17.4175060  26.2201214
  41.6035223  18.0586302  25.7739139  43.0404854  17.7802789  26.1594462
 102.0898182  55.4600389  12.6337311 101.3543016  55.9818879  12.9545376
 102.7160579  55.4583344  13.3576462  62.7220726  40.1650333  48.8586664
  63.3817577  40.5274630  49.4500113  63.2282257  39.7639346  48.1521511
  28.2033032 103.7555660  35.2123690  27.6741904 104.5530523  35.1954985
  28.9207667 103.9312280  34.6035838   2.5411909  74.2772765  21.3475776
   3.4748333  74.1520233  21.5174580   2.5034636  75.0352187  20.7642007
  25.1427525 104.8921068  63.0788374  25.4036968 105.0954546  62.1806192
  25.8646315 104.3674303  63.4250116  78.0563501 108.3680273  43.2744646
  78.0994364 107.6985438  42.5917006  78.6808981 109.0369038  42.9937935
  82.8140831  29.4834542  36.8892908  82.1204281  29.3088412  36.2532234
  82.4948502  29.0959263  37.7042413  34.2590356  22.2856259  43.6715126
  34.8000908  21.6773391  44.1749763  34.5750713  22.1992254  42.7721310
 115.3974212  87.5862522  54.7156525 115.1884545  86.6723747  54.5222855
 116.2019242  87.5437875  55.2325726 109.9814499  89.6070118  49.6809196
 110.7256306  89.7758145  49.1030550 109.2530597  89.4261641  49.0868044
  97.2260691 101.9243104  35.8771253  97.1933616 101.1279459  36.4071870
  97.4139501 102.6222057  36.5047193  31.8268156   7.9091889  11.9224322
  32.0468664   8.7728947  11.5734029  32.0170832   7.9734761  12.8583264
  49.4412851  12.2778904  40.6357670  49.4289064  11.7841184  39.8158479
  49.8136616  11.6708350  41.2753391  67.4063110   5.7480764  67.8951931
  67.8785276   5.4590064  67.1143675  66.5298033   5.3763354  67.7963495
 101.1231507  87.6745410  50.4771805 101.0558713  88.4531970  49.9245501
 100.8329476  86.9561310  49.9151325  18.5871905  94.6257813  28.8193202
  17.8249424  95.1884658  28.6829567  19.2846936  95.2267034  29.0812612
  70.9451866   8.9611822  35.5981684  70.1615477   8.8789654  36.1416578
  70.6720352   9.5141238  34.8661327 106.8540920  91.4469857  69.3580008
 107.7026142  91.8845720  69.2890072 106.5727533  91.3256259  68.4511614
  50.5567980  19.3087614  44.9128246  50.6322670  19.0018237  45.8163357
  50.8465576  18.5663331  44.3826628  97.7583725  55.3020697  93.8699785
  98.2018644  55.7162427  93.1297049  97.7941543  54.3652164  93.6769572
  25.3268695   2.3626955  69.8407555  25.6693721   2.7504444  69.0354156
  25.8755398   2.7281713  70.5347395   8.4855294  16.5588474  28.7988138
   8.7915564  17.0761740  29.5437670   9.1785741  16.6477942  28.1445909
  11.8075913  93.1384618  16.0428822  11.4144486  93.1293101  16.9155717
  11.2443989  93.7203736  15.5325627  29.2039323   9.5570701  37.2183013
  28.9764810   9.3637496  36.3088369  30.0814462   9.1909993  37.3287368
  63.2562256  19.6404338  67.1125269  63.9961147  19.5137608  67.7064514
  63.5329962  19.2287207  66.2939167  68.8568306   2.9727310  45.7441235
  69.7333384   2.9249731  45.3624344  68.7268162   2.1171939  46.1532497
  21.5286511  97.3029120  20.9731579  20.7454603  97.4506159  21.5032792
  21.6838854  96.3602610  21.0326767  66.6157818  24.9060607  31.4262033
  65.9450436  24.9503565  32.1076608  66.3064241  24.2244601  30.8295870
  85.4847431  25.1907539  40.1289511  85.7076168  25.0764656  41.0527992
  86.2125015  24.7878551  39.6553826  77.5112695 103.4396065  38.9369893
  77.2274766 103.8102127  38.1013203  77.0754472 102.5885649  38.9819145
  83.5656071  15.2691114   9.0795761  84.1187572  15.0665140   9.8340374
  83.7482834  16.1891532   8.8888305  13.0446684   0.3919644  34.8838186
  13.1753790   0.3836666  35.8320165  12.1473384   0.0814207  34.7630143
  89.0566284  29.8339273  15.0274727  89.6275884  30.5781891  14.8369190
  89.5703251  29.2830373  15.6181309  42.0921183  12.1709740  46.8731356
  41.4595079  12.8624737  46.6785526  42.9202318  12.4981701  46.5218449
  20.2483624 105.1052923  38.6711478  19.9202698 105.7327587  38.0270433
  19.6687573 105.2112175  39.4255137 112.2890533 110.5706434  35.7517505
 111.4018215 110.9134477  35.8591437 112.7522553 110.8537236  36.5401316
  25.0679183  13.7234795  24.6485543  24.2158008  13.5546851  24.2465186
  25.3585339  12.8671527  24.9623704  17.0891809  27.1972704  70.2884102
  17.4692106  27.1051240  71.1620903  17.8143823  27.0138001  69.6912050
 107.8576578 105.7229943  68.0064344 108.2002462 104.9530871  67.5524426
 108.1615175 106.4646001  67.4830580  49.4983053   6.6155177  52.1162176
  49.4152117   6.6960800  51.1660433  50.2644682   6.0559297  52.2430515
 115.8608211 109.5783108  57.9498386 116.6457165 110.1081971  57.8105879
 115.6847919 109.1821242  57.0964479   9.4704407 103.2667131  18.1850719
   9.9031466 103.7923611  17.5122476   9.1282528 102.5077141  17.7127779
  15.3152149  95.1633818  24.8695517  15.6031912  95.3161187  23.9695668
  15.9670037  94.5626910  25.2309036  53.8273287   4.8384008  40.0117493
  53.7647009   3.9860323  40.4427671  54.2558384   4.6533084  39.1760731
  93.2098896  39.5068591  83.4799567  92.5262625  40.0798672  83.8271549
  92.8025896  39.0762335  82.7283600  73.5189081 109.1746452  27.6254272
  73.6459077 110.1072074  27.4509835  73.9788643 108.7326686  26.9117546
  54.0674543  30.6230855  14.5801604  54.6589947  31.2598085  14.9812782
  53.3212376  31.1436248  14.2827892  79.6746683  35.7191181  36.1374140
  79.2054796  34.9950552  35.7228947  79.5507717  35.5786395  37.0761085
  69.7246504  18.8608396   8.2446223  69.3055201  19.6040320   8.6784708
  69.2217302  18.0996490   8.5342622  65.8469629  10.0485253  61.5867281
  66.2068748   9.3987310  62.1904373  65.4622364  10.7160115  62.1547794
 117.3182572  89.5458097  10.1139116 118.2402600  89.5742841   9.8583090
 117.2875656  88.9106841  10.8293891  42.6906729  15.0085700  22.5202799
  43.4737301  15.4831314  22.7992773  42.9634809  14.0914810  22.4927878
  67.2977495  21.8501210  38.0230546  67.3613596  20.8961225  38.0685878
  66.5940571  22.0135427  37.3950863   5.7636231  97.4506194  74.1642857
   4.8482102  97.1712894  74.1793156   6.0045832  97.5313802  75.0871325
  44.4471216   4.3102294  60.9389496  43.5068035   4.3833679  60.7755852
  44.6483326   3.3894426  60.7719231  50.9131050  10.0884497  84.2188549
  50.9403706  10.4719245  83.3422470  50.1628542   9.4944060  84.1971779
  68.6068201   7.5035578  61.6830397  69.2546082   6.7993534  61.7094564
  69.1131926   8.2868534  61.4679432   1.8769471  18.6106539   7.9215950
   2.8240174  18.5748434   7.7874029   1.6533580  17.7521861   8.2811409
  59.5690155  25.3030872  48.6773777  59.5576048  25.9877372  48.0085325
  60.0841808  25.6757927  49.3928719  40.7841223 103.5241283  45.4146814
  39.9843567 103.6213643  45.9315443  40.6530493 102.7148933  44.9205303
 100.9019852   1.5289855  32.0350981 100.2806568   0.9380370  32.4605012
 100.3527069   2.1510930  31.5581203  39.2495554  95.7128711  84.3189430
  38.9808768  94.8427315  84.6137238  38.4729450  96.2583716  84.4435787
   6.4767950  95.5281873  39.0807176   5.9549874  95.3682406  38.2943583
   7.0304697  94.7516949  39.1627979  12.8610819 111.3243210  89.9700356
  12.1646326 110.7046406  90.1872635  12.5593632 112.1590255  90.3284550
  17.4187153 102.3156441  70.1664495  16.4846724 102.5248672  70.1621819
  17.6830214 102.4184902  71.0806704  30.0023096  93.0222578  38.9299345
  29.4743460  93.8169021  39.0075397  30.8300751  93.3205314  38.5530090
  25.6453055  80.4014177  75.0391674  25.3180903  80.2823825  74.1475439
  26.1872071  79.6290584  75.2005386  58.6962080  15.6780255  58.9119720
  59.0815544  15.5081975  59.7715664  58.1508684  16.4537001  59.0429831
   2.4627131  97.1787865  33.8332176   2.6893538  97.9329736  33.2890964
   1.9715803  97.5508768  34.5657277   8.2530230 109.6332702  55.9272337
   8.7449044 110.1060369  55.2558327   7.8470391 110.3206858  56.4553165
  42.5652170  12.9652762  57.1497726  41.7313147  12.9264843  56.6814470
  42.6518202  12.1031308  57.5565147  57.6507187  12.1881127  34.9027157
  57.3680592  12.9126847  34.3447447  58.4910679  11.9157064  34.5341516
  46.5102148  31.7435503  58.4916162  46.5619183  30.8607268  58.8579178
  45.6718493  31.7626381  58.0300808  53.1311339  94.4717295  29.4188666
  53.0613249  94.0686459  28.5534859  52.2387903  94.7487981  29.6267176
   2.8245657  91.4799304  42.1094704   3.5439318  92.0054419  41.7593575
   2.4516648  92.0189078  42.8070927  60.7476521   4.8523802  80.6225681
  61.4103365   4.1749513  80.7573605  59.9604797   4.5040736  81.0412216
  52.8357142  97.9223413  32.4938202  52.2323721  97.2681041  32.8462148
  52.3769301  98.7551792  32.6039410  71.6455650   3.6773616  44.9660349
  71.2901592   4.4031504  44.4530535  71.8328476   4.0592659  45.8235359
  22.3479813 110.6711316  37.8366113  21.7986887 110.1015594  38.3752155
  21.8785351 111.5050022  37.8140044  25.4159307   8.8787079  66.4315128
  25.9757352   9.0486956  65.6739140  25.0642991   9.7372872  66.6669416
 117.6826013 105.8791764   6.0657501 116.8653286 105.5743374   5.6715775
 117.5210823 105.8451129   7.0086098  35.1970601  25.1087213  48.6104107
  34.9444628  24.2766428  48.2103205  35.5650592  25.6193066  47.8892231
  17.6928871 109.3142074  22.6524591  17.6428765 109.3798320  23.6060977
  17.7868574 108.3771036  22.4814677 103.6412562  86.7039294  52.9764557
 103.2615603  86.5589161  52.1098328 103.5308183  87.6418538  53.1324434
  14.0160912 105.3319324  45.2982664  14.5729130 105.9732063  45.7397985
  14.4300240 104.4886101  45.4818392  26.7652202   9.9913764  41.1095381
  26.7589688   9.6876436  40.2018261  26.3077569   9.3048584  41.5949774
  48.8659685  99.1145987  40.7890177  48.0729883  99.2598934  40.2729845
  49.5833128  99.2663855  40.1737022  34.8956173  84.4168849  17.2467077
  34.4401568  83.5794063  17.1605980  34.3483561  84.9268622  17.8439152
  92.9667641 105.7091505  70.7148361  93.2889260 105.0425966  70.1080847
  93.1876684 105.3702016  71.5823317  66.0697556  24.7489524  37.3296857
  65.2138376  25.0267959  37.6559401  65.9194899  23.8702393  36.9810963
  29.4377828  43.4508371  58.6327457  28.9682198  43.4108973  57.7995920
  28.8132691  43.1154585  59.2759705  20.3720110  91.5928061  35.7950544
  20.1908272  91.7093999  36.7276907  19.6979063  90.9833283  35.4944706
  76.0057831   1.3001141  50.8825684  76.4096212   2.0870942  51.2483644
  75.8037615   1.5335996  49.9765348  70.6461287  12.8501415  22.2234368
  70.3476572  13.3807397  21.4847827  71.5868473  12.7471197  22.0796871
  36.8129462 103.6814226  38.1600595  36.0826748 103.2393647  37.7270269
  36.3968533 104.3176944  38.7416601  82.6468182  15.1647365  95.3070354
  83.2455635  15.3476572  94.5829678  83.1870747  14.7151840  95.9568501
  86.2367058  12.3518622  57.0506573  86.7102528  12.8111279  56.3570690
  86.3726711  12.8901029  57.8304243  40.7014704  29.9469566  18.0104935
  41.3891315  29.5312572  18.5306346  41.0302401  30.8297205  17.8405774
  47.3467749 108.5693644  46.1110497  47.1659773 109.5068805  46.0431719
  48.3008784 108.5125808  46.1629915 111.1488927  92.9070420  37.2721386
 111.0104502  93.5347505  36.5628791 110.2679313  92.6228936  37.5158572
  53.3816242  14.3709111  49.4324636  52.7871990  13.6571109  49.6635008
  54.2553234  14.0209770  49.6069145  29.0735984   8.0366582  61.8199730
  29.4442034   8.9106596  61.9424677  28.6957121   8.0578059  60.9407759
  43.4316874  17.8942835  22.0072174  42.7981997  17.2518933  22.3269987
  44.2849302  17.5022650  22.1930528  71.5933943  36.8169594  26.6421986
  72.2965574  37.0338011  26.0300136  71.9077301  37.1324325  27.4894905
   4.3235367 110.2825925  26.8211341   4.3359345 109.3884466  27.1625733
   4.4850271 110.8336682  27.5869465  49.0512961  91.7410524  55.6627798
  49.6178358  91.7540080  54.8913574  48.5109442  90.9590478  55.5499983
  93.0442810  26.6018796  36.5674734  93.3847904  25.9198618  35.9885621
  93.1257057  27.4094081  36.0600281  12.2541493  86.2210150  36.1574769
  11.7979019  85.8658762  36.9203305  12.9279297  85.5712266  35.9574175
  32.0831060  19.4788563  67.2242498  31.9882250  20.2525139  67.7798462
  31.7183876  19.7441208  66.3799477  99.6162701   2.1837796  50.6139278
  99.1675568   1.8163100  51.3754082 100.2584171   2.7897298  50.9836578
  69.9342728  29.1352797  17.3343086  70.2883434  28.4469366  16.7712355
  70.6029892  29.2617035  18.0074131   5.6971901  94.8596282  20.5433512
   6.4832800  95.3594453  20.7635212   5.9513634  93.9454920  20.6697702
  73.0807543  16.2471509  16.0224962  73.9935684  16.4001608  16.2666070
  73.0690622  16.3385785  15.0697446  61.4449883   2.6224500  62.6279068
  60.9751081   3.2106665  62.0367670  62.2659492   3.0773568  62.8158331
  12.8413122 100.0917680  52.4975967  12.5411337  99.4264693  53.1168699
  12.3406189 100.8749313  52.7260590  44.5962191  20.1024413  44.8305845
  45.5351162  20.2442193  44.9514198  44.2634249  19.9373996  45.7127619
  68.0981588  20.4494977  44.1474724  68.6644077  21.1806536  44.3944740
  67.2970438  20.5854535  44.6534014  32.4166935 107.2555737  40.1872826
  32.6218622 107.7314971  40.9920406  33.0684822 107.5603397  39.5559931
  43.6646795  51.7545652  61.1227703  43.3101654  52.6355362  61.2429523
  43.6333323  51.3626575  61.9954967  54.4918299  44.0591812  39.6869683
  53.8046789  44.3328762  39.0793920  54.2304182  43.1811714  39.9644375
  28.4918516 106.8227835  48.7309027  28.8167446 107.1281056  49.5779324
  28.4454172 107.6132609  48.1931114  52.9054165  48.1945419  25.9178996
  52.7044725  48.9285898  26.4984417  53.8074875  47.9582787  26.1339569
  15.0370133  14.8508728  26.4565706  15.9917009  14.9029851  26.5022612
  14.8652303  14.1419983  25.8367157  81.6636372   3.7976834  70.5030107
  81.7680454   4.3960679  71.2427855  80.9331608   4.1609669  70.0023556
   9.5252739  32.2959989  63.8058069   9.1755616  33.1573861  64.0337208
  10.0043904  32.0178264  64.5863846 112.5874454  54.3150287  94.7573429
 112.3991091  54.1323301  95.6778770 113.4854442  54.0085773  94.6311942
  12.3450249  81.3684554  34.1722298  11.8791884  80.6085749  33.8232160
  12.3735588  81.2186403  35.1172018  55.5044127  19.3648064  89.2167759
  55.1691580  19.9516737  88.5389709  55.5479431  18.5082150  88.7918186
  75.0666285  16.8662703  19.7401094  74.4603348  17.4956107  20.1307106
  74.7060966  16.0105169  19.9723470  91.6360456  31.9038655  14.4876930
  91.3419134  32.7447869  14.1375896  92.4137718  31.6888811  13.9727566
  24.7993820  88.4005041  35.1930046  25.4753321  87.8524179  35.5916548
  24.5440596  89.0085382  35.8867908  12.7338028  39.9911046  24.9690819
  13.4180129  39.4329596  24.5995426  12.2904086  39.4344807  25.6092405
  69.2796803  13.9981949  53.8647270  69.4847775  14.1855550  54.7807312
  70.1080799  14.1266608  53.4026909  20.1169753  13.6184144   4.5520779
  20.9407139  13.5317850   5.0318503  19.4903684  13.0994833   5.0563675
  19.1242468   4.5034555  35.0167346  18.3997512   4.2555210  34.4423962
  18.8509810   4.2118254  35.8865094  39.7347975   1.5303732  31.9447327
  39.6375871   1.2298635  31.0411406  39.2756677   2.3699325  31.9686341
 112.3361553  92.0016725  52.6610327 112.0029772  92.2038634  51.7867661
 111.5721930  91.6807170  53.1401777  17.7237671  86.2988348  32.4138069
  16.7861145  86.3659210  32.5941896  18.1172198  86.0976024  33.2628846
  28.5100508  12.9411733  61.9128847  28.5799241  12.5561225  62.7864313
  27.7143025  13.4719992  61.9480658  55.8969736  19.5192683  53.7884092
  56.5615368  19.2512679  54.4230509  56.3684511  20.0756192  53.1683969
  28.3524531  98.7789841  23.1204748  28.6152666  99.6820302  23.2984352
  28.3580130  98.7116523  22.1656632  86.8913460  57.0499754  14.4238007
  87.4736691  56.2909603  14.3918860  87.0804882  57.5310183  13.6181605
  61.4666557  23.6041451  13.4540451  61.1173773  24.3978047  13.8594353
  61.0762262  23.5898018  12.5802076  19.6865385 108.7155391  46.5862942
  20.4400461 108.5532061  47.1538353  20.0064057 109.3416486  45.9367514
  13.0043286 107.4117593  11.8065274  12.1335715 107.0349826  11.6798317
  13.6063689 106.6905607  11.6230869  54.3923140  10.2164435  45.2526617
  54.0717220   9.7061032  44.5090199  54.2554712  11.1279356  44.9944210
  19.3606680 108.9974667  19.7323906  20.1200789 108.4240199  19.6290159
  18.8832157 108.6308185  20.4765964  39.0641993  96.5503545  64.4439459
  38.7772005  97.1307118  65.1489639  39.3842047  97.1414490  63.7624502
  54.2991352  30.9376955  73.4443760  53.3935595  30.8800244  73.7490654
  54.7673845  31.3612652  74.1637945  64.2020727  98.7514038  25.5025697
  63.9152671  98.2526822  24.7375512  64.3434537  99.6381946  25.1711392
  52.5327969   3.5917002  25.5941010  52.5244617   3.6392647  26.5500808
  52.8400040   2.7059340  25.4010344   5.8545941 111.0992311  24.7075105
   5.3552550 110.8090142  25.4708385   5.4455250 111.9267068  24.4541764
 100.0900758  84.9186630  60.5504274 100.9806908  84.9686403  60.2032375
 100.0532425  85.6063313  61.2152529  31.1517876 101.4374466  75.7551432
  31.5276116 100.6055303  76.0430765  31.4692658 101.5461863  74.8586988
  93.7132437  65.5914699  85.0397232  94.3425066  66.0100883  84.4523433
  93.8333542  64.6536576  84.8903456  90.9284306  34.5734024  13.6941838
  90.0694847  34.9626517  13.8582838  91.5522289  35.2333570  13.9967871
  20.1423573  15.1661217  46.8644524  19.8488700  14.9998260  45.9686613
  21.0334182  14.8176694  46.8931341  40.5398130  14.2368591  45.0094414
  40.2055550  13.7039053  44.2880106  40.0298166  15.0457144  44.9659824
   7.7280062  98.4575481  43.7486267   7.4643820  98.6885400  42.8579092
   8.6396998  98.7426216  43.8101101  50.9859228   6.8922138  65.5718756
  51.8203497   6.7429364  66.0164881  50.6110096   7.6531470  66.0153341
  35.5560613  43.3510637  43.9323425  34.8486662  43.8424778  44.3498802
  36.3308239  43.5546160  44.4563055  80.2208042   5.6790459  30.8059931
  79.6977282   5.7680357  31.6026759  79.6951962   6.1005330  30.1260519
  52.8578854   9.6428484  51.0018778  52.4973297   9.8617351  51.8611336
  52.1203232   9.7430509  50.4000473  42.7497864   6.2467462  78.2324743
  43.2082224   5.8858001  77.4736691  41.9605875   5.7110494  78.3126259
  49.0246599 107.9481105  38.7702918  49.8529356 107.7114711  38.3529234
  49.1420191 107.7070359  39.6891737  51.3995171  32.7254224  59.4218779
  50.8410931  33.2373381  60.0069761  51.1803770  31.8144941  59.6178913
  59.4292021  36.2918949  21.9459343  60.2792645  36.6352987  21.6708064
  59.3958044  36.4612627  22.8874397  38.0291271  34.4323111  57.6927567
  37.8736639  35.3128266  57.3510599  37.2835040  34.2638612  58.2688665
  11.9822472 100.5625338  19.7585905  12.4126642 100.9801443  19.0125501
  11.6175431 101.2899465  20.2626681  44.3951225  36.9790697  67.7078295
  44.5037270  36.0659838  67.9737377  44.7115707  37.4856234  68.4558249
  88.5136349  94.3237038  55.2141285  88.0824263  94.9427481  54.6250010
  87.9817880  93.5298140  55.1583624  83.0373478   3.0629396  67.8199720
  82.7216434   3.0634367  68.7236118  83.4337044   3.9265034  67.7042675
  35.0631636  98.7324877  45.2467823  35.3252333  99.3107386  44.5304203
  34.2987841  98.2650847  44.9098921  57.5980902  10.6593895  67.2673988
  57.0741224  10.1441038  67.8807211  56.9536400  11.1114359  66.7228174
  53.0808115   4.6589610  58.5377312  54.0218306   4.6002483  58.3726072
  53.0148792   4.9418128  59.4498062 111.9137896 100.6176014  32.5382400
 111.8112863 100.9859295  31.6607094 112.7323688 100.1232250  32.4963737
  88.0446148  19.3540585  17.4402332  88.5441113  18.7397122  16.9023573
  88.0332279  20.1642060  16.9305658   7.4404972 100.6294222  65.4661369
   6.7091530 100.9732301  64.9531364   7.2277373 100.8595462  66.3705778
  41.8890047  17.2280407  67.8198767  42.4704456  17.9640031  68.0109739
  42.3814201  16.6880047  67.2017193  67.7825880   6.0003406  43.9651394
  67.5063276   6.7609161  44.4764471  67.4626303   5.2480066  44.4629860
  23.2510710  38.0666924  32.7690697  22.8238010  38.3268666  33.5851455
  24.1783118  37.9963708  32.9960299  62.2263956  27.5589681  61.2428570
  62.4761963  27.9010034  62.1012545  63.0456781  27.2397614  60.8645535
  48.3555222  14.8096561  31.3727427  48.2109594  14.5663559  32.2871494
  49.2233515  15.2134681  31.3666654 107.5326347   3.6578214  77.2786427
 108.2953548   4.2341286  77.3272276 106.8893623   4.1540223  76.7724562
 117.8823341 111.1648262  57.0582819 118.6832584 111.6869616  57.1044159
 118.1668795 110.3200937  56.7094326  49.2466259  13.8403463  48.6894751
  48.6947155  13.3606136  49.3071175  49.0379763  13.4598410  47.8362989
  56.1820889  27.6338625  65.6925058  55.2658796  27.4484992  65.8985043
  56.6665125  27.3288465  66.4596605  46.2453747  26.4344883  55.4702711
  45.9225941  26.2899327  56.3597345  45.5959558  27.0132756  55.0709105
  61.0329151   5.3588808  43.9043331  61.6829538   6.0498798  43.7770367
  61.2652445   4.9633029  44.7444344  12.3325938  93.8662465  68.8266802
  12.9939240  93.4657485  68.2623434  12.3683661  94.7986395  68.6131525
  30.6402206   0.6194008  57.4139118  30.8339548   1.3273439  56.7994928
  30.3658199  -0.1108050  56.8591738  46.1563444  13.4282005  51.6620493
  45.3549385  13.5025489  51.1439228  45.8506203  13.2573700  52.5528812
  57.7601242  31.8796110  36.9046092  57.4100780  31.0039854  36.7403483
  57.5428486  32.3762846  36.1157250  38.4618777 101.0431785  77.1144629
  38.4553593 101.1777432  76.1667919  38.0645579 100.1809556  77.2366810
  67.1056986   6.5275294  48.8994169  68.0044937   6.3243961  48.6403084
  66.8733168   7.2948831  48.3765411  47.2755480  47.9996395  48.8121080
  47.3281908  47.1087551  49.1582155  47.0852661  47.8840637  47.8811598
  50.9626579   7.0454431   5.2913803  50.7804966   6.1075795   5.2325547
  50.2015257   7.4630159   4.8882186  41.7858505  19.8191845  58.1307364
  41.0742903  20.3801250  58.4393787  41.9441462  20.1061249  57.2313786
  64.9691343  15.6254077  20.3874826  64.5565414  14.9753499  19.8187780
  64.3454123  15.7478404  21.1031723  28.2737470  26.8809509  43.3697224
  28.6093903  26.1499715  42.8508329  28.0886841  26.5002060  44.2282152
  12.3297417  19.1553366  44.1573429  12.7794302  19.9899721  44.2892361
  12.3742998  19.0058827  43.2129335  70.4725170  16.7050254  73.9791441
  70.6399727  16.6412377  74.9194193  70.6242275  15.8197439  73.6482430
  62.2279119  18.4971225  86.7261314  63.0451345  18.8105309  86.3386345
  61.9214249  17.8195977  86.1234188  49.1702080  10.7146442  69.9864149
  48.8825369   9.8554003  70.2949238  49.9043417  10.5258167  69.4019318
   0.8998888  88.1623692  13.9625680   0.1756113  87.9581113  13.3710182
   1.1924523  87.3103423  14.2861223  56.3774681   2.7138239  62.6025820
  56.5595150   3.3760113  61.9357967  57.2049665   2.6140407  63.0732441
  72.2505713   0.0169745  17.3302209  72.5821018   0.6003527  18.0128539
  71.3113022  -0.0453232  17.5037837  73.4175301  49.1116428  34.4298172
  74.1048098  49.5449018  34.9359417  72.6263428  49.6158743  34.6195769
  94.5175916  67.3926725   4.3017170  94.5004350  66.4888872   3.9868996
  94.3947250  67.9229392   3.5143444  45.4612398  18.9678383  69.3080568
  45.3472996  18.8939595  70.2555752  45.6570292  18.0762148  69.0201235
  82.1945286   2.5797191  56.6090012  81.9014549   1.9984549  57.3107624
  82.8552818   3.1371570  57.0199823  62.7487469  28.2920218  21.0928702
  62.5613499  27.8921008  21.9420934  61.9691086  28.8110065  20.8952665
  35.2304864  29.6002555  60.2306461  35.5346990  29.3945432  61.1145973
  34.2761040  29.5564532  60.2895451  67.9585028  12.6036477  41.2153721
  68.6732244  12.4056923  41.8205357  67.3122883  11.9157147  41.3747072
  10.4281729 102.0201887  59.1456699   9.5860260 102.4269969  59.3494511
  10.7458132 102.4979950  58.3794880 106.1681570 104.7088314  32.1474814
 105.8915270 103.9052440  31.7070794 105.6217016 105.3935922  31.7618394
  57.7104872  89.7945685  61.2014675  57.0601385  89.1000647  61.3060522
  58.5437601  89.3314309  61.1155081  78.8305044   3.1339768  49.2078781
  77.9700518   2.7341419  49.0814304  78.8362169   3.8833880  48.6124134
  86.5249062   4.9649397  68.6679125  87.0062256   4.1408959  68.7421703
  86.8335056   5.3494728  67.8474665  36.1323881  23.2719970  11.1947393
  36.6092563  24.0053463  11.5833652  36.8049383  22.7601981  10.7453287
  25.1919907  97.1515996  11.6157329  25.1581257  96.3065250  11.1674774
  24.8806256  97.7806110  10.9648657 113.0346693  95.4425020  58.6367941
 112.7107657  95.8882136  57.8540707 112.6757277  95.9480042  59.3660831
  21.8619841 107.1914975  19.7503662  22.2727793 107.0738832  18.8938355
  22.1340149 108.0660982  20.0284004  79.7594833   3.1952399  61.8624640
  79.5624161   3.7874854  61.1367607  79.3158293   2.3788142  61.6325712
  51.3605499   8.8703883  30.7959127  51.0666561   9.6156025  31.3198566
  51.7864752   9.2655492  30.0352144  76.4105892  14.0324700  50.0153351
  77.1268129  13.7620687  50.5899096  76.2037420  13.2491732  49.5055389
  84.2599678  18.0102897  33.5796595  83.7737083  18.3458662  32.8265524
  85.0945663  18.4782803  33.5537362 109.7073377 103.9489908  63.4094572
 109.4198001 104.8251839  63.6660528 110.3204549 104.0992571  62.6899195
   7.3061388  82.4512095  34.2132616   6.9513291  83.1556578  33.6709571
   6.8838661  82.5682135  35.0642776  81.2926960  23.2951736  36.8044329
  80.6530094  23.4929705  36.1203909  80.7789898  22.8889561  37.5025201
  54.0734339  13.0081737  26.2740111  54.8170328  13.5953784  26.4099717
  53.3248520  13.4817088  26.6368008  33.4698361  82.0301480  16.7100096
  32.6633614  82.0493860  17.2252357  33.6465424  81.0989375  16.5763974
  50.5790377  16.0367346  34.7828579  50.4214621  16.5010262  35.6049490
  51.4693165  16.2853611  34.5342112  65.8522129  14.5430219  40.5404329
  66.0829496  13.6442232  40.7752800  65.5343199  14.9296689  41.3563251
  82.9918671 111.3759935  79.0179732  82.2275353 111.3648880  78.4418705
  83.5429001 110.6614245  78.6986187   1.2441843 101.0952372  96.0210896
   2.1527308 101.3222260  96.2191963   0.7283037 101.7833913  96.4412594
 112.1828545 100.1027770  43.2097530 111.7482151  99.8577447  42.3928833
 113.1169308 100.0162156  43.0193758  26.1988037 100.4976745  43.2252407
  27.1302431 100.2787073  43.1987190  26.1735600 101.4493544  43.1257391
  46.3117170  30.0528789  65.0208712  46.1282969  30.1099062  65.9586000
  47.0855856  30.6018376  64.8943710   4.0768886  34.8018074  50.2459145
   4.2359912  35.6321812  49.7971392   4.2638212  34.1335559  49.5865774
   9.3493253   3.7217167  50.0885534   8.6652035   3.4090388  50.6805372
   8.9130181   4.3756765  49.5424747  19.6674454   6.9322431  61.8701649
  20.1952982   7.7187467  62.0080614  19.5224702   6.9038612  60.9244347
  21.6159743 109.5526652   9.2484134  22.0533770 108.7218998   9.4348049
  20.8361977 109.3064428   8.7508678  74.9970007   8.1289190  42.6495647
  74.3947744   8.7681204  43.0303240  75.5892706   8.6507660  42.1081543
  65.3739929   6.9032335  65.9931612  64.6336889   6.9960749  66.5927935
  65.1701307   6.1212116  65.4802132  45.9095097  47.1692467  38.9686418
  45.0261497  46.8086290  38.8920927  46.3779736  46.8182135  38.2113123
 100.7056678  93.7716610  70.9742069 100.5851878  94.7161491  71.0724831
  99.8417057  93.4448321  70.7232428  14.7356432  84.5237918  35.6836224
  15.0307720  83.9151950  36.3609290  15.0745266  84.1563530  34.8673034
  18.3522623 100.3446479  37.9175472  18.3579653  99.7922797  38.6992693
  18.2348316  99.7315497  37.1919084  55.5949515  80.2555652  62.8289795
  56.1712664  80.0342388  62.0974731  55.3273600  79.4093819  63.1875849
  26.8594861   6.4816105  44.6037054  27.5820756   6.6469127  45.2093220
  27.0983577   5.6663471  44.1626644  22.7696532 111.1928358  41.8984413
  22.4943369 110.4977104  41.3007545  23.1286257 110.7296853  42.6553202
   1.1027783  99.9983008   0.1130134   1.8322247  99.9236686  -0.5022672
   1.5070170 100.2928574   0.9291388  18.5409725  19.9050772  37.4089932
  19.3437076  19.3838394  37.4215817  17.8385770  19.2610216  37.3191905
   9.9712151   8.3196467  34.1881466   9.3490815   9.0459841  34.2283440
   9.4697154   7.5583106  34.4798613 114.3975223  88.0300445  28.9430332
 114.1524018  87.1087451  29.0287971 113.6092437  88.4574385  28.6080933
  70.4967165   2.9388031  65.9833384  69.7649479   3.4680691  65.6661224
  70.4510546   3.0137825  66.9365025  33.1467884 105.8348097  32.6580667
  32.1952503 105.8920319  32.5712824  33.4006708 105.1359035  32.0553184
 104.4611419 101.5928228  50.5254650 104.1321982 102.2935374  49.9624109
 104.6701492 100.8793218  49.9225855  57.6152849  40.3835917  60.8586311
  56.7632532  40.2389145  61.2701464  58.0406284  39.5263720  60.8808136
  53.7861300   2.1078241   7.1477604  54.6107006   2.0802839   7.6331037
  54.0436935   2.3156886   6.2496030   5.6156796  98.5026307  36.6943622
   4.8131388  98.1272263  37.0566177   6.2422245  98.4715552  37.4173474
  70.7786226   0.3275273  43.2101679  71.3828897   0.7996091  43.7830830
  70.3324318   1.0143047  42.7147102  59.4175959  40.2619696  35.2461219
  59.6000385  39.3233299  35.2025628  58.5970354  40.3690529  34.7650313
  87.4605560  15.3617299  47.7074480  86.9067764  14.7534692  48.1969118
  88.3318138  14.9661577  47.7332258  50.1882458  50.5238342  23.6591220
  50.7210922  51.3153172  23.5825205  50.7944536  49.8077154  23.4695983
  44.6888351  17.9560113  26.6169834  45.3215599  17.9412591  27.3350835
  44.9411440  17.2193646  26.0602760  68.9929438  37.2807646  28.6083436
  69.7308826  37.0920897  29.1880631  68.5847330  38.0598235  28.9860487
  17.3202574  12.6129103  60.1146698  16.5096211  12.7442682  59.6228886
  17.4234867  13.4159863  60.6252050  90.9900570  38.1106615  35.8963156
  90.5220985  38.9451599  35.9256577  90.3005791  37.4523330  35.8099842
  65.5318975  21.8640733  41.7627144  64.6113539  22.1181560  41.8280506
  65.5082750  20.9332609  41.5407658  50.8593607  20.6759906  27.7815533
  50.0136852  21.0072184  28.0838084  50.7592821  20.5937552  26.8331575
  44.5992201 109.7384169  52.4009085  43.9786261 109.8634439  51.6829538
  45.2860468 109.1843667  52.0300627 115.8331145 107.1726243  37.6256990
 115.7551635 107.4885739  36.7255139 115.7898057 106.2194390  37.5495791
  66.0691547  14.9507451  16.5091920  66.2269545  15.3351486  15.6468904
  66.0785913  15.6964695  17.1092236  49.9371338   1.9980793   7.6029032
  50.5702257   2.5802776   8.0229872  50.3244781   1.1262986   7.6816106
  69.1760492  25.4083943  37.1240473  69.8402691  24.7389579  37.2880507
  68.3748436  25.0493073  37.5053144  58.9364529  45.2983093  58.0103874
  58.1050777  45.7221937  58.2233906  58.9772749  44.5428562  58.5967827
  83.1142902  38.9440203  11.4831424  83.0346394  38.0754805  11.8775105
  83.2404900  39.5338750  12.2263622  79.0681028  21.5837598  47.9908180
  79.7763157  21.5602350  47.3473024  79.1083813  22.4663377  48.3591461
  37.9090762  13.3800888  46.6494942  38.6167693  13.7069046  46.0939837
  37.1469331  13.3462739  46.0713720  49.7578669  29.1125846  32.6209664
  49.5643759  28.1765413  32.6721621  48.9200640  29.5185161  32.3983836
  48.2828808  39.2752671  62.5208139  48.4225988  38.3685923  62.2475863
  48.9137936  39.7800112  62.0075703  72.9924822  10.5203187  27.5475693
  72.4231863   9.8850739  27.9818511  73.7517929  10.5958200  28.1254768
  86.1772442  41.2972116  36.6502047  85.7194519  40.4785681  36.8412089
  87.0605469  41.1634970  36.9938993  76.1556911  13.4874475  45.0175762
  76.6847420  13.8217103  45.7418728  75.9774733  14.2565262  44.4762897
  83.5652637  22.1759987  48.8313961  84.2784500  22.3885894  48.2293940
  82.7941895  22.5916648  48.4455252  46.6620922  16.6916394  39.9133730
  46.0345602  17.1048379  39.3203306  46.1569738  16.0135305  40.3619862
  53.6482000  36.6881013  69.9315310  53.2160807  37.3477101  69.3889284
  53.4156036  35.8534718  69.5246792  85.3577423   3.2037085  12.2596431
  85.0936604   3.0154085  13.1602180  84.9355602   2.5207856  11.7384803
  38.2376099  36.6872954  31.9407725  37.6814294  37.0657730  31.2598538
  39.1152453  36.6838741  31.5587044  53.5326624  26.6701388  66.4023304
  53.0168819  25.8759117  66.2630224  52.8899336  27.3309851  66.6600466
  70.1054716  35.1855659  40.6491137  70.6474829  35.9682608  40.7483292
  69.2075634  35.5017734  40.7491398  34.3911266  60.2550507  36.0739326
  33.7738609  60.9792852  36.1773491  33.8633060  59.5391369  35.7202315
  55.8242893  53.9926243  32.4600220  54.9794054  53.7457800  32.0838904
  56.1671019  53.1802893  32.8326106  52.9021072  30.0052500  78.5952234
  53.1600332  30.3878570  77.7565861  52.3248196  30.6591678  78.9893818
  41.0948896   4.6053901  63.3405542  41.7978191   4.9060234  63.9165258
  40.2900791   4.8290229  63.8079929  55.4474449  18.3589208  50.2591753
  55.8935356  17.7851701  50.8821058  55.2241516  17.7873194  49.5245695
  25.4782128  24.9014854   2.6211071  25.8778167  25.4994917   3.2527193
  26.0534811  24.9406743   1.8570651  69.7920465  41.6763926  56.3220215
  69.3041468  42.2267628  56.9346189  70.5065775  42.2346258  56.0153341
  58.6767769  37.9107141  61.7659044  58.1949234  37.3448181  62.3690701
  59.5516539  37.5247765  61.7226362  52.4905682  38.6239529  65.1253033
  52.7802324  38.2007909  65.9335470  53.2782888  39.0430522  64.7787666
  89.3335056   9.3585771  47.7513981  89.9758244   9.3315566  48.4605742
  89.4490910   8.5269588  47.2917461  92.0810127  28.9642286  32.8421021
  91.7270184  28.1686664  33.2395911  92.4024200  28.6816096  31.9859147
  44.1525078  39.1259837  53.9287043  44.1800594  38.6430812  53.1027031
  44.2572737  38.4542155  54.6024895  64.8674822  52.6195669  25.2569580
  64.8774481  51.9709158  25.9607935  65.1757336  52.1420431  24.4867754
  78.2934427  13.8663805  52.4361324  78.0309725  14.4190049  53.1723070
  78.1094837  12.9738784  52.7291012  87.9961872  32.6443005  43.8436413
  87.4968624  33.1132531  44.5122147  88.7726402  33.1855917  43.7009478
  34.3911266  26.2438178  59.1657734  34.0947461  26.9803953  59.7004175
  34.6808600  25.5884719  59.8004484  75.4763365   5.1329058  44.2247629
  75.4305410   5.0888807  43.2696724  74.8303509   5.7970917  44.4651604
  43.5717010  22.0810795  31.6259575  43.9024448  22.7786541  32.1918464
  44.1553593  22.0910907  30.8673549  54.0094900  29.7139406  27.2234225
  53.8899755  29.3540215  26.3445544  53.1228685  29.7788215  27.5782776
  38.0302954  31.4106369  54.8515415  37.1495628  31.7624450  54.9810457
  37.9374409  30.4702806  55.0043154  22.4908101  50.6045331   5.6945297
  23.3527600  50.2466031   5.9070179  22.2844922  50.2378048   4.8347733
  45.8305025  17.6373255  35.4663396  46.6063070  17.7524984  34.9176192
  45.7542515  16.6896570  35.5774355  26.9296193  38.2647634  54.6679068
  27.0286441  37.3142743  54.7226477  27.3367906  38.5003757  53.8342810
  73.8906574  46.2984705  11.8145645  74.2078495  46.9545269  11.1939144
  74.6594667  46.0726786  12.3381913  66.7617941  16.9084299  19.0986204
  67.6583576  16.9072568  19.4338799  66.2971449  16.2834704  19.6551824
  71.4329576  11.0424602  54.9360228  72.1702337  10.9781814  54.3289661
  70.7492256  10.5017793  54.5405388  68.0215883  25.7912588   4.5806009
  68.0669451  26.3955164   3.8396227  67.1095133  25.5013394   4.5977509
  32.9939771  27.4455404  63.8839054  33.1316733  26.9531465  63.0746984
  33.0689812  28.3630633  63.6216831  60.7662487   5.0454050  41.1344767
  60.8616114   5.3784126  42.0268011  60.8039904   4.0936041  41.2287235
  69.3767071  25.4708004  19.3409765  69.6354532  24.5501924  19.3829739
  69.6982670  25.8475733  20.1600456  90.3074837  13.6719799  35.6996679
  90.1662827  13.0654943  36.4266276  89.5202827  13.5882974  35.1615763
  79.4721222  30.1280093  52.0229912  78.7049627  29.5666409  52.1350765
  79.3251848  30.8574390  52.6251364  31.3015079  18.3117080  53.4713316
  32.1689677  17.9760718  53.2452965  30.7255673  17.9652166  52.7898169
  64.6412563  15.7353902  57.6998043  63.7860155  15.3444171  57.5211143
  65.2685404  15.1309109  57.3031282  22.9410648   1.8084887  70.8823729
  22.4545813   2.6133415  70.7041121  23.7399888   1.8912165  70.3616905
  59.7604084  31.5751958  64.9801493  60.2942896  31.6756558  64.1920424
  59.1632795  30.8558083  64.7748423  49.1439915   2.4472177  40.1371098
  49.7527266   2.2866365  40.8581400  48.3095551   2.0932782  40.4448032
  84.6945095   7.6870340  55.7709265  84.0181065   7.1754777  56.2147951
  84.6366978   8.5561037  56.1679268  66.5852690  41.9932652  31.8927646
  67.0467949  42.4469805  32.5980091  67.2090054  41.9819593  31.1667752
  40.8564043   3.4237093  43.3065796  40.7600975   3.1744847  44.2257309
  40.9326935   2.5916702  42.8395414  85.3758938  67.9199391  96.4384354
  84.6822626  67.7173703  95.8106828  85.4000837  68.8763683  96.4682870
  59.9394512   9.4782937  52.5584364  60.6186485   8.9277542  52.9480934
  59.2109585   8.8795692  52.3939514  40.0189734  33.4933639  33.4680343
  39.3524146  33.9412022  33.9889669  40.0358582  32.6018119  33.8159990
  95.7247574  86.9935578  83.1107154  95.4157764  87.5483649  83.8269213
  95.7361681  86.1103957  83.4796718  21.3174248  21.9988847  54.3520403
  22.1906018  21.8740678  53.9802694  21.4315701  22.6894689  55.0049543
  84.0383720   7.2854960  43.6476231  84.2479229   7.0377636  44.5481539
  84.8760319   7.2428924  43.1863976  58.0180645  10.6972420  54.5005512
  58.7341833  10.6358349  53.8683891  57.4892569  11.4333177  54.1926765
  44.6093416  43.9101076  44.4108486  44.2229605  44.7816753  44.4964027
  44.4123220  43.6479950  43.5115671  44.7670841   1.3714184  50.8796024
  45.3459883   2.0084289  50.4608917  45.2808094   1.0238726  51.6086674
  58.5072470  30.0196576  51.4882183  59.3543339  29.6289396  51.7027235
  57.9431820  29.7887254  52.2262764 108.7967409 111.4806650  79.6482754
 109.7344864 111.5701527  79.8181486 108.5242475 110.7416647  80.1922035
  56.9185560  98.9231784  77.0227623  56.9607371  98.7839968  76.0766745
  57.0110625  99.8698504  77.1299458  41.8606043  10.5792558  36.0714650
  41.6466045  11.5104043  36.1297584  42.5703573  10.5362797  35.4306507
  77.2649956  45.6443453  39.0801597  78.1992054  45.7660198  39.2495012
  77.2255278  45.3104115  38.1839681  14.5674264  69.8268943  90.4587927
  13.7966477  69.6448129  90.9963563  14.2582642  69.7342544  89.5576444
 100.1558018   7.3819101  60.2488470 100.1649189   7.7875531  61.1157990
 100.4759216   8.0660814  59.6609163  52.5614691  29.2650294  67.5943947
  51.6976261  29.6758771  67.5595665  53.0392075  29.7674370  68.2543850
  60.4425335  17.9519176  73.1573868  60.4290915  18.2479012  74.0675783
  59.5289803  17.7464354  72.9588366  62.8018427  39.9979973  58.2931709
  62.1971083  40.7363033  58.2194567  63.4227800  40.1244402  57.5757599
  34.6916318  53.0574894  68.1220102  35.5300999  53.3375025  67.7548599
  34.1563439  53.8509941  68.1291676  50.7865828 108.4561587  29.8363829
  50.6902998 108.8460876  28.9675236  50.0207918 108.7620677  30.3223968
  51.3374090  13.4316301  64.4474363  51.2279654  13.4855390  63.4980392
  50.7176924  14.0720904  64.7967196  69.3437862  24.5341182  62.4041653
  69.5027876  25.1356530  63.1315613  68.4552288  24.7394419  62.1134186
  13.3503032  42.2395802  39.3561435  13.6368060  41.5194941  38.7943411
  12.7862179  42.7714872  38.7947893  59.7993666  78.1346577  90.4438618
  58.9797503  78.4075969  90.8561280  60.1938397  78.9493697  90.1326290
  69.5964432  48.0542469  35.3564119  70.1014709  47.2556925  35.2031374
  70.2545834  48.7179899  35.5626178  63.9800739  22.8581405  19.3175626
  64.4732141  22.2592378  18.7568891  64.6465158  23.4215760  19.7107863
  52.3695183   6.9444436  41.0129595  51.5180635   6.5071315  41.0163927
  53.0012512   6.2376517  40.8803368  28.9182925   8.6444670  67.8022242
  29.3576384   7.8203338  68.0120182  29.0960217   8.7804878  66.8715572
  14.3082636 109.9992488  81.1983109  15.1469725 110.0017669  80.7370186
  14.5262354 109.7283551  82.0901299  40.9613085  61.1898136  63.4693432
  40.7557535  61.8960285  62.8567696  40.2310514  60.5771303  63.3823109
  82.6886463   2.5856641  32.9730248  81.9544601   1.9753201  33.0414009
  83.0608368   2.6123312  33.8544989  61.2804604  37.2197580  27.0776844
  60.9800816  36.3127279  27.1351171  60.5109453  37.7089167  26.7864752
  61.8884802   4.9713358  32.5496531  61.7457247   4.4840717  31.7382169
  62.5602627   5.6158215  32.3269939  32.9926174  93.7700648  57.9573059
  33.3156794  92.8818316  57.8059578  33.3728617  94.2874355  57.2473907
  79.0050888   9.2625171  35.4485440  79.2002583   9.8713529  36.1609077
  78.1728601   8.8608080  35.6980538  20.1579428  40.0389004  70.0580454
  20.8908033  40.4845238  69.6331167  20.5657887  39.5002794  70.7361174
  74.1709423  16.3747704  61.4265728  74.2153311  17.3123658  61.6141224
  73.3548403  16.2665772  60.9382057  58.1423521  12.5029325  31.6280079
  58.9862776  12.5208437  32.0793414  57.9881144  11.5760934  31.4452195
  67.7449703  41.8607998   6.4471650  66.8219566  41.8530512   6.1937571
  68.2135344  42.0687675   5.6388146  42.0785379  32.9189682  45.0416374
  42.6480389  33.4086275  45.6350517  42.6622534  32.2952962  44.6097326
  49.2551804   3.9295748  37.6942110  49.1204500   3.1519926  38.2359171
  49.3023825   4.6522591  38.3200955  34.7345591  47.0339918  49.3029165
  34.5695949  47.9537010  49.5106602  35.2747035  47.0600033  48.5131073
  26.9084334  58.4531260  37.7846599  26.1918998  57.8556299  37.9987001
  27.6905751  58.0224276  38.1295967   4.3397444 106.8118305  33.1594133
   5.1620692 107.2942270  33.0739403   3.7738961 107.1810202  32.4813652
  60.3393650  25.0816703  60.8154917  60.7968616  25.8350587  61.1887693
  60.5083036  25.1406741  59.8751640  47.1688604  44.9387550  67.3786497
  47.7833796  44.2527819  67.1178198  46.4304209  44.8399639  66.7776632
  57.0559788  20.6370568  50.8795691  56.5351295  19.9493730  50.4647970
  57.8430653  20.7006025  50.3385639  54.3525600  27.1774626  20.2677631
  54.8390722  27.0889282  19.4481921  54.8314524  26.6309285  20.8908176
  40.0638390  28.3676314  63.6064672  40.1182699  29.3152142  63.4825468
  40.3539991  27.9998541  62.7717352  45.4625463  28.6003947  67.4778080
  44.5510292  28.4601641  67.2214842  45.9724474  28.1431603  66.8090963
  72.4504709  43.6176014  42.6648855  72.6583052  44.1368437  43.4416914
  73.2646132  43.1582451  42.4589825  46.8340111  31.7569709  68.2570124
  45.9345102  31.5696287  68.5253954  46.7860222  32.6189923  67.8436756
  62.3604488  -0.0194228  62.8199768  62.0413876   0.8328122  62.5231171
  61.6651583  -0.6321610  62.5804901  69.4850349  42.6182938   8.5500365
  68.8753605  42.1986055   7.9430795  69.4422150  42.0818949   9.3416649
  41.9255686  43.1320429  50.1354980  42.8158951  43.0105829  50.4653454
  41.4433622  43.4982347  50.8768606  47.2946757 110.1378187  55.7258844
  47.1844023 109.5803372  56.4961338  46.4110010 110.4458147  55.5246449
  36.4645934  14.3864346  44.4494820  36.4633393  15.1890349  44.9710751
  37.0589352  14.5738804  43.7229443  15.7613790  28.3759451  52.7257586
  15.8640575  27.5050354  52.3420906  16.3758302  28.9258003  52.2396088
  79.2415810  35.7337618  33.4208703  78.5208464  35.1292205  33.2439470
  79.1539526  35.9454727  34.3502426  43.8632584  46.4635992  47.9523945
  43.9837980  46.6924334  48.8739872  44.7411108  46.2376213  47.6449203
  48.2064009   8.1025267  88.4589958  47.9088736   8.8407660  88.9907074
  47.4054861   7.7458400  88.0748844  25.9176445  33.8250470  23.2250381
  26.0076690  34.6827650  22.8097701  24.9819183  33.6304450  23.1723237
  92.9335785  22.7955174  52.7287579  93.1816483  23.7152648  52.6351786
  92.0066643  22.7720642  52.4910307  64.7277021  33.9981914  40.3180170
  65.6025791  34.1518092  39.9613357  64.4152689  34.8675084  40.5688286
  11.8204856   5.9020019  69.1106224  11.5475905   4.9847162  69.0919638
  12.3044336   5.9912616  69.9316311  77.6168966   4.9380499  40.8964443
  77.9761124   4.6401727  41.7321825  78.2227945   5.6191170  40.6044436
  89.8594666  34.6550465  42.8960133  90.1324368  34.5271420  41.9875240
  89.8911572  35.6030655  43.0244207  70.9104872  41.2224913  49.8243570
  70.2674246  40.6348038  50.2210045  71.0472727  40.8695459  48.9451838
  82.0464325  16.6272819  59.8977804  81.8233681  15.9695673  60.5564785
  81.8223572  16.2158728  59.0630579  32.0328450  36.3266492  50.8674479
  31.9900465  35.9542823  49.9866867  32.3784947  37.2097659  50.7375908
  70.2876043  19.1554570  37.9369712  70.4160976  18.4503984  38.5714889
  69.3371916  19.2302525  37.8512311  47.6610231  43.0935621  33.6431575
  46.7060089  43.0387688  33.6774826  47.9565525  42.6099491  34.4145274
  57.7776146  21.7121553  82.6425457  58.4681988  21.3506866  82.0869637
  56.9663906  21.3610888  82.2752476  32.5691819  18.3771217  29.7268558
  33.2729840  18.5429394  29.0996408  32.0664430  19.1914964  29.7435474
  53.6327934  25.2113080  57.8665018  52.8448772  25.3244925  58.3981085
  54.3536139  25.4304934  58.4569311  69.9486542  23.7289476  30.3754997
  69.7774553  24.4112325  31.0246611  69.2452812  23.0928445  30.5054021
  28.0328345  23.9962792  55.8337164  27.4897885  24.1344619  56.6097546
  28.6065674  23.2672834  56.0695744  71.9335270   1.2201157  73.6872673
  71.4189291   0.8971216  72.9476118  72.8427601   1.0597202  73.4346867
  18.1940925  43.9144659  56.2582684  17.7814364  44.6213818  55.7620621
  18.2183599  44.2367506  57.1592569  38.8955903  37.3292661   7.3969710
  38.5790920  36.9950485   6.5577102  38.2636786  37.0037985   8.0380565
  65.7027721  41.1283970  43.5185623  66.5496206  40.6998491  43.3943701
  65.4312611  41.3824511  42.6365376 117.9242992   8.8648808  88.2882786
 117.5768757   9.5318878  88.8804245 118.6099339   9.3157673  87.7954960
  55.5695486  31.9092321  58.3004284  55.8047438  32.4917865  57.5782490
  56.4090347  31.6216397  58.6592960  61.4451504   7.8128356  54.0161705
  61.6342974   6.9412583  53.6685991  61.8882847   7.8338015  54.8643589
  63.7462091   4.4001940  61.7763615  63.4320068   5.3040451  61.8000317
  64.1866112   4.2776191  62.6173496  80.4369545  16.9031501  43.5543203
  80.0968647  17.5344312  42.9202414  80.8528996  17.4408889  44.2281628
  71.8690681  42.1912003  11.9219160  70.9184790  42.2588778  11.8323076
  72.0661163  41.2806034  11.7023408  37.9585648  17.7359998  60.8037186
  38.5425568  17.8598487  61.5519476  38.5347152  17.7788353  60.0405359
  27.5876427  46.2949276  21.5383244  28.0392051  46.3581419  20.6967020
  26.7992377  45.7860136  21.3494992  80.9374237  34.0449286  21.9377685
  81.7647266  33.9968705  21.4587092  80.2698517  33.8357043  21.2844658
  80.6301594  11.5928221  18.9608347  81.3754368  11.3099515  18.4309506
  81.0238457  11.9461536  19.7585845  69.0289831  23.9385247  34.5156670
  68.7836933  23.0353427  34.3148518  68.5051489  24.1636753  35.2845240
  66.4772177  15.9969079  24.5150399  66.5674829  16.6922390  23.8634276
  66.9406891  15.2506912  24.1347957  39.5474547 104.8338176  66.3460016
  40.2687519 105.4540510  66.4521885  39.0539139 105.1664890  65.5963516
  50.2341175  25.1648617   8.2391900  50.8863926  24.8387814   7.6191586
  50.0204229  24.4066167   8.7829101  49.5363379  39.6418023  93.3097172
  48.9781618  39.1706562  92.6910973  50.4016542  39.2476416  93.1997395
  47.2263765  15.7656670  55.6524706  46.2760162  15.8660793  55.7068729
  47.3561239  14.8562956  55.3833246  66.4925861  24.5505142  61.4682102
  65.5540180  24.6462393  61.3064623  66.8057346  24.0057707  60.7461166
  13.8502173  28.1714582  12.0164633  13.7192302  28.1930208  12.9644144
  14.7230296  27.7949882  11.9037795  62.7014160   7.0377088  10.3093040
  63.4954643   7.1253830   9.7820157  62.8690004   7.5723886  11.0853624
  30.7182384  48.8269997  41.8182802  29.9385023  48.9948082  42.3475122
  30.9995484  47.9496336  42.0777416  45.2826834  36.2361741  82.9876137
  44.9592447  35.3909087  82.6759338  45.9527874  36.0127926  83.6335945
  34.7899693  87.7502794  54.3270445  34.2969626  87.7580519  53.5066080
  34.1191929  87.7664537  55.0097084  41.6201353   6.6367912  34.4992805
  42.0649672   6.5342611  35.3406143  41.1613035   5.8070087  34.3682551
  35.1302600   0.5345662  37.4527049  35.0044823   0.8765677  36.5675807
  35.9674692   0.0721597  37.4140835 113.0322875 110.5073265  50.7494116
 112.6147903 109.8753205  50.1641750 112.9884971 111.3378298  50.2755117
  65.3964853  30.2769375  24.3626499  65.2165985  29.9451876  25.2423143
  65.4662943  29.4914603  23.8200736 113.2840616  56.4608805   0.8405277
 112.8070814  56.3592296   1.6641686 112.9812700  55.7334313   0.2970478
  46.0110521  20.1527071  49.4945097  46.7399073  20.6628609  49.8476934
  46.1614704  19.2644656  49.8179770  69.9978256  26.4618397  25.0946784
  69.7973108  27.3813176  24.9197984  70.1306391  26.4215946  26.0417652
  39.2872429  31.6041732  59.1412401  38.7353730  30.9900928  58.6569118
  39.7095895  32.1322775  58.4637737  18.5188263 111.0257056  87.8176975
  18.9328879 111.2314991  86.9795895  18.7637871 111.7522930  88.3906746
  42.3660374  49.2889404  27.1330738  42.3243713  50.1878977  26.8069291
  43.2944775  49.1426945  27.3143005  86.4193153  22.0695233  57.8560305
  86.9121170  22.8778124  57.9976082  86.4981556  21.5930629  58.6824703
  64.0833807  10.3106558  28.6641026  64.3866396   9.5059532  28.2437253
  63.9289284  10.0613558  29.5752692  44.4790459  67.3584461  13.5820675
  44.0730333  66.9213581  14.3306255  43.9558411  67.0810509  12.8300428
  32.2918797  37.1106243   2.1090516  32.9108596  36.4831161   1.7357835
  31.6393137  37.2414923   1.4211106  86.2372875  11.9606733  34.8941064
  86.7110348  11.4001107  35.5085707  85.5096245  12.3149419  35.4052138
  79.1942644  14.7600842  23.9635062  79.8831797  15.1784062  23.4471416
  79.0213966  13.9356267  23.5089493  67.2862196  34.1103530  35.8165312
  66.6610813  34.2641997  35.1081800  67.5714159  34.9856877  36.0786080
  29.7284698  26.9631720  48.8645363  29.9181128  27.3146939  47.9946518
  30.5189514  26.4799857  49.1051626  48.7811852  23.6179137  52.0299864
  49.7127771  23.4264827  52.1382236  48.7235451  24.5712304  52.0939827
  12.3730963 111.1469756  42.0141888  11.5183037 111.1125089  42.4435759
  12.3599451 111.9665533  41.5198660  45.4132288 106.5645717  18.3478749
  44.6424311 106.7908530  17.8273892  45.1659220 106.7783425  19.2475271
  40.1813269   2.9866657  29.4002056  40.7155561   3.0357283  28.6074758
  39.3278718   3.3298573  29.1354990  55.8905172  25.9928942  59.3362236
  55.8279896  26.8559527  59.7454309  56.5136528  25.5135179  59.8822403
  72.1108627  36.6871643  11.3415062  72.3999739  36.4172697  12.2131741
  71.9976664  37.6352072  11.4095783  50.4593372  20.0972462  51.7894554
  51.2588501  19.9124599  51.2966394  50.5403852  21.0171819  52.0412064
  35.2919745   2.3131843  53.6755180  36.1960149   2.1466100  53.4086895
  35.2758741   2.1055523  54.6097898  61.4126110   0.7164156  59.5088911
  62.0221138   1.4302909  59.6962929  60.7822800   0.7444763  60.2287006
  60.5006838  22.6579928  43.3199358  60.9428167  23.0715442  44.0613699
  60.1693344  23.3901429  42.7999449  49.3044329  29.8811746  71.9655371
  50.1671410  30.2703404  71.8223000  49.1050100  30.0715256  72.8821754
  90.5389214  36.8862200  31.1059546  91.0986996  37.6626301  31.1141658
  90.4122543  36.6920853  30.1772475  48.0919838  33.7510610  34.7339249
  48.9564848  33.9006877  34.3511939  48.2232761  33.0274439  35.3466010
  99.6018600  11.8845248  45.7080412  98.6462402  11.8952560  45.7620430
  99.8677731  11.1868167  46.3069773  61.7600346  33.3328557  54.1571331
  61.2609768  34.1412067  54.2743492  61.1133862  32.6932764  53.8587761
  93.6852932  28.6053205  42.3945951  93.7649918  29.4795489  42.7761698
  92.7894211  28.5711408  42.0592117  61.4539194  28.5590792  49.7101688
  60.7469082  27.9762316  49.4333029  61.2885141  28.7110686  50.6406355
  72.5797939  43.9664316  62.1852016  71.7523527  44.4367838  62.0834970
  72.3620033  43.2151747  62.7369308  94.7434807  42.4451113  21.1230302
  94.7484207  43.3873653  20.9546208  94.4506264  42.0560503  20.2989578
  80.3794861  18.1370687  23.2944965  80.5896759  18.7902951  22.6271534
  80.4902172  17.2965193  22.8501463  49.7030210  49.4531584  48.2866955
  48.9276409  48.9037752  48.1718111  50.0054836  49.6298647  47.3958969
  73.7287474  42.5950241  20.5732918  73.4143639  43.2747126  19.9771214
  73.1304121  42.6353550  21.3193512  54.2708445  41.4770603  30.9229851
  54.8386049  41.0474586  31.5627670  53.4449911  41.6115713  31.3878560
 100.1642418  59.9635649  68.3054113  99.7088051  59.8805857  67.4676037
  99.4630909  60.0231886  68.9543009  83.6137581  45.8239794  39.1327000
  82.9479313  46.3017559  38.6380982  84.0899658  46.5028000  39.6108866
 101.9985104  55.8761311  41.3231945 101.0983753  55.7050705  41.0461903
 102.5377560  55.3941727  40.6961775  81.5003395  45.4853964  30.3493094
  80.7923412  46.0881567  30.1220345  81.1558056  44.9772787  31.0837150
  73.1019163  21.7062616  53.7965250  73.4333944  22.5817966  53.5970497
  73.0317116  21.6884446  54.7509813  67.5085545  64.3750381  54.7643423
  67.0678425  63.6101627  54.3942451  68.3502293  64.4097471  54.3098021
  77.8509521  24.3509960  68.4787846  78.8051605  24.4185066  68.5129642
  77.6767302  23.8061738  67.7112865  73.2161379  50.1789761  48.3994675
  73.6347485  49.6925116  47.6892948  73.9062309  50.7490873  48.7385464
  87.9520702  54.8176527  38.5097075  88.7947941  54.7990942  38.0561662
  87.6521683  55.7223129  38.4209347  90.8908081  56.8698502  47.0662260
  91.6417027  56.9236040  47.6574087  90.2792263  57.5285482  47.3953390
  88.2404423  13.4180105  91.3549805  87.9263401  13.9514494  90.6249046
  89.1944695  13.4631264  91.2915134  81.6584587  51.6122723  47.1631336
  82.3653316  51.6533566  46.5190220  80.8635998  51.5080166  46.6401100
  76.9303465  24.6224523  60.2620268  76.9352722  25.5753875  60.1718998
  76.0800695  24.4233346  60.6539679  98.6299133  39.2669201  15.9543002
  98.7138176  38.3302069  15.7760894  98.4579563  39.3173814  16.8945742
  77.7166414  47.6627398  57.7903605  77.1432209  47.1854544  58.3900452
  77.9444265  47.0224667  57.1162748   6.5805583  30.4704213  60.1374340
   5.8869509  29.8155236  60.0583506   7.2407870  30.0543070  60.6916618
  59.3786383  12.1263397  51.9573545  59.3907261  11.1931205  52.1699286
  60.2798510  12.3259676  51.7039871  60.1418543   2.0509344  76.1440229
  60.4424429   1.1887962  75.8566284  60.0393772   1.9651680  77.0918512
  87.0019817  45.0338936  38.5835981  86.3872433  44.7726536  37.8979731
  86.6829395  45.8865929  38.8791466  73.6294699  26.2262678  43.6194658
  72.9773474  26.5405893  42.9932308  73.5413027  25.2733541  43.5990810
  60.8602285  38.3013010  52.1793413  59.9193239  38.1652594  52.0678520
  61.1878443  37.4600196  52.4973726  86.1585522  30.0622678  23.9503431
  85.8216190  29.2953849  24.4135904  87.1000004  29.9046278  23.8792324
 110.9182054 100.1174920  95.1700917 111.0096962  99.3839687  94.5619750
 110.0246364 100.4321473  95.0331077  60.6116438  77.5929928  35.7452202
  61.0951233  76.7986298  35.5183482  61.1730337  78.0429697  36.3765621
  74.3567371  34.7983551  57.6478004  73.7047720  34.5428443  58.3003950
  74.0291262  35.6246901  57.2927332  48.4490108  36.7107964  47.8603172
  49.0248108  37.0822430  47.1919537  48.5030413  37.3258948  48.5917330
 106.2456417  47.1164417  35.1849842 105.8656216  46.4564323  34.6051502
 107.1842003  47.0863914  34.9994612  45.6431055  22.1597052  74.9643707
  45.5397367  22.7697587  74.2340422  46.5688705  22.2222376  75.1994896
  68.5512352  48.2183123  15.9056115  68.7629795  47.5837612  16.5902567
  68.7694407  47.7705240  15.0882375  67.8444433  61.1083269  58.1755304
  66.9278765  61.3783932  58.2320309  67.9274750  60.4062176  58.8208055
  66.4308596  38.0338836  48.6682701  67.0380545  37.2941923  48.6482000
  65.6407261  37.6840520  49.0800238  70.8958197  35.0472093  57.4785805
  71.3306999  34.9625087  58.3270741  71.5501213  35.4589295  56.9141293
  43.5581684  43.8383389  13.1009328  44.2879248  43.3863306  12.6773977
  43.3300877  44.5441818  12.4959564  59.5108700  28.1964302  60.0677919
  59.0653276  27.5370216  59.5359039  60.4215002  28.1653905  59.7745085
  35.4674935  25.8048177  28.9753103  35.3125334  24.8774338  28.7959170
  36.2670779  26.0119915  28.4916019  48.6528063  23.3653188  41.5507841
  49.5905495  23.4458780  41.3764763  48.5809326  22.6051593  42.1280432
  88.1757164   2.7428782  29.9221420  87.3822117   2.6358864  30.4466701
  88.8753128   2.8536087  30.5659914  87.5979328  25.3340983  66.3220119
  86.7351913  24.9731255  66.5259647  87.5719261  25.4988122  65.3794479
  78.8522911  64.6370220  20.9469461  79.6297169  64.2320776  21.3314748
  78.5307455  63.9898252  20.3192711  98.1495667  51.2266159  54.4304657
  98.6108398  51.9303608  54.8867607  97.4563599  51.6714191  53.9427757
  90.5804062  52.8111267  56.8207788  90.5599117  51.8606615  56.9322491
  90.4732800  53.1584930  57.7062654  70.9717369  24.4082189  79.3761158
  70.9151983  25.2085137  78.8540411  70.1554012  24.3899202  79.8756027
  66.8932199  31.5545440  33.0760884  66.9179153  30.7972193  32.4912095
  65.9624243  31.7606640  33.1618786 105.1198673  68.3560801  50.9181881
 105.0951099  69.2005110  50.4681301 104.4866276  67.8147697  50.4467916
  64.1123486  58.4856749  22.6544380  63.4668732  59.1741753  22.8143239
  63.5939407  57.7323532  22.3716116  89.4382572  16.2782407  33.6416435
  90.3886795  16.2858999  33.5281396  89.2240524  15.3598833  33.8058543
  71.2230396  46.6410065  57.6225471  71.4839315  47.3936939  58.1532335
  71.7698193  46.6993093  56.8390512  73.0584574  38.1492305  33.9977551
  73.9612532  37.8344464  33.9519072  72.9344940  38.3882284  34.9163103
  76.3899088  61.0403728  48.0792522  76.8615055  61.6544151  48.6420870
  75.4800510  61.0985518  48.3708096 102.8215313  47.8023195  48.2628202
 103.4625435  48.3454800  48.7214136 103.2354736  47.6001358  47.4237680
  72.9006147  55.4763317  54.7529316  73.8024521  55.2753019  55.0029469
  72.7464485  54.9497271  53.9686155 118.1529236  53.2802391  52.4545288
 117.4251270  53.8924646  52.3462391 118.8385963  53.6190701  51.8789625
  77.1711159  31.4963150  42.8898621  77.1998644  32.4283433  42.6736927
  76.2440586  31.3147235  43.0441904  70.2746630  47.1179485  45.1186705
  70.4206038  47.3806381  44.2098665  70.8972788  46.4058018  45.2650738
  54.0654612   2.6621741  29.5781279  54.5585680   3.4817505  29.5410848
  54.6870136   2.0243353  29.9289370  65.3208923  43.8603592  19.4296122
  65.1883554  42.9283190  19.2565024  65.3849840  44.2584610  18.5614884
  52.1438169  21.4585590  34.1457963  52.5329065  21.2868047  35.0033188
  52.2884893  22.3934722  34.0000582  72.5934410  21.3348651  43.1593657
  71.7551613  21.7456341  42.9477310  72.7348614  20.7024097  42.4549294
  82.7529240  20.0285697  38.6776233  82.5708294  19.5050216  39.4579887
  82.0128250  20.6324983  38.6163163  96.0686493  22.8223324  51.8134975
  95.1146030  22.8892112  51.8529129  96.3217449  23.4196377  51.1096525
  73.3719921  10.0018430  32.6654363  74.2331934  10.2646220  32.9902649
  73.5450172   9.6330941  31.7992258  64.1243887  29.3006063  50.2367783
  64.4408560  29.3745995  51.1371136  63.2581949  28.9017177  50.3193855
  77.9997826  39.8339248  50.0197554  78.4576464  39.5285082  49.2366171
  77.6235962  39.0409851  50.4018021  92.1626282  42.3148489  30.4213738
  93.0216122  42.6105738  30.1198411  91.7732239  41.8909025  29.6566105
  67.8670502  43.7566900  57.3634052  67.0823860  44.0039730  57.8526735
  68.5879850  43.9077234  57.9746914   4.1658549  32.0033121  34.2764330
   4.7677378  32.7307320  34.1188526   3.3277468  32.3058605  33.9267635
  38.2680440  28.9675188  49.2037916  39.0688872  28.5323071  48.9114380
  38.3503819  29.8640990  48.8788366  53.6809874  25.5484557  50.6502771
  54.3769026  26.1999965  50.5640841  53.7583494  25.0097799  49.8628283
  56.7775011  40.6834459  28.8182211  56.0562611  40.9276867  28.2382321
  56.4186668  40.7799244  29.7003579  82.2661495  46.6636229  47.7196503
  82.9434204  46.7286301  47.0463657  82.6478291  46.0960722  48.3893061
  67.1028137  12.2111309  59.9753428  67.6515913  11.4486802  59.7916460
  66.2281847  11.8484616  60.1157904  61.1041975  24.3199015  73.6216211
  61.8374300  24.2459941  73.0107689  61.5024424  24.6201253  74.4386292
  66.6129255   5.0712568  27.2803116  67.3423624   5.0389147  27.8992724
  66.4010525   6.0019267  27.2082353  88.8542175  39.9245644  60.2013969
  88.3132935  39.1589284  60.0079393  88.4756374  40.6255484  59.6708059
 108.3266068  11.4435828  42.2310591 107.7428055  10.7456768  41.9338512
 108.1093407  11.5599453  43.1559849  78.5392332  32.3558187  35.9079170
  78.1228209  31.4939642  35.9142947  79.4137764  32.2019291  36.2653065
  33.4425664  44.4799709  44.8189068  33.2110095  45.0081444  44.0549374
  32.6118040  44.3380880  45.2727079  64.1838074  22.0907497  26.0992432
  64.5479631  22.8487277  26.5565109  64.9401999  21.6738343  25.6865883
 100.6278801  14.5859528  68.0446482 100.9657383  14.4168520  67.1651697
 100.0847435  15.3679788  67.9463100  91.1479282  27.8022170  45.4312372
  91.1423683  27.9964542  44.4939709  91.0462856  26.8516517  45.4794550
  77.7584219  69.3786716  35.9948182  78.6381245  69.0223551  35.8707714
  77.2402716  68.6353874  36.3034916  61.8595934  28.5444713  45.1644611
  62.3126268  28.2353950  44.3799496  62.1594524  29.4468212  45.2743578
  33.4983516  20.0803375   1.7856371  33.0656648  19.2445982   1.9604400
  33.5987306  20.1036453   0.8340003  77.9250908  61.2753248  42.9525566
  77.7546024  60.3836823  42.6490164  77.9477692  61.2032700  43.9067698
  75.2421761  69.4345140   7.4898660  74.9088049  70.3036022   7.7129734
  75.2660036  68.9657068   8.3240646  87.8515911  34.3098116  38.1453037
  87.5997448  34.6497750  39.0039229  88.2992554  35.0412202  37.7200079
 104.2592335  50.6590033  41.8906260 104.4853115  51.4401627  42.3955154
 103.9728737  50.0240421  42.5471687  77.7943707  26.5838623  41.0905695
  77.3640060  25.8213735  41.4773893  77.0775604  27.1073818  40.7323265
  69.2156553  54.4331121  46.5773201  68.9665890  53.5399389  46.3397503
  69.1161108  54.9330473  45.7671404  96.6203022  42.9572058   4.5932651
  95.8679485  42.4765968   4.9385414  96.2735081  43.4365082   3.8407791
  69.8644590  29.6628070  46.4512587  69.9058437  30.6187892  46.4761543
  70.6450033  29.3768430  46.9258118  55.1044559  21.2800431  25.9578681
  54.6952391  21.2602687  26.8229580  55.4252338  22.1771097  25.8650970
  87.9605389  51.4841127  47.5081015  87.6979542  51.8762589  46.6753292
  87.9474831  52.2115850  48.1300735  80.7941151   5.6430429  17.5555325
  80.5050850   6.2230843  16.8510866  80.4748154   6.0603601  18.3556104
  75.8920956  17.2962105  68.6742067  75.8664513  18.0216360  68.0502415
  75.9209538  17.7193046  69.5323372  85.7427597  13.6815012  49.0148401
  85.1924610  13.8056421  48.2415390  85.2507496  13.0705261  49.5633554
  76.9628859  51.3870049  56.1750984  77.9100513  51.4970303  56.2587929
  76.8312979  51.1303473  55.2623892  73.5250616  41.0638762  46.7807961
  73.7341070  41.8985271  46.3614035  74.2974138  40.8609438  47.3085499
  70.2051401  48.3517933  42.8397036  70.6908846  48.5378742  42.0361757
  70.0373459  49.2127180  43.2229614  75.8180475  20.3442049  22.4563789
  76.0586119  20.7176709  21.6085076  75.0875473  20.8845067  22.7574992
  77.0683289  34.1869688  37.5358820  77.5350142  33.4956670  37.0662689
  76.7368126  34.7628427  36.8468976  12.9777163 110.8968964  34.6570134
  13.6781376 110.6726250  34.0443635  12.4480694 111.5426237  34.1893172
  85.4212475  60.5754328  32.4228811  86.3248634  60.7221508  32.1432686
  85.0641251  61.4543819  32.5499153  72.1582651  21.2103271  25.8713412
  71.4991951  21.8519998  25.6065488  71.9607735  21.0294199  26.7903090
  70.5468559  11.6090977  24.9846363  71.3823843  11.1754036  25.1579404
  70.6345797  11.9512141  24.0949774  79.6871042  47.2912979  29.7099423
  78.7400246  47.4089241  29.6362185  80.0452137  48.1753588  29.6297956
  85.8449554  29.4919014  36.3037205  86.2534332  28.8417816  35.7321215
  84.9474525  29.5658660  35.9793091  55.9401035  44.1446066  15.3331614
  56.5557909  43.5342693  14.9273956  56.4827871  44.8819494  15.6125283
  85.5120277  37.1951127  47.2693920  86.1929893  36.9462061  46.6444302
  85.9848213  37.6338983  47.9766178  69.2845249  25.1566696  43.9305878
  69.6399546  24.4826174  43.3513165  69.1803169  25.9246325  43.3687973
  95.9892082  20.4692864  25.6346965  95.4530811  21.2516713  25.7637811
  95.9173965  20.2814507  24.6988583 101.4825153   7.7657008  43.3131981
 101.1522484   7.9012942  44.2013264 100.8852386   8.2654548  42.7566528
 111.4400005  26.8009520  38.7563729 111.7392731  25.9697795  38.3878350
 111.3960361  27.3936486  38.0060339  71.0061646  48.9368343  49.3281174
  70.1921463  49.4283342  49.4378090  71.6484642  49.5939779  49.0600824
  74.0663481  23.6541581  43.9331055  74.4512844  23.6317205  44.8092079
  73.6480713  22.7989912  43.8333035  98.6493015  23.5374975  53.2084370
  98.5504532  24.4886756  53.2498646  97.8692722  23.2356763  52.7429438
  91.9376850  46.9632196  48.8694477  92.8113174  46.7034388  49.1618538
  91.8254757  47.8509712  49.2093658  61.4838362  33.2041860  66.5803480
  61.0027266  33.1256056  65.7565832  61.3347197  32.3699260  67.0253277
  15.2458990  10.8450162  54.3088150  14.4226396  10.7595742  54.7896194
  15.5351603   9.9436420  54.1670990  70.1104164  16.0229659  88.3046436
  70.4316044  16.6314125  87.6391697  70.2516842  16.4790058  89.1342831
 108.9424610  48.9826584  38.9910626 109.8187256  48.6647320  39.2085767
 108.9866734  49.1864967  38.0568647  76.6336298  20.1478529  37.4354959
  77.4476290  19.8117805  37.8105903  76.8133259  21.0719442  37.2622871
  65.6446075  32.1803403  60.1995516  66.3190365  31.5013695  60.1801109
  64.8692703  31.7379570  60.5450630 113.2683086  19.7132134  58.3021784
 114.1436005  19.7543120  57.9169273 113.4111691  19.8588109  59.2373896
  52.6912689  32.9079175  57.0676947  53.1549454  33.6102653  57.5237083
  52.2481060  32.4223423  57.7634335  63.7937975  35.2556896  60.9695768
  63.1789255  34.6662188  60.5328989  64.5628643  35.2645206  60.3997660
  59.2722178  51.5784597  15.2814484  60.1699638  51.8094683  15.5200267
  59.2513943  51.6523409  14.3273306 104.2857933  38.8221669  42.9923725
 104.6328068  38.0485463  43.4365892 103.7433910  38.4700012  42.2866774
  74.7873640  43.0080318  44.9945021  74.9463511  42.9940557  44.0507030
  75.4933643  43.5489559  45.3483343  26.9373053   3.6788510  86.4456859
  26.1680477   3.7854574  85.8861247  27.0688027   4.5415591  86.8389794
  65.2607727  26.8074656  49.0744638  64.9876261  27.5473809  49.6168184
  66.2012148  26.9356632  48.9504910  59.3522882  31.9528222  53.7492371
  58.4219360  31.9276404  53.5255241  59.4102526  31.4899373  54.5850658
  92.3352337  57.9534054  52.1862698  93.0152035  57.5137424  51.6758108
  92.2299671  58.8048601  51.7618036  81.6387653  41.0529518  32.5909710
  82.5249672  41.2064695  32.2633862  81.2229538  40.5176830  31.9150901
  89.3306160  21.7648911  70.1972151  89.3837261  21.3939977  71.0780382
  88.8097477  22.5608993  70.3035212  64.7507048  28.3371091  38.3713365
  64.8932743  27.7192974  39.0884233  65.5839872  28.3541203  37.9006124
  77.6024151  27.0960784  78.7192249  77.0343304  26.3821816  79.0088177
  77.0468855  27.8746557  78.7571239  57.4242640  19.3498528  22.1685934
  57.4357414  19.0560985  21.2576532  58.3320713  19.5899272  22.3542905
  80.7199860  28.3951283  69.0605354  79.9943352  28.1472611  68.4876204
  81.2744522  28.9543891  68.5164547  86.5359402  38.2759237  37.3075819
  86.6638279  38.2032084  36.3617563  87.3989105  38.0958343  37.6805091
  79.9359989  20.5735397  71.0506916  80.7218552  21.0261941  70.7444811
  79.2205667  20.9761310  70.5584431  81.2017059  20.8579755  64.8254538
  80.3332615  20.5411363  64.5771694  81.7576408  20.6451535  64.0758705
  82.1008587  36.2154675  26.5714741  82.4543095  36.6574144  27.3434734
  81.2116337  35.9669018  26.8239212 102.7175236  52.1340847  57.2007704
 102.4560261  52.4998236  56.3557386 101.8958950  51.8578386  57.6067734
  62.2101831  40.5083990  52.4409676  61.5878534  39.8735476  52.0861435
  62.7045631  40.0178766  53.0976343  78.6728341  86.8553775  93.6226144
  78.5625202  87.5743502  94.2448202  79.5966369  86.8927258  93.3747783
  76.8458366  35.2046776  18.3165264  77.5214005  35.4364228  17.6792347
  76.1860800  34.7351408  17.8061473   9.0158003   7.9477976  87.2167292
   8.6103886   8.6746739  87.6895222   8.2833117   7.4973295  86.7962834
  97.6268005  20.8506417  47.8063011  96.9145489  20.3784394  48.2375288
  98.3383846  20.2127719  47.7514744  72.0150948  65.0923967  41.1459589
  71.9951487  64.5458269  40.3604031  72.0226002  64.4684029  41.8717718
  78.2262897  27.1195674  21.5690732  78.9043140  27.4390268  20.9737110
  78.5951996  27.2476172  22.4429965  73.9124393  37.4228978  25.3135586
  74.5494270  37.8616095  25.8774853  73.6979103  38.0724525  24.6440148
  62.0871830  41.6155863  37.5248504  62.6069784  42.2014618  38.0751181
  61.5157509  42.1995878  37.0262146  57.8200865  13.4205782  17.6329076
  58.6219645  13.9107561  17.4514031  57.3972225  13.9067388  18.3407664
  81.8807983  29.7726011  47.3761845  82.5654221  29.1437745  47.6044512
  81.1027050  29.4568348  47.8356266  42.1523857  44.3847418  60.5012226
  42.7652550  44.8482561  59.9304533  41.2973070  44.5163870  60.0916624
  63.6775541  24.0663052  72.8221655  64.2019415  24.4087863  73.5460186
  63.8908768  23.1336617  72.7921724  83.9418411  26.8788934  53.1456089
  84.6332073  27.1325064  52.5341082  84.3806839  26.8257475  53.9946270
 112.6372719  14.6883380  48.5565281 112.3641396  13.7713492  48.5840940
 113.5937309  14.6539068  48.5713720  77.2156477  72.0991087  41.1122322
  76.8306446  72.9754543  41.1064434  77.3500156  71.9026518  42.0393705
  36.2598246 111.3158510  66.2906408  35.3969496 111.7188852  66.1945105
  36.5728968 111.2032131  65.3931284  75.3142738  23.8278580  35.0472736
  75.0263500  24.0725565  35.9267354  75.3901768  22.8741288  35.0768018
  72.1646595  42.9211569  55.3557634  72.7298737  43.1987286  56.0766840
  72.3899889  42.0015430  55.2151632  97.3464680  44.5206881  42.8460503
  97.7347374  43.7756395  43.3047295  96.4279461  44.2779064  42.7293873
  91.2597275   3.3409086  91.0694885  91.5203285   4.2368141  90.8557701
  91.3797855   3.2761002  92.0169163  85.8300591  10.6463873  28.1900263
  86.1790371  10.8445120  27.3210073  85.4098701  11.4594233  28.4704638
  30.6765383 111.0361823  53.6447048  30.9689015 110.5685322  52.8623629
  30.3858822 110.3464748  54.2414045  71.8807888  47.9258394  52.0280123
  71.5938854  48.3254433  51.2068939  72.1385670  47.0367575  51.7844725
  72.4001598  22.2057819  59.7156286  71.5520334  22.1169448  60.1503992
  72.6278734  21.3146806  59.4504547  86.0020638  36.3153934  26.4383674
  85.6370926  35.4566050  26.2250471  86.6256714  36.1421514  27.1435857
  81.1932659  55.0557137  32.3920608  81.3370037  55.9492350  32.7038169
  82.0657349  54.6620941  32.3825622  55.6542015  28.5840249  60.3959465
  55.9937859  29.4346905  60.6739378  55.0864983  28.7843394  59.6517563
  70.9555960  16.0966277  39.2108035  70.2966261  15.6514549  39.7435451
  71.4998198  16.5642238  39.8443699  73.8362789  43.7495852  47.8157043
  74.3540001  43.4175825  48.5491705  74.4856119  44.0728188  47.1911097
  95.2584267  34.8299241  53.2975674  95.1432610  35.5671048  53.8971806
  94.8959732  35.1379442  52.4669170 116.6854954  72.7594185  48.4484053
 115.9020424  73.1749439  48.0881739 116.8152428  73.1864262  49.2952013
 113.4835339  44.8511124  35.5444694 114.3023300  44.7385788  35.0616217
 113.5021400  45.7618141  35.8385897  78.8848829  43.8614988  53.4987974
  78.9009476  43.2935667  52.7284527  79.6320248  44.4478703  53.3796883
  23.0334794 109.3888276  94.4186908  23.4704148 108.5431569  94.3179044
  23.5913693 110.0047868  93.9437380  44.7417498  86.2497711  64.2680788
  44.2327976  86.6238976  64.9872637  44.5545816  86.8182850  63.5210896
  62.7933359  43.6598158  39.3153930  62.1971798  44.2218351  38.8204527
  63.5667753  44.2036676  39.4645524  84.9302673  47.0667219  50.1980972
  84.2540073  47.7266312  50.3511572  84.6941662  46.3428211  50.7781410
  73.9718342  50.2437592  54.5053768  73.4308720  49.8315620  53.8318157
  74.6475077  49.5944214  54.7004652  67.5658703  68.7475538  55.7566786
  68.1449604  68.6683035  56.5147018  67.0341730  69.5217800  55.9413671
  81.9742298  39.0894413  15.3016222  82.4571609  39.8426437  14.9614811
  82.1421337  39.1029191  16.2438834 102.0062923  69.3958998  58.0580664
 101.5648270  68.5498524  58.1325626 102.7074528  69.3583012  58.7085915
 102.6511192  57.6951408  19.3670869 102.7785206  58.5189199  18.8965642
 102.4850082  57.9593801  20.2719736 111.6732597  69.6319628  59.9914598
 112.5366974  69.3221712  60.2648306 111.0572147  69.0753126  60.4677677
 115.9583187  44.7976637  23.8756347 116.8385696  45.0034952  24.1903329
 115.9131241  43.8418102  23.8987303  67.2805357  68.5483694  42.8798342
  66.8966007  67.9482794  43.5191441  67.3993301  68.0162525  42.0930910
  84.0227413  15.7066882  68.0320692  84.9297714  15.8517897  68.3012629
  83.9610004  14.7609007  67.8982544  12.7584510  73.8084221  63.2879829
  12.4262957  74.5438528  63.8028097  12.2933631  73.8706684  62.4536848
  70.5545521  75.0365305  58.4147406  70.7893038  75.2395391  59.3202305
  71.3932896  74.9781466  57.9571962 113.3826447  51.7269945  24.2216015
 114.0932274  51.3381433  23.7115979 112.6395702  51.7495203  23.6186409
 101.8097878  35.3166127  36.2715626 102.1179771  34.4103909  36.2678814
 102.2683048  35.7225418  37.0072389  70.2332354  40.9919500  36.3652086
  70.2602911  41.6307592  35.6528735  69.3074179  40.9361029  36.6018033
  96.8245697  40.5685282  32.9328775  95.9291744  40.9068203  32.9249167
  97.1131992  40.6760836  33.8391662  86.2466335  78.4757137  46.8018675
  86.7893314  79.0031624  47.3879671  86.8558979  78.1508064  46.1389494
  77.3266315  65.5893755   5.2689815  77.0470858  64.8788738   5.8462775
  78.2551670  65.4185629   5.1112616  95.1765347  36.7733765  33.6332250
  94.7872829  35.9071326  33.7529659  94.7697258  37.3143888  34.3100142
  85.3368950  98.5301018  43.8966370  85.2721310  98.6847305  44.8390436
  84.7369576  99.1665268  43.5077095  83.5768604  73.0723524  36.6328096
  83.2948685  72.4010706  36.0114479  82.8120422  73.6383295  36.7374349
  86.8897152  73.2753420  52.5124168  86.9727039  72.3219490  52.5320816
  86.3298225  73.4514809  51.7562866  69.5204258  43.3580828  50.9845209
  70.1138449  42.7016592  50.6195593  69.8168039  43.4733105  51.8873549
 102.1271992  71.0853958   9.6730930 102.4933434  70.7972336   8.8369524
 101.9806576  70.2757168  10.1621521 100.7004452  76.9605207  38.6034799
 101.4349842  77.5615168  38.4790468 100.0542736  77.2340107  37.9524088
  85.0136948  43.2695007  49.6478176  85.8096313  43.2873440  50.1792288
  85.3145504  43.0195999  48.7741661   0.6355433  78.2522964  15.5785549
   0.3917746  77.4644041  16.0643888   0.6172137  77.9827166  14.6602833
  86.6412735  50.2239037  36.2876940  85.9878731  50.8891439  36.0714722
  87.1347141  50.6007242  37.0162201  51.9561195  25.9097719  60.7795858
  51.2923956  26.5908861  60.6710243  52.7297592  26.3772607  61.0944939
 100.6305504  61.1321592  52.3750973 100.4248238  61.4020634  53.2701159
 100.7656193  60.1864433  52.4351788  75.4852295  36.1459208  20.6616330
  76.1977434  36.6891670  20.9984350  75.8710766  35.6762671  19.9221885
  74.0158844  25.6326056  50.7071352  73.6459208  25.2932596  49.8921490
  74.9042177  25.9016013  50.4731750  71.3931322  33.1465411  26.8663120
  72.1290731  33.5067225  26.3714409  71.7616558  32.9357624  27.7242136
  62.4622250  85.9892178  40.9962225  62.9550123  86.0516834  41.8144464
  62.8944588  85.2875900  40.5092716  78.0461168  33.6116600  26.8319297
  78.8580370  33.2285404  27.1639419  77.3719501  32.9666829  27.0457888
 100.0153923  75.2184820  45.0729513  99.7303581  74.5882034  44.4113350
  99.9144363  76.0714197  44.6504211  74.3020630  55.6832790  41.7636681
  73.4993935  56.1901474  41.8862963  74.4419575  55.6816006  40.8167458
  71.1059380  64.7327518  24.3898153  70.8528042  64.0048504  24.9575448
  72.0242214  64.8961687  24.6049500  55.5383253  83.7736416  31.1768174
  54.8206615  83.8919163  30.5545640  55.2781820  84.2856312  31.9425988
 107.1426105  58.0737209  48.6338806 107.9369640  57.8572226  48.1456470
 107.3523712  57.8548241  49.5417976  88.4335709  39.5176053  45.6816769
  88.0206108  38.6541533  45.6936789  88.1183147  39.9226642  44.8737335
  77.6193666  48.2366514   7.8085148  77.7411079  47.6572418   7.0563883
  77.9220057  49.0919638   7.5034171 111.2511921  33.7768745  42.3757219
 111.0021305  32.8606892  42.4973679 111.7224121  33.7883949  41.5426207
  35.5338931  24.2545819  60.7704735  35.2680779  24.5966649  61.6240263
  35.8318734  23.3632231  60.9519053  89.3561459  58.3024931  30.0874567
  88.4739017  58.5421753  29.8038459  89.6062565  57.5820732  29.5089483
  96.2812710  64.4860697  50.3425121  96.1417770  64.3585157  51.2808657
  95.6311512  65.1419401  50.0906992  57.6941776  81.7004490  75.5232143
  58.3611584  81.8406391  76.1953115  57.4148178  80.7935429  75.6485033
  72.9796124  74.5888138  62.6621246  73.0080271  74.7263050  61.7152786
  73.8014221  74.1414595  62.8639555  89.3946457  38.1559277  49.6851397
  89.9532509  38.6058831  49.0513229  88.8756180  38.8538289  50.0848627
  92.7444267  45.1140881  36.5702772  92.3591518  45.1409292  35.6944489
  93.6761284  44.9566650  36.4173627  83.7469006  62.2863007  29.4341350
  84.6818161  62.1594095  29.2726803  83.6519337  63.2300997  29.5624208
   7.3057322  13.6902893  81.3195419   7.9786258  14.3220878  81.5730667
   6.9333701  14.0475011  80.5133343  90.2573967  65.3699303  51.3147068
  89.3886757  65.5082607  51.6920805  90.1514053  64.6107054  50.7414913
  12.3366980  44.7040510  27.9395938  11.9901328  43.8118696  27.9515171
  12.8240447  44.7607231  27.1176982  86.5083885  51.3417435  44.9862957
  86.7838764  51.9050646  44.2631006  86.9848061  50.5232573  44.8472404
  86.9887733  44.3733883  31.4689946  87.6698112  43.7275076  31.6567469
  86.4107132  44.3403959  32.2312236  78.0067396  65.7675505  58.3010817
  78.1330013  64.8521423  58.0514479  78.7620640  65.9718180  58.8524342
  68.0357933  83.5485363  68.9717531  67.7983236  84.4271278  69.2682695
  68.9804077  83.4940434  69.1165543  78.8901854  70.7413292  66.4762259
  79.1819572  70.0109911  67.0218468  79.2731285  70.5660582  65.6166506
 114.1736889  52.4913979  83.3159351 114.5851612  53.1160450  83.9132023
 114.9074841  52.0449734  82.8934574  11.1015563  40.2682734  50.2711773
  10.5427508  41.0168743  50.0624657  11.8435912  40.3488493  49.6719027
  78.9703751  45.4731464  34.8519564  78.7386656  45.7962894  33.9812541
  79.9275255  45.4750586  34.8612571 113.4447384  69.7988081   0.9839642
 113.2559204  69.7979498   1.9223562 113.9559650  69.0021467   0.8417881
   4.2599063  43.3118725  41.4037180   4.7698073  43.6228609  40.6557035
   3.3503299  43.4888697  41.1637688  79.2316914  68.2122803  64.1482162
  79.1429234  68.1455374  63.1974792  79.9304056  68.8532877  64.2791224
  53.7492037  39.5248890  56.5701580  54.2438269  39.6863222  57.3736000
  54.4053793  39.5585966  55.8740759  78.8175106  49.9389029  47.6379299
  78.3897066  49.0826225  47.6384401  79.0825129  50.0747824  48.5476255
  89.1668510  47.0480680  35.5874538  89.6393776  46.6840887  34.8388052
  88.2558632  47.0926666  35.2970171 104.6967316  60.1103544  42.2804499
 103.7464142  60.2224207  42.3044443 104.8975086  59.9651337  41.3558769
  78.0250978  45.4922724  55.8857679  77.2686005  45.5699301  55.3044653
  77.6597834  45.1811361  56.7140007 111.7152309   5.2700663  24.7705913
 110.9231472   5.2309763  25.3066015 112.3911476   5.5949950  25.3653955
  74.2364216  57.6803541  36.2941861  74.7585201  57.9871464  37.0354819
  73.6624241  57.0107985  36.6662860   1.5519862  68.3690643  31.1947536
   1.5123801  69.3214607  31.1075211   2.4646716  68.1491947  31.0079813
  89.6145153  32.5425410  29.1226101  90.2957630  33.0092812  29.6066475
  90.0071907  31.6949964  28.9135575  87.5995636  36.2921643  28.8141847
  86.9688606  36.5861773  29.4714451  88.3657837  36.8492126  28.9514494
  78.2652378  23.2035351  30.3072023  78.7573481  23.5958195  31.0284352
  77.3935890  23.5937738  30.3718138  88.2404804  58.5339165  45.2357292
  88.5608006  58.3701038  46.1227465  88.4343624  57.7272654  44.7582817
  82.7103043  58.1290627  56.2794542  82.7380085  59.0401554  56.5716410
  81.8014812  57.8613377  56.4158010 100.2956676  43.5308838  50.3322029
 100.8354187  42.8420401  50.7200146 100.9203339  44.1001701  49.8828220
  75.2813864  38.6084843  38.4229255  74.8477554  38.3741045  39.2434525
  76.1831188  38.8056254  38.6763787  57.7970219  41.1918688  39.7464895
  58.3675766  40.6831217  39.1704082  57.1082258  40.5789232  40.0035715
  89.0766699  87.3577851  84.0797630  88.2229645  87.3335093  84.5119980
  89.5516187  88.0583804  84.5267775  76.8780565  28.9994884  57.1292639
  77.3497438  28.5176492  56.4498711  76.0232306  29.1859198  56.7410040
  86.2717819  48.4781027  42.6822042  87.0604038  48.6001492  43.2108068
  85.9998226  49.3658066  42.4492836  15.6403498  69.4432735  56.0912180
  15.5596118  69.1308355  55.1900530  16.1494784  68.7650776  56.5351391
  81.8282509  23.5427403  46.8161106  81.7769146  24.2119718  46.1336708
  81.1686325  23.8045716  47.4584341  88.7118435  67.7114201  45.7541704
  88.1855488  66.9391012  45.5473614  88.2705688  68.1078100  46.5054178
  87.5578213 106.6397285  59.9709368  86.7980671 106.3550854  59.4630098
  87.6163483 107.5810146  59.8072672  88.5921574  86.4989281  21.7174625
  87.8320789  86.7181683  21.1785221  88.7004089  87.2530460  22.2969651
  83.5427570  67.0738602  31.1031795  84.3844032  67.4723482  31.3246894
  82.8928661  67.6388788  31.5210629  81.5485859  45.2364635  43.7477160
  81.9523335  44.4535923  44.1223240  82.2373772  45.9003210  43.7807035
  96.9679451  55.1636076  26.5700126  96.6944695  54.3106174  26.9074178
  97.5737667  54.9566650  25.8583999  90.6464291  51.0934734  33.2980943
  89.8378563  51.5719271  33.1149578  91.1917877  51.2401104  32.5252342
  70.8397102  63.7621641  47.3558426  70.6221390  62.8690434  47.0889521
  71.7244244  63.6959553  47.7151871  98.4270287   7.5765359  22.0698142
  98.0949974   6.6802859  22.1219945  99.3418694   7.4780566  21.8059850
  95.0745678  10.6066811  47.6416826  94.4035244  10.0633347  48.0548477
  94.6240425  11.4243817  47.4304247  92.6529217  56.8715620  26.1997342
  93.5585976  56.7959118  26.5001678  92.4290466  57.7911091  26.3430667
  92.3309898  57.0817804  31.6824818  93.1984138  56.8312073  32.0003271
  91.9817543  57.6542234  32.3655510  70.6832933  66.4783096  46.8494749
  71.5191221  66.7979527  47.1892595  70.8505964  65.5631924  46.6240835
  90.7074547  75.8119583  37.1891618  89.7504234  75.8291960  37.1838021
  90.9643841  76.7054033  36.9611764  50.1983643  31.1913395  27.9270840
  50.3016710  31.4294648  27.0057511  50.5229235  30.2923989  27.9799747
  85.7083797  35.5963635  18.0958116  85.5744553  35.1571703  17.2559297
  86.6378117  35.4699826  18.2866609  88.9416313  33.2602000   7.0987785
  89.0114117  32.3633289   7.4258596  89.7246552  33.6983275   7.4321502
 101.2314320  12.5772381  51.1141348 102.0489216  12.4363279  51.5917206
 101.5089703  12.8331709  50.2345324  97.9850101  30.3543258  50.1895046
  97.9316044  31.2725329  49.9244022  97.3307610  30.2667212  50.8826923
  66.5931749  85.8895683  11.5370929  66.0695696  86.3674545  12.1802866
  66.1646271  85.0366688  11.4654779 108.5194588  32.2073483  32.4263167
 108.5675812  32.7397799  33.2203150 109.3847942  32.2946787  32.0265722
 106.4619446  20.1950741  29.6618199 105.5432320  20.4126668  29.8194480
 106.6292191  20.4949689  28.7683344  73.4019041  79.2261744  26.7286158
  74.1568089  79.1475677  26.1453724  72.7407551  79.6788263  26.2049532
 109.0327358  17.8766191  26.1673570 109.1056633  17.0641601  25.6665349
 108.6605167  18.5061026  25.5497527  96.3964844  52.0250559  87.7007198
  97.3525429  52.0486927  87.7409077  96.1920166  52.1669960  86.7764473
  89.8602772  55.8622217   3.9661565  90.6539917  56.2422514   4.3427551
  89.1482258  56.3944864   4.3209928  76.6744614  61.6838360  45.4359818
  76.8672609  61.4002228  46.3296366  75.8342791  61.2737989  45.2305698
  87.5422096  50.9428978  39.1277289  88.2961559  51.0661459  38.5510039
  87.9103851  50.5627012  39.9253082  58.5868216  46.7671442  33.3640075
  58.6546421  45.8142471  33.4241819  58.1406593  46.9234228  32.5316930
  60.4478312  91.0438538  30.7243323  60.8936357  91.4618301  29.9875903
  60.3738737  91.7347240  31.3827109  78.4665871   7.1825343  57.3041105
  79.1307831   7.8271008  57.5482464  78.6081934   7.0351183  56.3689899
  97.8113365  66.3482046  93.1188965  97.9516315  66.3040066  94.0647316
  97.0284557  65.8185625  92.9678822  63.6369181  32.8598070  23.0324841
  64.0141153  32.1002984  23.4764457  63.1001234  33.2857347  23.7008142
 115.7278728  45.2858925  69.0910816 115.5819988  44.4870424  69.5978260
 115.2815151  45.9704924  69.5893955 105.6835747  45.4645586  46.4569473
 104.9613762  44.8448086  46.5597916 105.2595997  46.2889862  46.2186146
  12.5091206  12.9213290  59.6745539  12.9852902  13.5185294  59.0976334
  11.6296422  13.2946735  59.7325134 102.8691387  32.9864168  33.9712381
 102.6591682  33.2146120  34.8768163 102.2085571  32.3376536  33.7283897
  92.2282505  30.9665179  23.3343101  91.6157246  31.5172863  22.8467703
  92.7364922  30.5175209  22.6587892  87.9515743  31.6006613  60.8604622
  88.5329437  31.2933683  60.1648903  87.5344372  32.3815060  60.4964495
  51.8143749  37.2178888  42.5809479  52.1528292  36.7385602  41.8246937
  52.5917244  37.5949407  42.9930115 108.3501530  84.8422718  51.6347694
 108.8635254  84.6346664  52.4155235 108.6868763  85.6902122  51.3451862
  79.4854832  23.5876107  34.8585033  78.9937735  23.2603860  34.1052580
  79.0009165  24.3627214  35.1424599 104.2533588  40.8317614  45.1929188
 104.0506172  40.1126909  44.5945406 104.5535374  41.5400028  44.6232557
  88.2062721  17.4285686  63.8903570  87.2948074  17.2663426  63.6471367
  88.1604004  17.7489066  64.7911930  99.3183517  61.5332651  34.0952063
  99.7068882  60.7375860  33.7316489  98.9718533  61.2635660  34.9457550
  91.5012455  31.2952209  44.0914154  90.7834625  30.9879208  44.6451139
  91.6497135  32.1985126  44.3711519 103.3920860 110.9590054  41.2690401
 103.5613346 110.0178242  41.3111115 104.0873814 111.3512325  41.7971945
  65.1592636  43.8060427  48.4508657  65.4600811  43.0278969  47.9815817
  65.5493689  43.7265110  49.3213367  55.3073263  31.9439840  49.8764944
  55.4481697  31.4000869  49.1015291  56.1850119  32.2265172  50.1335430
  77.4502707  39.8752642  42.4587250  76.6625214  39.3546963  42.6158619
  77.3349619  40.2232504  41.5745068 106.5772533  64.9007511  43.6266804
 105.8947659  64.2314672  43.5766506 107.3294163  64.4477940  44.0078783
  75.1670599  45.0593901  60.0204849  74.7624016  45.6319666  60.6721306
  75.6449556  44.4098377  60.5361652  80.3192902  21.3390779  39.1538191
  79.5435476  21.7995811  39.4738126  80.6682873  20.8929586  39.9254417
  81.7765808  68.4442425  32.4369001  81.9228935  69.3825674  32.3170304
  81.3256931  68.3777523  33.2786322  77.7789831  50.1773548  58.6001301
  77.7942848  49.2617846  58.3213282  77.5573254  50.6655169  57.8071594
   4.8606734  51.2144232  20.2827764   3.9152388  51.3411188  20.3623414
   5.1481013  50.9934139  21.1686492  75.4572916  46.7543793  33.8903642
  74.9460173  47.5297976  33.6589599  76.2002325  46.7685080  33.2869816
 116.4079094  57.0790815   4.2079034 116.5190029  56.2946177   3.6707756
 117.2946548  57.4229574   4.3159169  70.6671429  41.1923075  17.5997305
  71.6035604  41.0241222  17.7049196  70.3698874  40.5182123  16.9886112
  60.9395552  73.2300806  30.2829075  61.5141153  73.5864067  29.6053052
  60.8393955  72.3068571  30.0508308  64.0052795  69.6201468  58.3434010
  64.6995592  69.9450445  57.7701187  64.4647694  69.1114807  59.0115023
 117.5849056  75.9368467  47.6960802 117.4512386  75.2918339  48.3905745
 116.9526863  76.6295481  47.8876352  72.8149652  66.9096231  66.3563681
  73.7604523  66.7623234  66.3321018  72.5577879  66.9668341  65.4361391
  72.8404284  53.3417130  44.9434614  72.2438765  52.9905987  45.6045771
  73.6213923  53.5946941  45.4357338  21.9633059  67.9503775  33.5549021
  21.3822036  68.6977005  33.6965609  21.7342047  67.3336697  34.2501807
  76.3533401  62.5338221  37.0420432  76.0134029  63.3905363  36.7837548
  75.9306622  62.3515224  37.8812957  92.5976181  44.1276217  11.1527956
  92.8769493  43.4916687  11.8114066  91.6613674  43.9621401  11.0420012
  62.8969669  36.3650727  55.7034588  63.8187647  36.3410449  55.9602499
  62.4166775  36.2657166  56.5254545  73.0716181  42.8644753  35.6592631
  73.5523701  43.0369473  34.8497200  73.4391451  42.0431519  35.9857368
  95.8270645  55.0166607  44.2041111  95.2880859  54.8071432  44.9668932
  96.3263416  54.2173147  44.0367842  75.6160212  61.2807798  57.6215839
  74.8025799  61.4630079  58.0920601  76.2510204  61.0812426  58.3094740
  57.5074244  24.8550749  26.5151358  58.1187153  24.1520238  26.2954330
  58.0657244  25.6145191  26.6817999  98.3232403  78.2311869  46.9285727
  98.0218220  78.8964653  46.3098764  99.2199326  78.4902525  47.1408319
  79.2871332  54.1551399   8.5147262  79.9779654  53.5688543   8.2060903
  79.6813917  54.6233177   9.2506611  70.5233526  52.6321125  12.4699104
  70.1431894  52.2135210  11.6975820  71.0801935  53.3259058  12.1166325
  89.9655056  44.6217728  40.8340549  89.0792370  44.2609644  40.8101320
  90.1093197  44.9624729  39.9511790  81.4891052  32.2897148  17.9898381
  81.4799213  32.3958349  18.9410925  81.2243938  31.3809013  17.8476584
  69.2646885  45.5175018  55.4590178  69.7771454  46.1401653  55.9746790
  68.7270403  45.0577736  56.1038542  67.5631666  43.6618757  33.7151670
  68.2777786  44.2499161  33.4706903  67.2012234  44.0442038  34.5145774
 115.0961971  72.7949953  42.4072933 116.0119629  72.6951599  42.6673555
 114.7790909  73.5342169  42.9261637  97.9595184  58.9173222  56.0523605
  97.1473980  59.4063759  56.1847401  97.9776859  58.2843971  56.7702150
 105.7763767  69.8643208  19.4839406 105.6341553  69.7772074  18.5413826
 105.4067516  69.0640068  19.8569119  93.3558369  36.7505074  40.9350824
  94.2034340  37.1407843  40.7217884  92.7502060  37.4913669  40.9588385
  94.0997219  60.3913927  35.0208926  93.9228249  60.1631498  35.9334993
  94.1634941  61.3464642  35.0209022  98.6550808  36.1038733  23.2863832
  98.1920815  35.3224182  22.9844165  99.4462490  36.1363149  22.7485704
 100.7533264  22.8918719  73.5416985 100.7248974  22.1531248  72.9336882
 101.3467216  22.6073003  74.2367744  64.7506237  29.4044805  41.3036394
  64.2059612  30.1156592  40.9662962  65.5660391  29.8313260  41.5665722
  95.9851646  83.8525867  31.9884324  95.9288406  84.6113491  32.5692368
  95.2546024  83.9621258  31.3797402   9.2226635  96.3239806  89.5806327
   8.8270413  95.8167928  90.2894869   8.4852444  96.7719119  89.1661379
  91.5063095  38.8134408  41.1911011  91.7079830  39.2280698  40.3522635
  91.7288685  39.4757962  41.8453074  77.8519297  33.7094736  41.2493086
  78.6027861  33.7426066  40.6565619  78.1413269  34.1831160  42.0291471
  99.3641949  40.6022930  51.5038872 100.0305462  41.1651564  51.8980837
  99.8011971  40.2052975  50.7504559  70.3979540  43.9355040  53.4171247
  69.7252750  44.4381285  53.8765860  71.0460234  43.7306023  54.0911102
  62.1316195  22.2850180  22.8618956  62.2107410  23.0985856  23.3599710
  62.9479504  21.8167710  23.0367684  87.0341301  65.5887794  55.0398588
  87.5062656  65.1460075  55.7450342  87.4432945  65.2648687  54.2374229
  63.3475321 107.8441493  61.3290405  64.0918558 107.7851332  61.9279861
  63.0852431 106.9352983  61.1826706  74.3281460  30.1764822  53.5673046
  74.0322495  29.3208528  53.2565403  74.1333914  30.1713967  54.5044708
  59.5424795  39.6270299  37.9593492  59.2058134  39.7527289  37.0721698
  60.4195356  40.0099039  37.9391861  89.5516682  20.4937363  72.6733351
  88.6393833  20.2293992  72.7920818  89.6990013  21.1559272  73.3486319
 110.1894569  68.6283779  45.8944273 110.8417892  69.1464520  46.3659143
 110.3955173  68.7676096  44.9700975  84.7580338  22.8205204  15.7249212
  84.9483871  21.8842864  15.7837832  85.4362965  23.2367444  16.2568474
 115.1466465  63.1553221  65.0569630 116.0707474  63.2731724  65.2768850
 115.0118256  62.2081852  65.0885248 102.4396801  17.9274833  69.0714025
 102.5572014  17.7804852  68.1328869 101.4913177  17.9090142  69.1998196
   5.1523642  46.6063166  45.2327824   5.2837233  46.3663006  44.3155193
   5.5287604  47.4832582  45.3071594  84.6684551  65.5154181  62.9146290
  83.9963341  65.6575871  63.5811710  84.8029041  66.3780832  62.5222492
  17.2506779   3.1883667  94.9848530  17.2719448   3.6681078  94.1568255
  17.3950308   3.8580130  95.6534120  66.6101122  26.6437030  45.9559584
  67.4442768  27.0606828  45.7402420  66.0352182  27.3695230  46.1986828
  18.0915217  66.3499498  28.4821463  17.4023108  66.0730600  27.8783727
  18.0789809  65.6924772  29.1777015   8.1168322  80.5570889  72.2976780
   7.4921183  80.6347466  71.5766191   7.7452616  79.8814011  72.8647852
  73.7067413  64.6167421  10.8048773  74.3342876  64.4899654  11.5164554
  72.9081392  64.9150944  11.2401402  86.0810566  40.7342339   8.0569404
  86.7783833  40.4676962   8.6560345  85.7733059  39.9154568   7.6681900
  59.3172503  46.3709784  30.3614068  60.2026081  46.6998959  30.5169368
  59.4037056  45.8034277  29.5954823  41.8902874  48.1609821  52.5520277
  41.0702276  47.7669239  52.2546148  41.6174936  48.8950396  53.1024599
  91.7005157  67.4853277  42.5107813  91.3662624  66.7068100  42.9562187
  92.6471233  67.4524593  42.6489782  88.3000088  68.2474661  11.8482351
  87.4291992  68.5806179  11.6315746  88.7677193  69.0072680  12.1948969
  78.1852818  47.9381371  50.1437140  78.1092978  47.0541811  49.7844410
  78.4720898  47.8056049  51.0472679  62.1885061  41.2358999  44.1054344
  61.3639021  40.7631445  43.9924574  62.5269604  41.3429260  43.2164860
 115.3855801  31.3979673  28.4296012 114.6630192  30.9804988  28.8984823
 116.1619377  30.9082389  28.7010241  71.8726301  97.0624352  62.8400135
  71.6220093  97.8116989  62.2996283  72.7841854  97.2325706  63.0774117
 108.5067940  65.1577282  63.9797783 108.1145859  64.3565321  63.6326647
 109.4463253  64.9756718  63.9988756  62.5951576 109.8684692  48.5507345
  62.3099804 110.2101231  47.7032804  63.3646154 109.3364811  48.3478642
  83.4555435  78.9489317  15.9266412  82.8330421  78.6472845  15.2650285
  83.0632019  78.6898804  16.7604208  93.1861210  90.9273338  83.3187580
  93.3467293  90.0295353  83.6092758  92.2325993  90.9970570  83.2722378
 115.0460434  70.8269548  32.0839071 115.4793739  70.7713223  32.9355931
 114.8126221  69.9226046  31.8744135  77.9659479  24.2731570  82.4715724
  77.5222796  25.0366114  82.8410759  77.9804915  24.4376372  81.5287235
   2.1573787  50.7914162  21.7299104   2.5421767  49.9797297  21.3992715
   2.5307231  50.8942890  22.6052737  69.1740417  67.4773026  59.7576332
  68.9517641  68.3233786  59.3690729  68.4424448  67.2832203  60.3435802
  97.1152878  69.7486830  56.9626999  97.3799706  69.2763186  56.1733675
  96.9083405  70.6313276  56.6555500  82.9906368  82.4972630  34.1278410
  82.4367428  82.3429775  33.3625746  83.7224197  81.8896961  34.0202546
  92.5431252  52.3535776  52.3496342  92.1034336  52.7090454  53.1220007
  91.9724083  52.5908279  51.6187239  89.8196697  38.2951880  14.3871629
  89.1636086  38.3425283  15.0825608  89.3521404  38.5682631  13.5978103
  78.8261557  66.9714117  45.1919556  78.6580706  66.0302305  45.2384090
  79.3426466  67.1614170  45.9751320  72.3080921  76.4863729  42.5346661
  72.1163702  75.8737946  43.2447529  73.0893755  76.9555140  42.8274679
  83.5842991  38.2301736  51.4682436  83.0712986  37.8541064  50.7529593
  83.8599205  39.0863991  51.1409140   5.3263430  58.5563087  25.9020019
   4.7704272  57.7771950  25.9151506   5.2321009  58.9325809  26.7770839
 102.0807648  38.0831885  28.0855894 101.2395191  38.1778646  28.5323191
 102.5365067  38.9075184  28.2559156  87.8302479  45.4700565  46.5276003
  87.6020336  46.1810875  47.1264172  87.6061821  45.8064461  45.6599236
  87.2038555  81.4258766  71.4156246  87.1550274  81.8741894  70.5713081
  87.0397282  80.5059528  71.2081957  99.2707539  47.6194048  36.0400391
  98.7623024  48.2751989  35.5629134  99.8452091  48.1301880  36.6104150
 104.1566467  34.8093915  42.2087717 104.4795609  35.5911183  42.6569462
 104.1820049  34.1232681  42.8757238 105.4642868 101.5035629  15.4112422
 106.2596893 101.8827057  15.0373137 105.1380539 102.1746159  16.0108173
  26.8272452  68.4773302  77.7713442  26.4805274  69.1255140  77.1582556
  26.1268668  67.8306007  77.8576183 106.8731117  65.6545782  82.3805904
 107.0514965  66.3118172  81.7079544 107.5865650  65.7567787  83.0105019
 104.2252827  56.9075632  28.9645028 103.5444546  56.2782907  28.7263322
 103.7928581  57.7598619  28.9113259 110.8534128   1.6071372  36.3446736
 111.6089040   1.4727836  36.9168735 110.5582649   2.4959712  36.5424061
 101.8439388 107.7498436  41.3926792 102.1603966 106.8711472  41.1829710
 101.7422104 107.7469635  42.3444557   5.4534106  73.0069113  45.9929371
   5.9169631  73.6142492  46.5695620   4.6075206  73.4258127  45.8341408
 106.6387749  43.7302732  34.8525977 106.3138962  43.6381054  35.7482481
 105.9642792  44.2406368  34.4044805  83.3166313  55.3450060  42.5264072
  82.3747921  55.5157852  42.5284195  83.6924839  56.0694885  43.0264950
  55.0774514  30.5417209  34.6299863  56.0230671  30.4468017  34.7441792
  54.7655522  29.6518569  34.4654346  91.6874981  61.9752121  58.0286789
  91.4412403  62.6963043  58.6079979  92.5666142  62.2014475  57.7250242
 107.5178719  43.4035969  40.3859806 108.2436943  43.1026363  40.9326410
 106.9272327  42.6519489  40.3369951  75.5187225  73.7769222  58.6133003
  75.8105326  74.4855309  59.1868401  75.8391905  74.0236092  57.7457285
  86.5372849  87.6619720  62.7456903  86.3833904  86.7660999  63.0456352
  85.8219433  87.8359318  62.1339178  77.6195526  39.4862914  35.3813934
  78.4893990  39.8214293  35.5988312  77.1017981  40.2688169  35.1921582
  90.0264072  55.7504559  36.5460873  89.7590446  55.2930403  35.7488942
  90.2305698  56.6392469  36.2552238  71.9505262  84.6516705  37.2412825
  71.9511843  84.9061584  38.1640315  72.2148228  85.4441929  36.7740679
  72.3892832  56.7334843  71.9872952  72.3221397  57.1998453  71.1540890
  73.3304977  56.6398668  72.1342039  90.2813816  71.0677242  54.7562265
  89.3308449  71.1191225  54.6558428  90.6283569  71.4488554  53.9496374
 103.4096813  79.0179682  67.4847746 103.2816505  78.4418297  66.7311811
 102.5346375  79.1211128  67.8588057 114.1317368  57.6691103  72.3093033
 113.9710140  58.4074020  72.8969479 113.9270878  56.8957138  72.8348637
  88.5596657  50.3489208  54.5785284  89.1704845  50.7131100  55.2192354
  89.0066624  49.5757818  54.2340279  99.7571754  94.4402027  19.5489228
 100.1102161  94.3586159  20.4348898  99.0413475  95.0700378  19.6333981
  82.4475193  80.0041485  44.5182991  82.7722836  80.9038448  44.4823122
  82.2548676  79.8558950  45.4441166  78.9050484  99.8399162  45.1527929
  78.0393982  99.4314194  45.1486540  78.8304758 100.5654526  44.5328951
  86.5140438  88.1361961  53.1119013  86.8441963  89.0346146  53.1198406
  87.2107601  87.6213837  53.5190630  69.9428892  42.6749849  45.2368641
  70.6527948  42.0794249  44.9969196  70.3640747  43.3451080  45.7751656
  78.4847689  35.4714298  43.5846472  79.2722464  34.9519300  43.7466049
  78.0221939  35.4728079  44.4226551  94.6907806  41.0749626  65.3104019
  95.1011276  40.2169466  65.2024269  94.0762138  41.1402273  64.5794582
  99.8240376  81.0450077  48.1166506 100.4755402  81.7198944  48.3072042
  98.9915180  81.4328098  48.3863974  96.3771534  79.2267942  28.3254480
  96.5257168  80.1227760  28.6277318  95.4444695  79.0743017  28.4773993
  98.9873695  86.1644363  25.2411294  98.0817413  86.2813377  24.9540710
  99.4927120  86.1243725  24.4291854 111.2298775  86.8943977   3.3743033
 111.8074226  87.3770332   2.7829233 110.6868839  87.5689507   3.7821937
  20.9836357 107.5585873  58.4103251  21.0017317 108.1070734  59.1945887
  20.3346461 107.9739950  57.8424549  84.8415470  66.6390657  56.4766026
  84.3227291  66.6629505  55.6725597  85.7373905  66.4806032  56.1789656
  59.6909475  65.1934004  10.9274924  59.2110491  65.1803970  11.7555988
  60.6126261  65.2129889  11.1850774  81.8746185  63.3236170  53.4152508
  82.3183632  62.6462412  53.9256287  81.1222744  63.5734272  53.9517260
  74.8031664  74.8466635  55.0535011  75.5955410  74.3317223  54.9011326
  75.0194740  75.7207727  54.7288895  73.8880968  53.1569099  35.4474545
  73.0193138  53.2089901  35.0490475  74.3092489  53.9837790  35.2126074
  63.0194950  87.5862980  27.6528168  63.6949444  88.2645226  27.6560378
  63.1565714  87.1156597  26.8306565 116.8624306  55.2672291  70.6545687
 117.4944401  55.9108067  70.9748888 116.1679935  55.7915020  70.2556562
  71.8341875 108.6783123  46.9079161  71.3539600 109.1826916  46.2512493
  71.5492201 107.7747631  46.7714405  83.7254238  93.1157589  42.9015684
  84.1126060  92.7196121  42.1209383  83.8169670  92.4468613  43.5801125
  97.4985504  60.7298231  25.5289912  97.5428677  61.6858578  25.5452466
  97.3399734  60.5129910  24.6102595  90.7809258  81.7378044  59.1812801
  90.7973194  82.4522686  58.5444975  90.4622459  82.1430397  59.9877834
 107.0781898  63.4370899  36.3810539 107.2817326  62.7917480  35.7040501
 107.2093487  64.2830181  35.9527636  67.3625517  29.8616838  49.0056276
  67.2013903  30.4622269  49.7333717  68.2459545  29.5278263  49.1617346
  96.8436623  54.7206402  34.4999552  96.7537975  53.8431311  34.8716187
  97.5788212  55.1078844  34.9751544  50.7173764  16.2339454  31.3295555
  51.4082181  16.1326556  30.6747961  50.3883111  17.1226745  31.1950135
  73.0099344  88.0047035  11.7707193  72.3070526  88.4937572  12.1985209
  73.6980534  88.6536026  11.6235876  12.2752814  21.3576674  25.9875464
  12.4955134  21.8364239  25.1884723  11.8320136  20.5674481  25.6788301
  69.6219492  38.4852743  54.6070337  70.2587938  39.1985512  54.5634699
  70.0385952  37.7631330  54.1367674 101.5390587  74.6714878  56.6996861
 101.6679287  75.6161499  56.7847586 100.8984375  74.4551754  57.3772192
  99.5365620  38.6612821  29.0965867  98.9042473  38.6717081  29.8151278
  99.1368961  39.2052650  28.4179258   4.0369944  70.1844454  49.6058226
   4.9076514  70.3961897  49.9424934   4.1311507  70.2275515  48.6542416
 113.5345745  38.1806898  18.3209395 113.9310551  38.3772707  19.1696990
 112.7291775  38.6977863  18.3072841  80.9407997  72.3677969  32.7294230
  80.2495384  72.9910755  32.9528451  80.6094074  71.9091940  31.9573474
 102.1465588  90.1317596  39.2345119 102.5942802  90.2480412  38.3965015
 101.2502861  89.8947048  38.9963484 110.0146770  45.3300381  23.8963389
 110.8559895  44.9233437  23.6889100 109.6283436  45.5294991  23.0435824
  66.6463947  67.4338770  45.4469824  66.4560890  66.5161180  45.6412411
  65.8724833  67.9084015  45.7504845  16.6911177  19.3883789  39.9310184
  16.6274886  19.0583086  39.0347838  15.9996180  18.9271998  40.4057598
 104.1625118  64.9863482  50.6369162 103.5286045  65.5180979  51.1181927
 103.7629604  64.1175842  50.5941534  80.5392551  63.9820814  45.2460003
  81.0560513  63.1820488  45.1506042  81.0568428  64.5329618  45.8332539
  93.4937763  54.6398497  61.7532253  93.1471157  53.8195276  62.1041155
  93.2174397  54.6441078  60.8367920 117.9184341  68.1647968  59.6092272
 117.3447227  68.8262892  59.9959087 118.6775875  68.1362343  60.1915407
  99.2857456  69.8537397  18.1985867  99.4642830  70.7351255  17.8706872
 100.1417160  69.4255447  18.2128549 101.4459324  64.7044802  62.3937416
 101.6689968  65.6115818  62.6026440 101.2194347  64.3131399  63.2374144
 106.1544514  93.4010887  83.3108330 106.6180992  94.1909981  83.5888767
 106.0994625  93.4784031  82.3583508  75.0627232  34.6737766  12.2901249
  74.8720455  33.8263440  11.8879688  75.1768446  35.2698898  11.5499496
  98.2114506  61.5049744  50.7534409  98.8749599  61.5094995  51.4433384
  97.6833534  60.7273483  50.9341288  97.3571587  97.0005131  45.0293732
  98.2433128  96.6792202  45.1958799  97.0405674  96.4642143  44.3024778
  90.7080173  71.5982819  44.4536400  89.9131966  71.1912823  44.1089058
  91.1439610  71.9626999  43.6833239 113.2466125  76.8576193  74.4751120
 112.9336452  76.4737797  75.2942276 112.8008747  76.3582182  73.7908983
 101.1667919  62.4980783  67.6818848 101.0771847  61.6111755  68.0306005
 101.4293480  63.0264139  68.4356499  91.4269257  52.2065592  59.5101881
  91.9870853  52.4636936  60.2425385  92.0123577  51.7411709  58.9127636
  97.8478336  66.7137051   8.9414698  97.3264503  66.6916513   8.1390327
  98.2073402  67.6003933   8.9692199 102.9323673  75.9164143  20.3572989
 103.0379486  76.8113995  20.6799245 102.3400116  75.9995174  19.6100104
 105.6659603  40.5640984  89.4513130 105.3554726  40.6317139  88.5484028
 106.4847088  41.0598755  89.4608116  88.1217575  20.7929230  30.2824521
  88.4093189  21.5516472  29.7746396  88.2571411  21.0498881  31.1945200
  80.3529167  55.5690432  46.8315744  80.0934792  55.9656572  45.9999371
  79.6805286  54.9095678  47.0024967  51.1536139   0.6392573  96.8628945
  51.8243807   0.5896662  96.1818361  50.3422945   0.8179377  96.3874404
   7.1328406  49.0986156  60.8997679   6.9932227  49.2793322  59.9702072
   6.3895945  49.5125437  61.3385057  16.0033278  75.9103489  56.8419123
  16.7631964  76.4491892  56.6217089  16.1200194  75.6988239  57.7681255
  68.1519747  44.8968363  44.9715805  68.3518171  45.1676226  45.8676624
  68.7684250  44.1867113  44.7928429  68.9516258  89.4494534  75.3817749
  68.3614826  90.1908684  75.5169392  68.8260698  88.8993263  76.1549711
 104.5283031  81.4242649  42.8528452 105.2952194  81.8830681  43.1957293
 104.8909378  80.7099152  42.3289824   5.5217604  73.9404964  31.7730665
   4.8663573  73.4142303  32.2310138   6.3122039  73.4007502  31.7834496
 106.3873005  38.6178875  17.5663543 106.7122364  38.5604167  16.6678298
 105.5303860  39.0365458  17.4848378  74.8169327  70.6241989  71.6058683
  74.3186665  70.5562210  72.4203253  74.7261238  69.7635031  71.1969852
 104.7547436  62.8097296  46.9918013 105.6189632  62.8022099  46.5803432
 104.6358109  61.9168139  47.3155117  89.1073704  44.0126610  28.5231185
  89.5741558  43.2696247  28.9055252  88.7473106  43.6733007  27.7037168
 100.8277035  82.3942184  32.3757720  99.9297810  82.1108150  32.2036266
 101.1264706  82.7618027  31.5439939  94.1874218 100.0721169   1.9431128
  94.9577332  99.6645260   1.5472147  93.4975815  99.9673367   1.2878445
  71.8111086  76.4799929  82.0905495  72.6984596  76.5512276  81.7387486
  71.3864708  75.8235741  81.5382576 107.6312256  89.3200970  71.3131857
 107.4151325  89.9498940  70.6255102 108.3839893  88.8390350  70.9694529
  68.6413574  83.2117462  62.6188421  68.1498671  82.5961781  63.1626654
  69.0020084  82.6736546  61.9141340  95.0190544  63.0173540  31.1773920
  95.7156754  62.4066591  31.4182091  95.1576519  63.7749815  31.7457438
 103.1391716  77.3473501  59.2941570 102.6576424  77.9037333  59.9063683
 102.6722336  77.4443913  58.4642220  84.5056820 102.7711201  55.6548357
  85.0265217 103.4587193  56.0697651  83.6501408 103.1744480  55.5078411
  21.8594985  44.9888134  33.8701510  21.9860415  44.6050119  33.0024433
  22.7015643  45.3936863  34.0780854 110.2295876  87.2967339  54.0642309
 110.6899929  88.0898285  53.7899017 110.1959991  87.3573875  55.0189161
 100.1715374  46.9341612  40.8669376  99.2428970  47.1650457  40.8436584
 100.3051853  46.3997984  40.0841045  65.3533602  80.7262897  77.9729033
  65.0490284  79.8238659  77.8767872  65.6967592  80.7694817  78.8653421
  53.2055712  60.7580328   8.4902954  53.9753103  60.6418562   9.0472823
  52.8799009  61.6307068   8.7107825 111.2731361  59.1192436  56.7999125
 111.8242264  59.8985958  56.8716955 110.9513760  59.1356134  55.8985615
  98.7182045  25.2497983  73.0757141  98.9354038  25.5325246  72.1873856
  99.1170883  24.3833375  73.1555510  69.2224312  63.8937187  49.6782589
  69.8917341  63.6446619  49.0408945  69.6897840  64.4290209  50.3195620
  87.4733925  77.1618176  44.8899364  88.1042862  76.4926243  44.6246386
  86.6358376  76.8510914  44.5461369 104.7452164  86.3108253  26.9420290
 105.6584644  86.4874554  26.7161703 104.4234848  87.1371651  27.3024321
  98.7352848  85.0673771  50.3784513  99.0190506  85.1555920  49.4685459
  99.5483303  84.9741936  50.8749390 108.6056709  90.2927303  38.9885378
 108.0570602  91.0674095  38.8655114 108.1656075  89.7945118  39.6772671
  91.9997406  49.0354586  51.9239807  92.8715134  48.7011623  51.7130375
  91.8168640  49.6773100  51.2378216  96.8986988  63.9687061  67.0749331
  97.2108555  63.7542200  66.1958504  96.5219021  63.1515503  67.4013042
  96.5276051  87.0421791  75.2812004  97.0155525  86.6930294  76.0270119
  95.6655312  87.2561169  75.6379747  67.6171970  60.3594542  31.7665792
  67.0282555  60.9355593  31.2792540  68.2617474  60.0730324  31.1194706
 116.6090202  77.4676228  64.1505575 116.0490990  77.0960474  64.8322105
 116.4963150  76.8815660  63.4021807 115.1395988  66.4126444  19.5269001
 115.3028297  67.0866680  18.8671458 114.2531395  66.5932894  19.8396313
   8.2033973  66.7505836  31.0461855   9.0803199  66.5431070  31.3689733
   7.6412921  66.6801596  31.8177462  76.9690371  50.3899097  40.9895468
  77.6178837  50.1513672  40.3274870  77.3629904  50.1200819  41.8191433
 106.9883347  98.5399723  66.7806053 106.2066650  97.9970837  66.8830872
 106.6833782  99.3111038  66.3024902 117.3975182  49.4160366  55.4408264
 118.1663895  49.5461988  54.8857450 117.7211857  49.5448303  56.3323879
  20.0252108  52.3822308  42.2569180  20.5604605  52.0888948  41.5195656
  20.5211119  52.1195173  43.0323458  91.5568542  63.2547569  76.7981195
  92.0831680  64.0434980  76.6672897  92.1819305  62.5978470  77.1046877
 107.0364094  37.6199126  33.8961267 106.9577694  37.9698634  34.7835827
 107.1381760  38.3935595  33.3417368 104.3969631  99.6604729  43.9636374
 105.1725769  99.0995693  43.9699268 104.4152451 100.0848675  43.1058598
 101.0595417  63.9649391  34.5757604 100.9299374  63.0165625  34.5720053
 100.5421638  64.2803192  33.8347530 114.8648643  63.5171270  50.0744724
 115.2880573  63.7890863  49.2601156 115.5048084  63.7207842  50.7565546
  10.1362567 102.4723434  67.8028679  10.3985648 101.8238735  68.4562540
  10.1163630 101.9868660  66.9781542 109.4716263  54.3781090  72.8607082
 108.5282612  54.2666054  72.9784298 109.5528030  55.1357460  72.2813749
  89.0833092  79.0511322  51.4536285  89.7681904  78.6990023  50.8851480
  88.2663727  78.7312031  51.0708761  18.0187546  97.0901292  93.5847685
  18.1488644  97.0574945  94.5325219  17.2626912  96.5246480  93.4271943
 109.3497181  62.4920702  75.3359556 110.2732277  62.7084160  75.4646301
 109.2965889  61.5531206  75.5142355  12.7833037  81.4675045  24.6230650
  12.1836619  82.0351887  24.1389203  12.9589991  80.7401657  24.0261292
 112.4375248  73.8548565  41.6352367 112.9944897  73.4139347  42.2767973
 111.5991497  73.9675903  42.0831871 107.5499344  96.3204002  35.4776597
 106.9984245  96.3847256  34.6979594 106.9682980  96.5508175  36.2021184
 117.7401144  18.2297664  55.6641626 117.3972446  18.4553104  54.7994089
 118.4267647  17.5862365  55.4891825  69.9980116  55.9095907  31.9799304
  70.9334898  56.0519552  31.8355608  69.8899841  55.9715033  32.9289985
  77.4342203  89.8183155  26.6121674  76.8491840  90.5594063  26.7694974
  78.3081245  90.1578903  26.8050766  96.0582542  90.1670647  87.0520973
  96.6844273  89.5719242  86.6398525  96.4496326  91.0346413  86.9502163
  13.8243251  88.4162521  67.7759361  14.3190055  87.8085136  68.3256388
  14.3421798  89.2212391  67.7828217 108.2673359  59.9266529  39.6571970
 107.9421425  59.8883295  40.5566502 107.7145100  60.5811739  39.2303252
  82.4899578 103.2761192  44.5808315  82.1501637 102.5851631  45.1494789
  83.1537056 103.7175941  45.1107073 101.5679741  43.5078001  30.9110260
 102.1463203  42.7526617  31.0183001 101.1302662  43.3571529  30.0731993
 114.7452545  74.9163437  30.2805638 113.9854908  75.4185581  30.5751300
 115.3883648  75.5796242  30.0301647  95.5505848  65.4783010  74.4230986
  96.5052700  65.5475998  74.4253254  95.2924824  65.6969738  75.3185272
 113.3063030 102.6754761  47.0129251 113.9008904 103.3734226  47.2878075
 113.7916183 102.1987629  46.3395357   1.2380271  62.2909737  53.4231377
   0.5731253  62.0151281  52.7922201   0.7434039  62.5049877  54.2142010
 103.3608532  60.1687288  35.0576401 102.7374935  60.6814528  35.5721998
 102.8135395  59.6163845  34.4994283  95.5475521  49.2503023  54.2012739
  96.1323738  48.7011623  53.6791134  95.8628559  50.1422405  54.0554619
  69.3761730  83.7764835  36.1171699  69.3921614  82.8582668  35.8472371
  70.2872467  83.9797688  36.3289571 101.1452198  55.4131889  56.2152910
 102.0956993  55.5093908  56.1555099 100.9314251  55.6950665  57.1047115
  85.6243324  85.6616211  11.3893914  85.3843021  84.7356319  11.4234221
  85.7053661  85.8538723  10.4552042   3.1719641  48.6456633  17.9203391
   3.9724879  48.7772512  18.4283578   2.8157382  47.8185225  18.2446396
  70.5750370  36.3025117  21.5739703  71.5098810  36.1283851  21.6834068
  70.1648092  35.8967495  22.3377132 103.3470726  54.8470306  38.9831567
 103.7590599  53.9836216  38.9511704 103.8665009  55.3826332  38.3835363
 101.6850662  70.6450272  14.9590933 101.3128471  70.6650019  14.0774548
 101.8487453  71.5640450  15.1708496 113.6876678  64.1572905  44.6512794
 113.1725883  64.6344233  44.0006924 114.2986774  63.6319447  44.1346455
  21.5093951  47.1967697   5.0248271  22.1058993  47.4945307   5.7116711
  21.4047484  47.9568005   4.4524321 115.3318501  47.9925585  28.8028097
 115.0342655  47.0979404  28.6374831 114.9102211  48.5151386  28.1206226
 112.2902298  23.2435298  63.4999800 111.3591862  23.4357548  63.3884478
 112.7377129  24.0088654  63.1390810   6.5815024  62.7591038  73.6518097
   6.1644130  63.5384417  74.0190935   6.9243674  62.2899532  74.4124508
  93.1909275  51.0018206  34.5457101  92.3074436  51.1185741  34.1963387
  93.1324387  50.2142906  35.0866437  62.2261160  15.7598740   8.7180111
  61.8509787  16.3904435   9.3327400  61.4675635  15.3558356   8.2966015
  92.0636272  52.0005798  43.3250618  92.1552372  51.1944962  42.8170538
  91.9393826  52.6851654  42.6676893  86.5356541  91.5115070  82.1726513
  86.5128708  91.9229984  81.3087177  86.0537434  92.1149921  82.7381706
  89.2181778  96.6168308  76.7100620  90.0156689  96.8183613  77.1995687
  88.6280060  97.3452473  76.9033194  82.8253460  68.5867691  73.5941792
  82.7610016  68.0657482  74.3945694  83.0058575  67.9467869  72.9056501
   1.1393599  18.3831787  26.0611320   1.7853884  18.9204001  25.6025767
   1.4934497  18.2850671  26.9450021  95.7449055  59.0288210  41.9155216
  95.2431011  58.5531044  42.5774193  96.6507721  58.7548923  42.0590496
  84.0178585  62.6385832  36.8786836  83.3806705  62.8249741  36.1891270
  83.6747837  61.8603134  37.3178077  54.8141527  84.2378807  56.2461472
  54.3787766  84.5842457  57.0250654  54.3791676  83.4014511  56.0806131
  86.3860989  62.3117733  29.1527557  86.8159771  62.9577541  29.7132444
  87.0746613  61.6809082  28.9427042 100.5647469  53.0059433  59.4722223
 100.3152275  53.9265394  59.5526743 101.5212345  53.0129862  59.5085096
  92.5736809  58.2372522  54.9883223  92.5819778  57.7824211  54.1461325
  91.6454220  58.3196449  55.2069092   9.6067004  70.9299994  65.8034992
   8.9636473  71.2339449  65.1629257   9.0867572  70.6961250  66.5723848
  88.0267143  82.5083351  46.5218496  87.3033524  83.1251526  46.6337681
  88.7088108  83.0162716  46.0825634 110.9098721  57.9212332  24.6700644
 110.6916714  58.4000731  25.4696465 110.4298973  57.0965815  24.7462106
   6.6454940  27.3434591  68.1346941   7.4594359  26.8421078  68.0860329
   6.0296588  26.7581391  68.5755730 117.7722645  59.7151852  26.1850595
 117.7616215  60.3395367  25.4595923 116.8665028  59.6911860  26.4937043
   2.9615454  34.4144392  55.2302742   3.3590655  35.2754211  55.3603315
   3.3842997  34.0719318  54.4427443  83.5951710  19.9992478  45.3115845
  84.3358421  19.8517001  44.7234821  83.1755066  19.1423380  45.3878689
 114.0766048  72.8391647  21.9143200 115.0030899  72.5986290  21.9117093
 114.0721416  73.7771845  21.7237139  91.8814564  62.1388006  53.3697414
  92.2202587  62.1043444  54.2643118  92.0473099  63.0375767  53.0852652
 116.0346889 102.2819138  35.1737761 116.1863232 101.7203617  35.9339762
 115.0863361 102.2606754  35.0456786   4.2198424  66.6234255  23.0160308
   3.8401179  65.7738113  23.2400823   3.9040332  66.8007612  22.1300030
 110.0085926  90.8727741  69.7563982 110.7570076  91.4692116  69.7373533
 109.5616436  91.0226154  68.9233208  94.8222828  97.5026989  40.4930115
  95.5655098  97.9605579  40.1003075  94.2075157  98.1987762  40.7248878
  11.1852698  77.3043394  46.3200283  11.1696105  76.6110659  45.6602144
  11.9836192  77.1395159  46.8217230  73.5548735  60.7386208  52.3637199
  73.9438152  60.4436350  53.1870937  72.6164675  60.5851316  52.4735737
 114.7604656  43.7570667  63.4377337 114.0281963  44.3383312  63.6430454
 114.4748020  42.8954792  63.7415266  82.5837231  89.8022652  27.8742290
  81.7075157  90.0571918  27.5852776  82.9931355  90.6224442  28.1497693
  82.6849937  88.4040642  56.1644363  83.0472565  88.3222198  57.0466471
  82.1253204  89.1794682  56.2063169  68.4763288  45.2496910  41.9275665
  69.1038370  45.9304190  41.6845036  67.8645420  45.6880379  42.5190020
 102.9282093  41.7105579  37.0637417 103.7226582  41.2779236  37.3766255
 102.3091030  41.6281891  37.7891088  82.0981884  50.3623533  38.5822940
  82.4985600  50.1540136  39.4264054  81.6081238  51.1688900  38.7422085
  92.4473858  80.8802319  70.6274748  93.2603073  80.9589958  71.1266613
  91.7644215  81.1624050  71.2358809  80.0452518  60.1856899  37.6555419
  79.8868036  60.7072449  36.8687105  79.5905113  60.6590319  38.3522439
   4.1669802  70.0145388  40.0293875   4.9057822  70.3385782  40.5445671
   4.5069270  69.9509716  39.1368484  24.3697123  97.7651501  30.5020213
  24.6150927  98.2950687  29.7436023  24.7786002  96.9145489  30.3422737
 117.8341579  46.9057894  82.0087051 118.6847496  47.0705080  82.4156380
 117.6719761  47.6806593  81.4706421   4.4085936 103.1889820  21.5735245
   5.1446490 103.7430668  21.3138247   3.7752871 103.7960148  21.9564867
 116.6114235  93.9066410  32.0527077 115.7519436  93.6603355  32.3945546
 116.7464638  94.8009872  32.3659635  93.0472279  62.4553108  60.8565474
  92.2518730  62.0417261  60.5210114  93.3905125  61.8309259  61.4957142
  92.4413490  84.5681953  31.2602305  91.7823410  83.9088535  31.4775133
  92.4768829  85.1344490  32.0311546  90.8160591  91.3303852  40.2216244
  89.9171448  91.1393929  40.4894209  90.7247162  91.9684219  39.5139503
 115.8011723  93.1002903  35.7403278 115.1805878  92.3716259  35.7275009
 115.4494190  93.7256527  35.1067543   4.2680411  92.9142761  54.4810820
   4.3173938  93.8685417  54.5373392   3.9114527  92.7438641  53.6092806
  21.8129878  60.8705664  22.4848938  22.4755244  61.4254522  22.8964543
  21.0776667  60.8809280  23.0976129   9.8138480  62.8970861  56.5395927
   9.1075282  62.2563791  56.6222334  10.1474051  62.7725983  55.6510687
  78.5304785  77.1413469  43.1534719  78.9484549  77.9511547  42.8606653
  77.9168606  76.9215012  42.4524927 106.5977097  53.9674902  73.0539513
 106.5103054  53.2154417  73.6396265 105.8925247  53.8575459  72.4160957
 105.5298138  32.7133584  29.6367311 105.8711052  33.1459641  28.8540387
 105.5968189  31.7785382  29.4421721  99.9758720  72.9978275  42.6133966
 100.8524227  72.6143169  42.5851393 100.0996399  73.9001942  42.3190355
  86.0220814  94.5791817  46.1126804  86.4087391  94.6117783  45.2376556
  86.5031242  93.8838196  46.5613508   7.0605712  72.9271793  60.9422350
   7.7616172  72.3288870  61.2007093   7.3802523  73.7936401  61.1937952
   2.4838404  55.4154205  44.9709702   2.3077159  56.2577438  45.3901386
   1.8950991  54.8016071  45.4101229 103.2828712  57.0727158  34.3338037
 102.6804924  57.5575304  33.7696004 103.0810165  56.1524200  34.1648698
  25.4157769   3.3107238  34.6259141  24.8865258   2.5132232  34.6367049
  26.1924016   3.0897575  35.1399803   5.4047732 101.7290401  61.0075283
   6.2385039 101.9396591  60.5870962   5.3700595 100.7724762  61.0048199
 113.8121605  79.1707802  52.6306391 114.0213966  79.5810270  51.7915010
 113.3255768  79.8411751  53.1102610  66.3505762  32.2338675  90.3729740
  65.4659956  32.5992010  90.3894135  66.4731234  31.8637179  91.2471631
 106.1085510  87.4056911  47.2199726 106.6464710  86.6873646  47.5529671
 106.4829922  88.1906319  47.6198387   0.4525142  70.7945204  30.2158451
  -0.1731343  71.1253405  29.5713687   0.1092677  71.0930634  31.0580373
   7.3598056  41.6767406  57.1763945   6.4908747  41.6740942  56.7749119
   7.2494559  41.1838913  57.9895067  57.6537072   6.1124568  27.1657443
  57.9076325   6.9929938  26.8893099  58.3689248   5.8238273  27.7326512
 109.6525478 104.5603085  54.1721439 108.8899231 104.2827511  54.6796989
 110.3946877 104.1377544  54.6044636  94.7606277  68.7594461  63.2330084
  94.2362785  68.7766361  62.4323893  95.4323864  68.0985212  63.0652189
   5.1796202  67.6841402  19.1817391   5.9814029  67.1942282  19.3643796
   4.4882922  67.1811533  19.6121991   1.6582637  82.6556110  37.1618795
   2.4275450  83.1214046  37.4897075   1.3190036  83.2153130  36.4634013
 116.3655567  70.1798105  60.7998562 116.0575962  70.8613396  60.2024364
 116.7676926  70.6597662  61.5238428 102.5873470  81.0132408  38.4253407
 103.1072330  81.8066692  38.2972002 101.7141533  81.2454128  38.1093359
 111.5210056 102.7708244  69.9640846 111.2850285 102.0838070  70.5874252
 111.2654781 103.5852718  70.3972054 114.8838234  80.8090782  77.8169918
 115.1679802  80.7462311  76.9051075 115.4098511  81.5199375  78.1833363
  93.1323814  87.3002720  25.8491254  92.3926353  87.8496456  26.1083412
  93.0605793  87.2356129  24.8968148  41.9308238  88.5257339  21.1202884
  41.8920665  89.4699287  20.9679031  42.8034167  88.2704163  20.8209133
  72.6604462  45.5892515  51.0667753  72.1621847  44.8271847  51.3621187
  73.5762358  45.3372812  51.1853743 116.3396835  91.2022781  56.6200352
 117.2090721  90.8320141  56.4674091 116.4849472  92.1477032  56.6560411
  80.8833599  85.4157162  64.3723774  81.7972088  85.1444626  64.4591522
  80.8442783  86.2680531  64.8062372 103.5940075  99.6358013  36.2279272
 103.6409378 100.1783466  37.0151210 102.7383900  99.8371124  35.8489561
   1.1406283  59.4960833  83.6499786   1.8094401  59.5051861  84.3346977
   0.9424739  58.5685349  83.5210419  25.1054911 106.4853477  37.2164178
  25.6083636 106.2891293  36.4259410  24.2024569 106.5708733  36.9107413
  18.0898051  98.8113499  40.0561094  18.4877734  99.2457008  40.8105564
  17.6232009  98.0633736  40.4289913 114.3290997  96.2652111  37.9187608
 115.0944805  95.6930447  37.9740739 114.4343853  96.7262840  37.0865607
  86.7974949  69.6467209  90.2560234  87.5098228  69.0617847  90.5142212
  87.2215748  70.4933882  90.1162148  16.5992676  10.2981715  50.1312923
  17.0273243  11.0119109  50.6041145  15.8495080  10.7107120  49.7024584
  72.9686642  90.8488941  26.9788074  72.7785730  90.3047943  26.2145758
  73.5725975  90.3229141  27.5030565  30.7551913  88.4080887  29.0461826
  30.5842070  88.6668587  28.1406236  31.0867648  89.2029572  29.4638872
   9.6224074 100.5060863  39.8806119   9.9744086 100.8663654  40.6945705
  10.1105552  99.6935463  39.7475052   0.5866294  78.7126064  56.4392138
  -0.3584237  78.7386179  56.5889788   0.6799559  78.3415270  55.5618191
  95.6147766  77.1802855  38.0472350  94.9191952  77.5164557  37.4820900
  95.2120590  76.4470243  38.5124016 101.0796928  70.2984715  55.6411982
 100.4922009  70.9214735  56.0689354 101.3932896  69.7385836  56.3514185
 115.2449322  73.7929964  74.5912313 115.8560658  73.0632734  74.6924734
 115.2842331  74.2561722  75.4279852 112.9916000  75.0892401  60.3491449
 112.9756546  75.8811140  60.8866549 112.1239853  75.0557613  59.9462080
  89.9233055  64.5952511  38.5385656  89.2649078  64.6530581  39.2309594
  90.5941486  64.0122795  38.8940215  95.9538841 100.9189892  48.9865398
  95.2480698 100.4449463  49.4262362  96.1236954 100.4128551  48.1920433
 105.6078815  55.7214260  41.9203043 105.3231907  55.2500868  42.7032614
 106.3175201  56.2865448  42.2257280  21.2345462  56.9368744  32.6401234
  20.9973197  56.0770178  32.9873991  20.8611636  56.9505930  31.7588568
  19.9983649  59.3802691  29.7273469  20.8736186  59.6013308  29.4091034
  20.0491957  58.4484291  29.9402571  18.3971934  58.3800840  62.3479509
  18.2202296  58.4167767  63.2879353  17.7464537  58.9642811  61.9587421
  14.0131430 107.8707504  87.9682255  14.1468577 108.5621452  87.3199081
  13.4362368 107.2428703  87.5332832  85.7535362  59.3224335  45.9649181
  86.6810608  59.1445780  45.8090448  85.7167053  59.6238470  46.8726778
  91.8005466  61.7770815  38.7526035  91.0051632  61.7727375  39.2851233
  92.5118637  61.8765831  39.3853426  65.9259415  66.8177414  18.7738562
  66.7029047  66.9449663  18.2294512  66.0904455  67.3479176  19.5536530
 104.8775976  43.5031794  93.8156304 104.5557326  43.4335230  92.9168638
 104.6566218  42.6618384  94.2150599 117.2637939  71.7463207  39.3001080
 117.1748066  72.2603703  38.4975743 118.2075882  71.7040396  39.4540453
 116.4891148  83.3320427  71.5763330 116.4922523  83.6692524  72.4721622
 117.2240734  83.7742043  71.1513996  77.8366089  61.5931892  54.2555904
  76.8915701  61.4786673  54.3556643  78.2189703  61.0218096  54.9215937
  79.3061066  86.6411018  43.9235449  79.4835424  85.7449818  44.2094231
  80.1491547  86.9615841  43.6029291 104.9192619  82.7258396  14.3559527
 104.3249798  82.6548386  13.6089468 105.7637882  82.9567337  13.9690483
   0.9819655 107.8211021  26.7681980   1.9250350 107.6951027  26.8730140
   0.6406169 107.8296375  27.6624250 113.3483505  64.7241545  60.8376789
 114.1668510  65.0385666  61.2216520 113.5426617  64.6276903  59.9053860
   0.4868464  95.9916496  28.5172272   0.8561282  95.1234436  28.3557343
   1.0841517  96.3922787  29.1488600  79.0345812  88.7954235  35.7828379
  78.9862776  89.6469593  36.2173176  78.6964083  88.9564514  34.9019647
   1.1218409  41.6125917  27.8346372   1.6668277  42.3008728  27.4532080
   1.7422824  41.0336065  28.2774234   3.5341220  80.5833054  50.5604172
   3.8953643  80.0973415  51.3017464   3.7510257  80.0498867  49.7957945
 111.6394329  89.4812489  43.8939714 110.9589481  89.9158382  44.4080830
 111.7346096  90.0265503  43.1130600 100.1517010  92.9935360  50.4577684
  99.9090576  93.9177513  50.4012871  99.3186760  92.5329304  50.5585146
  17.8635173  67.2865486  69.7841167  17.9321818  67.3621655  68.8323832
  18.6610560  67.6994038  70.1153469   4.3436484  30.9443521  36.6165900
   4.0568690  31.5560126  35.9384608   3.6202674  30.9250355  37.2431564
   7.4782710  67.2262812  28.6178041   8.1565051  66.7716455  28.1182671
   7.7199130  67.0852280  29.5332003  85.9163284  92.1675491  89.0357780
  86.8535614  92.1488094  88.8421535  85.6281757  91.2631035  88.9125633
 115.0035191  94.9944019  64.7504282 115.0636196  95.0842953  63.7993574
 115.7163811  94.3983650  64.9801922   8.7354426  77.9327631  29.3564653
   7.8514724  78.1538153  29.0632558   8.9000850  78.5260963  30.0893259
 102.6703358  52.1280813  68.5926819 102.9997444  51.9656992  67.7087402
 102.6443768  53.0820274  68.6671305  69.8593760  39.6554875   7.9172307
  70.7607698  39.4145656   7.7035064  69.3777657  39.5305920   7.0994991
 116.6426754  93.0262089  26.9250989 115.8885193  93.3728218  27.4019003
 117.3980045  93.2760525  27.4573445  36.6364991   8.0239349  84.7063351
  37.0208394   8.8554340  84.9840641  35.8028542   7.9771953  85.1743984
  15.3017114  40.4408223   2.2660706  14.8335717  39.7519738   1.7943069
  15.1351808  41.2347752   1.7580006  86.9414902  99.1809464  49.6689415
  86.8132019  98.4779835  49.0320587  87.8366280  99.0576077  49.9847507
  82.0091915  77.7514076  37.7611589  82.1709824  78.6412525  37.4477315
  81.4240837  77.8640127  38.5102892  16.0254132  19.7723632  34.9156690
  15.4416119  20.2741675  34.3468118  16.4986931  20.4355960  35.4180241
  25.7101571   1.7001014  25.9308052  26.5986954   1.8810420  26.2373853
  25.6996762   2.0156150  25.0271606  92.4712276  79.1739130  45.0507021
  92.0952415  78.3073950  45.2056646  91.8337440  79.7820282  45.4249191
 100.8224487  72.0166969  38.9345980 101.2495041  71.4184046  38.3214831
 100.0692940  71.5256882  39.2630720 109.7983551  89.5405293  59.2895985
 110.7416725  89.5784092  59.1316700 109.6690750  88.7247944  59.7734308
  15.4527907 106.1481094  51.2330198  14.9991660 105.3641415  50.9234285
  16.3288932 106.0837460  50.8528376  53.2689433 105.4872608  51.5320063
  54.1951899 105.7214737  51.4731932  52.8047709 106.2687874  51.2320328
 103.6803341 106.9956875  92.5662231 103.9493179 106.0792637  92.5025940
 103.1137466 107.1322823  91.8069172  67.3017645  87.6838493  39.5521998
  67.1803522  87.5007248  38.6205578  67.1364403  88.6229992  39.6352267
  46.2298142   4.5986133  21.3250661  46.9194829   4.9886375  21.8621564
  46.4680897   4.8268180  20.4265237  98.7040615  92.4504948  10.8386457
  98.3957863  92.7802944   9.9945885  97.9172325  92.1107006  11.2648749
 109.9177647  68.6899805  63.1901073 110.4036999  68.4902763  63.9902401
 109.9385834  69.6450186  63.1292963 101.5827560 104.5757866  51.3254452
 101.7196083 103.7787437  50.8133745 102.4114132 105.0499344  51.2566137
  27.2992646   2.8180938  36.5553594  27.9419648   2.8378635  37.2644281
  26.4822423   2.5563960  36.9798779  46.3577418  89.3284035  31.9177437
  46.2187915  89.1595650  30.9858561  46.6951709  88.5019398  32.2631884
   6.4520507  96.7418957  34.6843076   6.0853915  97.3784161  35.2980113
   5.7245402  96.1514568  34.4884849  91.8795395  72.6311350  13.2188213
  92.0924282  73.3396149  13.8262451  92.0269203  73.0072546  12.3510396
  96.3227272  66.2872839  55.2442408  96.0134888  65.4712534  54.8509264
  95.5234146  66.7725420  55.4488087  81.1001968  93.9661217  15.6265628
  81.4187622  93.4416389  14.8919451  80.1465988  93.9116573  15.5639935
  86.5951729  93.9658737  39.3939471  85.7928085  93.7130642  38.9372945
  86.6950893  93.3097363  40.0836849  35.9031235   3.2897811  62.9138613
  36.2369381   2.9555659  62.0813370  35.4709279   2.5373798  63.3179951
 104.0038300  97.4381924  56.5655184 103.1519699  97.8658485  56.4778996
 104.0815544  97.2484970  57.5005102  23.3242547  13.9356666  32.7811384
  23.7779366  14.4825893  33.4224486  23.5748421  14.3026977  31.9333625
   0.8058600  86.1992168  48.7201262  -0.0849958  86.3926601  48.4282541
   1.3666301  86.6894436  48.1189203  90.6755733 101.4376736  41.7862177
  90.0296402 100.7915020  41.5007973  90.4631996 101.5986824  42.7055645
   1.8791615  18.7955337  41.8722582   1.5655648  18.0954032  41.2997913
   1.2837922  19.5262103  41.7052603  86.3771820  66.4308882  29.7978425
  86.8743706  65.7187128  30.2001357  85.9268475  66.0211754  29.0592146
 105.0985146  96.4304924  67.3134947 104.2162704  96.3303757  66.9559240
 105.0068283  96.2142658  68.2414341  72.1015263 101.2404442  50.4732656
  72.1134853 100.3126144  50.7082415  71.4009857 101.6139412  51.0080338
 109.6462536  80.9665871  60.3889227 108.9421654  81.4187336  60.8537436
 109.8558521  81.5421200  59.6533537   9.9854045 110.6663895  35.7707810
   9.9029403 111.5836716  35.5099583   9.6670012 110.1729107  35.0149226
  84.8145485  77.6530647  37.4994802  83.8666916  77.5196791  37.5006032
  85.0845718  77.4606228  38.3974147 114.8342514  95.1656342  61.6476583
 115.3247643  95.7605553  61.0804892 113.9205933  95.4292011  61.5381670
 116.3975143  92.7193069  47.8828192 117.1507168  92.2048092  48.1729984
 115.9906197  93.0262089  48.6930513  45.4414498   4.0442138  16.2946844
  44.8391091   4.2558246  15.5814970  45.4455410   4.8273521  16.8450534
 109.3952274 105.2233696  48.0409527 110.0083065 105.5041409  47.3615980
 109.9076939 104.6386051  48.5992241  99.5036125  65.3861761  87.6039124
 100.2369499  65.7443285  87.1037483  99.1195107  64.7263098  87.0266151
  52.8952157   0.9950309  38.8249636  52.4500405   1.5726333  38.2049441
  52.9276978   0.1472907  38.3816552 113.7635040  53.4546280  68.1924820
 113.4340191  52.6141167  67.8743553 113.3018017  53.5955334  69.0190506
  62.7668715 109.6132088  41.5254879  63.5682344 109.6427727  42.0481491
  62.4087954 110.4988575  41.5857649  97.9733276  88.7540531  49.7623539
  98.7857723  89.2597198  49.7404766  97.7095509  88.6847878  48.8448286
 103.2835102  93.6986732  29.9639201 103.6773491  94.0445328  30.7648587
 102.3666000  93.9692879  30.0116849  21.2257628  83.7300682  39.7462988
  21.3191752  83.5073090  40.6725216  21.5314631  82.9516029  39.2807221
 116.7224121  62.8788090  40.0123596 117.2817516  62.1513462  40.2847099
 116.0064793  62.4634743  39.5315623  44.0312516  15.1483111  32.9781795
  44.8627888  14.9242549  33.3959961  44.2631947  15.8017020  32.3182392
 116.1789131 105.8342266  64.1302729 116.0365582 104.8900509  64.0630817
 115.3339291 106.2207890  63.9004993  12.0881324  76.1468315  58.5074425
  12.3812251  76.7780542  57.8502655  11.8626265  75.3644323  58.0042267
 112.7757072  98.0633926  48.9180708 113.4661770  97.4007607  48.8979530
 113.1666565  98.8294983  48.4979630 108.3169556  96.7339897  27.2144127
 108.8862419  97.5000668  27.1417809 108.9141941  96.0079861  27.3945546
  97.2700214  57.2075939  45.3295612  97.9857826  56.8696070  44.7913361
  96.6032982  56.5214300  45.2997732   4.0189605  70.8931875  43.3920908
   3.2628302  70.3882074  43.6912251   3.7605719  71.8066740  43.5146093
 103.2040215  84.4683552  34.8189068 103.9998722  84.2222500  35.2903771
 102.7285385  83.6453533  34.7056794 110.8394432  43.8026476  54.5123291
 111.5624523  43.9307308  55.1263952 110.6377125  42.8688002  54.5712757
  80.9649944  52.0686960  36.1095214  81.4144707  51.3948345  36.6195321
  80.4895973  51.5821409  35.4361033  18.3221202  46.9357586  40.0401402
  18.4242301  46.3575220  39.2841983  18.0939727  46.3491535  40.7613039
 107.4334049  70.1455641  12.2933769 106.6606712  70.2613974  11.7404771
 107.1597767  69.5134115  12.9580164  60.9073305  61.5678406   8.2557154
  60.3889084  61.6712999   9.0536898  60.4943180  62.1563339   7.6237893
 118.0833530  89.2903709  32.7869225 118.6615753  89.7776985  32.2000670
 117.4736404  89.9475098  33.1225491 105.0290585  86.7881966  63.8350916
 104.2938137  86.3761234  63.3814001 105.0871181  86.3224602  64.6693325
 101.9373035  95.0149918   9.8366314 101.4092541  94.7646332  10.5947375
 102.7211380  95.4156685  10.2125061  71.1165047  87.1167469  61.2521458
  71.9825077  86.7483425  61.4269114  70.5612135  86.7634583  61.9471788
 102.2537882  23.3562713  65.7161474 102.2917110  23.5403113  64.7775745
 101.3184101  23.3324580  65.9179497  75.2011299  77.7440453  64.2020035
  75.8693027  78.1885433  64.7237253  75.4924488  76.8329811  64.1656828
  75.0163078  45.0991678  54.7391796  75.0573826  44.1910410  54.4394302
  74.7932386  45.0350142  55.6678152  90.8109665  80.5213451  80.5799866
  90.9256268  80.2159309  79.6800947  91.3774872  79.9516392  81.1002922
  96.2517357  74.7411633  79.3966007  97.0190239  74.4483232  79.8882723
  95.5866909  74.0753269  79.5715857   2.2953563  73.9466095  24.8059464
   2.8370528  73.1969738  24.5592809   1.4101367  73.5894299  24.8769045
  28.6784493  10.4759746  50.4345274  28.5090100  10.1167159  49.5636320
  27.8553425  10.8955817  50.6848240 109.0428257  74.8200607  55.0002813
 109.4218540  74.1728878  54.4055223 109.0911293  74.4092846  55.8635092
   4.8683600 108.1838131  66.9760323   3.9798980 108.4720612  67.1852636
   5.0481944 107.4856758  67.6057100  30.0592570 110.7596874  62.6221466
  30.4466777 110.0850391  62.0644855  30.7047324 111.4665031  62.6265812
 116.5887260  73.9623308  66.7395496 116.0891151  74.0360212  67.5526905
 116.3264751  74.7271299  66.2271643  92.8539848 103.1600857  28.9539647
  92.1191978 102.7873230  29.4411635  92.7949810 104.1018105  29.1149306
 108.4844971  66.9676161  51.5315199 108.3395290  67.9130077  51.4934301
 108.6538124  66.7145157  50.6240511 108.7415504  86.1160564  23.0162311
 108.3198643  86.9721889  23.0900621 109.5489693  86.2022495  23.5230732
  95.5973434  65.2873945  79.2536068  95.6295013  66.2220716  79.4575119
  96.1860561  65.1849842  78.5058355  97.1456718  67.2583866  62.4782848
  97.8218460  67.0007038  63.1048775  97.5766468  67.2047997  61.6252756
   4.9534564  90.7424259  61.6302299   4.8146014  89.8069859  61.4822149
   4.2711119  91.1706066  61.1132193 108.2063961  60.2152729  52.0936012
 108.4569168  61.0738707  51.7525959 108.9875031  59.6742916  51.9776583
  12.8346305 107.7419186  34.0600491  12.5283198 108.2165718  33.2873178
  13.6310057 108.2026768  34.3240786 104.8504257  56.9807434  25.8984399
 104.9498177  56.3773012  26.6347885 103.9798546  57.3608494  26.0160995
   4.6219210 100.0828838  88.7237453   3.8291507 100.5848122  88.5344696
   5.1542144 100.1686001  87.9328251  87.4543476  95.4302883  11.0949886
  87.2034454  95.7555103  11.9595754  88.3850384  95.6412315  11.0205567
 115.8876514 109.1205788  39.3420887 116.7838860 109.0154171  39.6613860
 115.7802200 108.4227276  38.6957932 111.9689846  77.8177261  26.4796352
 112.1996498  77.1160364  27.0884514 111.1303902  78.1482506  26.8017268
  15.0679927  69.9372387  39.1181493  14.3770270  69.3211889  38.8746762
  15.5158381  70.1324129  38.2949948   2.5957160  80.7713127  71.0072994
   2.9306369  79.9879313  71.4436245   3.3566718  81.3469791  70.9313154
  86.5547943  69.5474195   1.7294970  86.9651413  69.8627281   0.9242483
  86.6647720  70.2663851   2.3517728  85.5614281  40.6318045  41.7205811
  84.7113514  40.2093410  41.5976000  86.1999989  39.9409127  41.5441561
   0.0477843  57.7997684  43.9702034   0.2312236  57.1958590  43.2505751
   0.5434756  57.4485350  44.7099018  15.6648957   6.9512420  45.5420399
  14.9068390   7.4052959  45.9100199  16.3925301   7.5606780  45.6660032
 115.8466148  83.5419369  42.2255087 114.8962593  83.4383106  42.1772957
 116.0935593  83.8885212  41.3681126   9.4857936  90.0445366  28.9027333
  10.1429419  90.3770161  29.5141578   9.9697547  89.8904896  28.0913877
 106.1878300 105.8597755   4.1035935 105.8510876 105.7215977   3.2183015
 105.5393124 105.4467106   4.6737126   1.0333209  76.4487457  66.0782623
   0.5965953  76.2593079  65.2478361   1.4905219  75.6372833  66.2990046
  74.0816784  33.4765887  31.7568111  74.8807001  33.3668137  32.2723174
  73.6435223  32.6272464  31.8103456  90.1665115  52.6390648  37.0697951
  89.9453735  53.1524181  36.2927485  90.1733112  51.7321348  36.7637420
  84.3283653  62.6934242  58.8827276  85.2025414  62.9480934  58.5874462
  83.9750862  62.1709871  58.1626701  73.1684399  67.2746706  50.5623865
  72.8084755  67.2969389  49.6757317  74.0353489  66.8821907  50.4591513
  71.8916607  95.0740719  49.6023846  72.4742794  95.4456806  48.9400530
  72.4768782  94.7940159  50.3061771 112.4377632  71.2864304  30.8867431
 113.3749008  71.1676264  31.0413170 112.3788643  71.5609932  29.9716592
 108.8154125  93.8274765  30.6704688 109.0368557  94.6970654  30.3373003
 109.0856647  93.2283878  29.9745607  88.2031822  73.9988041  65.3181362
  88.1770897  73.7016487  64.4086027  87.2834301  74.0663815  65.5745029
  69.3116283 109.5566177  55.7424116  69.2066717 110.1714325  56.4685106
  68.6600590 108.8755322  55.9091902 114.9854183  87.7715397  48.4722376
 114.3333817  87.8374481  47.7745771 114.7262955  86.9959354  48.9697552
  92.0008469  44.1018677   3.5901573  92.0596600  44.4249153   4.4892758
  92.0318604  44.8911810   3.0495507  17.7109484  87.0378017  42.2106504
  18.3988433  87.3314571  42.8079891  16.9009261  87.1369743  42.7109146
   2.5678305  95.4935551  42.7202654   1.8180995  96.0744667  42.5911617
   3.1946044  95.7581806  42.0469379  13.0417590  79.2803955  56.9843340
  13.1545310  79.8768950  57.7244043  12.1170001  79.3607950  56.7506647
  92.7040958  76.6041470  20.9026766  91.8195724  76.7349672  21.2443328
  93.2353973  76.4205647  21.6774368  71.8714905  56.5924501  58.4039307
  72.2894430  56.5195227  59.2619658  71.9826984  55.7276106  58.0090618
 117.3540306  67.9907703  44.4002390 116.8374252  67.3900318  44.9373245
 116.8781948  68.8202000  44.4434166  54.6144598   6.3340901  69.8043945
  55.0914305   5.7936810  70.4342297  55.2548235   6.9826506  69.5119336
  58.0679928   1.7323165  57.9390764  57.7660500   0.8737044  58.2354689
  57.7931630   2.3346191  58.6303997  76.1183929  81.5761375  36.2099433
  76.7280960  82.0293427  36.7922568  75.5951548  81.0256386  36.7925334
  70.7323551 107.9466057  73.7632704  69.8545456 108.2597351  73.5450029
  71.0049629 107.4436951  72.9958057 101.3691044  82.7228928  41.5245438
 100.4647064  82.4712276  41.7114973 101.2998867  83.3440781  40.7995844
   1.1589579  96.0176373  47.2078133   2.0007663  95.6364632  46.9582319
   0.7296138  96.2158298  46.3755798  79.9502277  99.2739868  22.7760124
  80.5208206  98.6513138  23.2265115  79.0637589  99.0002060  23.0114865
   0.7843642  54.5690727  20.3933406   1.2373023  55.1180649  21.0334039
   0.8609061  55.0494528  19.5689571  88.7132168 107.7878380  34.4017148
  88.4585762 107.0446396  33.8548636  87.8853035 108.2060528  34.6381068
  32.2248589  40.6816440  18.8813794  32.9104554  40.7841544  18.2213235
  32.4349247  41.3352161  19.5484173  98.2301331  92.9319572  62.4193621
  99.1200161  93.2399464  62.5910759  98.3017731  92.4349022  61.6044855
  43.3797680  19.8051601  24.2285109  42.6572167  20.4329639  24.2297316
  43.2029187  19.2379050  23.4780622  65.1960408  13.6480289  37.2881556
  65.7424866  13.3893352  38.0302501  65.6735169  14.3698554  36.8792439
   8.1962638  94.6708775  53.3039284   8.4151988  93.8535690  53.7514734
   7.7469973  95.1943970  53.9674950 111.7266750 100.6926823  63.2040834
 111.7643452 101.3372612  63.9107180 111.8127632  99.8478222  63.6457157
  84.0424728  99.8370361  23.7373519  84.0079403 100.7935143  23.7238145
  84.2135239  99.5906544  22.8283572 117.1123505  81.6542625  68.1076908
 116.9114876  80.7216358  68.1857586 116.4627171  82.0864201  68.6621666
  96.6245079  96.7228413  49.3797445  96.3401890  96.2410831  48.6030197
  96.6366100  96.0672569  50.0770950 109.7037983  86.9536400  50.7862759
 110.4498291  86.9987965  51.3842964 109.9087524  87.5879383  50.0993347
 109.3066597 103.4828663  29.9617434 109.5018768 103.1810093  29.0746093
 108.3754826 103.2948685  30.0792360 107.7245617  64.1616440  90.9951973
 107.0689487  64.3552923  91.6651917 107.3351860  63.4586525  90.4751778
 114.2136383 110.5361843  27.7430654 114.1173172 110.4327774  26.7963552
 114.4082928 111.4655590  27.8639078  14.6877150  68.8361168  20.4447603
  14.8369365  68.2270432  21.1679459  15.5647902  69.0482664  20.1254439
 111.3927013  32.6983504  35.2975583 111.1421091  31.7931991  35.4823565
 112.3016149  32.7599769  35.5913401 117.0736790  88.8900089  66.7296457
 117.5755119  89.5912457  66.3141203 117.0636082  88.1860161  66.0811663
  51.9395291  11.4352374  24.5088387  52.4016892  11.8539100  25.2350307
  51.9330346  10.5048423  24.7336793  89.5643234 110.9433651  34.0727019
  89.7504902 110.0272942  33.8667989  89.5864391 111.3885212  33.2256031
  75.8560944  76.2252045  46.0163975  75.8670235  75.2968121  46.2492085
  76.7653513  76.5075970  46.1150837  45.2829300   6.9312530  33.7328291
  45.5968701   7.6674419  34.2579007  44.3377148   7.0682292  33.6692834
  34.6785598 100.0572300  47.6791096  34.4688563  99.3611717  47.0564032
  34.5639663 100.8666229  47.1811390 100.2672482 103.0524921  94.5461369
 101.1516953 103.2601547  94.8475647 100.3453732 102.9983139  93.5936642
 116.1930084  76.1595488  13.8721013 115.9492779  75.3559256  14.3314672
 115.7098389  76.8504572  14.3253422  23.0151402  16.7811065  25.2248406
  23.0940949  17.0342116  26.1445904  23.8382279  17.0646434  24.8268938
  15.1163344  86.8671322  37.1049380  15.7843928  86.8436527  37.7900481
  15.0235801  85.9551239  36.8294883  94.1364956 111.0151482  33.6281681
  93.3358860 110.9825706  34.1518068  93.8692474 111.4290333  32.8074908
 112.5866508  85.7655907  26.5491557 112.1628571  84.9089336  26.6018438
 112.0137787  86.3473415  27.0487666 117.5624561 104.7294235  58.6380434
 117.1275425 104.7774792  57.7867031 117.2940826 105.5296135  59.0895987
  38.9079606  15.2255206  55.8151007  38.3169495  15.7183795  56.3843441
  39.5369374  15.8757739  55.5023813  46.1602931 104.6134567  28.9285731
  45.2250438 104.4372177  29.0310597  46.5605120 104.2497253  29.7183514
  25.6928115  89.1883469  24.6626592  26.3471370  89.6615505  24.1486835
  26.1113124  88.3535671  24.8729420  54.9456805  46.3272284  86.7310110
  55.4083651  45.8272265  87.4034336  55.3526610  47.1932982  86.7540225
  26.4513068  93.9971352  56.3576746  27.3631720  94.1933060  56.5727282
  26.2019400  94.6755409  55.7301331  74.0650272  94.7253323  31.3823462
  73.7199688  95.2496147  32.1050453  75.0078201  94.8902416  31.3956285
  98.0908680  61.5663147  39.1943526  97.3519230  61.9529200  39.6641707
  97.8258610  60.6604481  39.0349770 101.3738155  85.5516148  55.5084324
 102.1009731  85.5076218  56.1293554 101.4445686  84.7442245  54.9991608
  14.4961028  92.3691273  46.8507528  13.7133841  92.1408844  46.3492584
  14.6981101  93.2660580  46.5844107   5.1322608 109.7937107  52.0563316
   4.5513682 109.0388298  52.1509075   5.1750903 110.1743603  52.9335403
 116.1762810  81.5959644  56.8946457 115.6935215  82.4171829  56.8009567
 116.5857220  81.4599991  56.0401821   5.7275252  80.6472111  42.9589987
   5.2083735  81.2601471  42.4383974   5.9864383  79.9656677  42.3387575
   4.4974665  81.8266106  45.2136564   3.9537673  81.0435104  45.2995205
   5.2841239  81.5235043  44.7603035 106.4483643 101.1390400  47.3973656
 106.1847591 100.2591705  47.6667452 107.1012688 101.4025307  48.0458450
 104.1791534  85.4796028  32.3678064 103.8696289  84.9628830  33.1117320
 104.7147083  86.1686420  32.7610564   8.1266915  13.6434131  21.0754275
   7.8458249  13.9513259  21.9371343   7.3829495  13.8267760  20.5014372
  23.8520752   9.4495444  45.4199409  24.3317448   9.3813377  46.2454700
  24.3319737  10.1081710  44.9178028 118.0140114  89.3736172  44.8074389
 117.4381447  90.1315308  44.7065067 118.1150436  89.0296936  43.9198923
  99.2443848  97.9383945  55.2348471 100.0838947  98.0923939  55.6681490
  98.8798618  98.8132954  55.1010513  16.7558800   0.4073100  20.7257485
  17.3818051   0.6648879  20.0489163  16.6152226   1.2038760  21.2375450
 104.3242550 103.9504719  10.2962387 104.7426796 103.1746101  10.6693387
 103.5968018 104.1387844  10.8891833  64.2203175   5.0147586  41.9614410
  65.0533616   4.5435386  41.9767237  63.6323487   4.4791179  42.4939966
  89.8072720 103.2680035  38.8572526  90.4964542 102.6151943  38.7343550
  90.1326847 103.8304138  39.5601201  14.9058013  54.1043854  58.2807636
  15.3685622  54.9110746  58.5073566  14.1439395  54.3976212  57.7809572
 107.6220417 108.7555790  65.8870411 108.0620670 108.9382648  65.0568390
 108.3086109 108.3940125  66.4475155  14.7794394  95.4217529  36.2231421
  15.1148944  94.8127460  36.8810272  14.7111754  96.2580967  36.6836834
 111.1030006  69.3690681  86.1572742 111.1869240  70.0953817  86.7750645
 110.4496479  68.7922621  86.5530777   3.6574875  11.4630275  44.5865488
   4.0212094  10.6326823  44.2791939   4.2420994  12.1290927  44.2248726
  12.2008740  13.2999759  52.8970194  11.8942486  14.0516811  52.3899031
  13.1551777  13.3436732  52.8368568 109.2781258  82.8693676  34.1190553
 108.9417171  82.9864502  35.0075102 110.1958847  82.6260948  34.2405772
   2.5879340 109.7025204  81.2422943   3.2900100 109.7241974  81.8925667
   2.6235633 108.8169193  80.8807945 115.9057617  66.6592598  77.7471209
 116.5252876  66.5384150  77.0275259 116.3309097  67.2925711  78.3253908
 106.2537575  94.5067978  65.7581806 106.8510532  94.1089058  66.3915491
 105.7416916  95.1316166  66.2716293  50.4288708   8.1926684  27.5730968
  49.7423207   8.8593249  27.5518489  50.2012288   7.6381259  28.3193445
   4.3203120  77.9783535  31.3392258   3.6676078  77.3091888  31.1332536
   4.8891787  77.5659990  31.9892955   7.8347050  30.2382903   2.8656667
   8.1338631  30.2841334   1.9575743   7.0281826  29.7242599   2.8264841
  23.0166678  64.1070080  60.5863571  23.8931041  63.9557695  60.2324772
  22.6802020  63.2310295  60.7752657   7.2990851  71.3800716  58.0824518
   8.2136206  71.5989161  57.9036379   7.0749335  71.8998909  58.8543129
  33.0372004  75.5821943  12.5685191  32.2250800  75.9262228  12.1965683
  33.6945300  76.2476063  12.3651338 107.4590397  51.2523127  13.6781287
 107.0242214  50.8970547  14.4533408 108.1156063  51.8552113  14.0269494
 115.6981087 108.2157516  55.5772686 116.5951252 108.5265350  55.6997681
 115.2127934 108.9905643  55.2937698 112.6675415  54.1052437  40.1990128
 112.4152851  53.8842106  39.3024945 113.4931850  53.6409807  40.3368902
  85.0601292  81.0205555  32.5916886  85.8573341  81.1938190  33.0923653
  84.9459076  80.0716400  32.6440334   1.1742436  22.3393779  45.5566263
   0.6706988  21.8900352  44.8778248   1.6770970  21.6444259  45.9813690
  23.8922822  17.0142322  44.0985775  24.1628586  17.7123599  43.5022259
  23.9764916  16.2124305  43.5825729  31.9310605   6.1270385  30.2130198
  31.6586339   5.5220657  30.9029603  32.0049321   6.9741016  30.6526423
 108.1563854  82.8163719  95.0566006 108.9445496  82.6867867  95.5840969
 107.6681709  81.9984150  95.1505089  35.0976025   8.4212356  45.6702280
  34.6600281   8.8274436  44.9220610  36.0279881   8.4475665  45.4468012
  11.6408955   0.3788333  67.3964214  12.5364243   0.2565436  67.7115250
  11.7276703   0.4373794  66.4449596  66.4714943   8.0650764  45.2238083
  66.4510190   9.0002494  45.0206900  66.1184727   8.0049949  46.1115026
 117.6367378  87.8269482  79.8806715 118.4211540  87.4999809  80.3211403
 117.3591042  88.5747814  80.4097271  82.4479597   6.5953682  94.8787467
  82.1227186   6.0250710  94.1821763  82.3081702   7.4822949  94.5469963
  41.4149510  13.1331782  35.2446151  41.4101922  14.0901046  35.2220821
  40.7692563  12.8749042  34.5868850  99.2946434  83.5391903  14.5915699
  98.7849808  84.3459415  14.6666121  99.7510815  83.4654045  15.4296935
 105.2754021  98.2469368  25.0435662 106.1175537  97.9595661  24.6908188
 105.5027390  98.9066219  25.6988215   3.7358908 100.2978134  24.3917561
   3.5934882  99.3528652  24.3366694   4.6163611 100.4282761  24.0396380
  84.7842789  99.5302105  46.4558792  84.8482323 100.4664898  46.2674189
  84.2995644  99.4843388  47.2800064  88.1444931 109.7171402  55.3202629
  87.2653389 109.9281311  55.6345940  88.7110424 110.3633690  55.7417154
  21.9529109  96.4618492  84.0361881  21.4158492  95.9158897  84.6103954
  22.6701216  96.7629528  84.5940208  83.6900347  80.4140908   3.2591412
  84.1438597  81.2295491   3.4719631  84.3919390  79.7934682   3.0631802
  96.4910221  72.2456741  63.1844664  96.2376404  71.9815874  64.0689421
  96.6314983  71.4209986  62.7192688   0.9196238  73.6787844  30.5012226
   0.2530627  74.3155670  30.7589865   0.7140021  72.8963947  31.0129070
  19.5416884  78.1233215  42.0467186  20.4950862  78.0646801  41.9848251
  19.2814688  77.3222446  42.5014639  98.1519222 102.4549389  74.8120546
  97.9778004 102.4453068  75.7532310  97.4138451 101.9824409  74.4270754
 105.1545841   8.7854533  60.2538824 105.8077366   8.3225017  60.7785749
 105.5446417   9.6438365  60.0887632  93.5624409 104.9773407  22.6029634
  93.6782074 105.9274578  22.6137996  93.4887695 104.7344971  23.5259080
  27.1267354  23.9318423  21.6246247  27.8547608  23.5288768  22.0977283
  27.4683606  24.7777515  21.3348389  85.3865051  94.5084858  23.1868958
  84.7457123  95.2191639  23.1636858  85.1041985  93.9087868  22.4963140
  55.9452282  12.0665984  53.4122372  55.6037938  11.1748462  53.3457184
  55.3169762  12.5224547  53.9723492 111.6764545  65.2539492  71.0574245
 112.4186802  64.7267914  70.7617283 111.5276146  64.9728727  71.9602394
   7.8941649  90.2411218   9.1796952   7.2541874  89.7316975   8.6825556
   7.6123637  90.1563091  10.0905335  61.7875099  27.9693627  38.8046741
  61.3728237  28.4232783  39.5383143  62.6586676  28.3610463  38.7422490
  37.2419596  14.6255565  17.6784337  36.4561653  14.9619520  18.1092417
  37.3464227  13.7405586  18.0278587 105.9354509 108.8990812  42.8712368
 105.6900466 108.6661206  41.9758368 105.9743775 109.8554831  42.8677797
  15.6111353  63.3195014  16.5787327  15.6262654  63.9534898  15.8617485
  14.7292727  62.9482741  16.5516257   5.7883566  75.1234479  36.6596460
   6.1695069  74.6614618  35.9129715   5.0169724  75.5625005  36.3012719
  87.7679539   8.4425461  27.4368191  88.0127907   9.1868979  27.9865718
  86.9346237   8.1412977  27.7988029  84.4860363   4.7881174  37.7123690
  84.9177551   4.1783926  38.3107734  83.6392879   4.3822393  37.5265765
  42.8231734  90.9063287  25.2678442  43.4770315  91.2174744  24.6418405
  43.0768412  90.0013537  25.4492307  49.4793337 106.4966563  52.0935154
  49.7827833 107.3002551  51.6711712  49.2614668 106.7630691  52.9867077
  55.3836649 102.5174458  13.2965541  55.8859556 101.7104537  13.1838608
  54.9343413 102.4048943  14.1342115  56.1488914  13.5122883  29.9368882
  55.6819725  12.9317081  30.5378413  57.0480490  13.5236061  30.2649426
  69.6916693  77.3374791  17.5731361  68.9333838  77.7066822  18.0258060
  70.4235857  77.8943200  17.8385782  75.2350140  30.6183720  19.2541146
  74.7862196  31.4326310  19.4817150  76.0795116  30.6774020  19.7008479
  19.9790447  75.8310289  16.5445673  19.0340203  75.6826444  16.5107298
  20.2665442  75.7524795  15.6349492  77.9449899  38.2099717  83.2979312
  77.6390392  37.3061972  83.3742013  77.1643311  38.7411624  83.4549060
   9.7156399  80.2581067  30.7328701   9.8661297  80.7892818  29.9509239
   8.8275927  80.4846616  31.0090542   6.6280192 106.2232567  26.0954142
   7.2812384 106.9006268  25.9201789   7.1304673 105.4944916  26.4596605
  68.2478506  78.7756937  94.5874761  67.9049498  77.9196280  94.3309529
  68.8795907  78.9956206  93.9028093  72.8511477   9.1713411  37.5804090
  72.5075340   9.3693870  36.7092371  73.1879616   8.2783103  37.5077081
   6.5701597 107.9501994   9.1856021   6.9029825 107.8513915   8.2935822
   6.6937607 108.8779981   9.3859619  12.6661175  71.2717719   3.2956058
  12.5007504  72.2064896   3.4188318  11.8120116  70.9056516   3.0660665
  34.3151522  22.9685307  31.0907078  33.8506603  22.2436500  31.5090704
  33.6998773  23.7008190  31.1284065  54.1880244 108.5459680  14.3381000
  55.0687140 108.4322221  13.9807951  54.3287962 108.9219530  15.2070355
   6.5469759  91.5483422  50.8601332   7.4950522  91.5601189  50.9914398
   6.4367455  91.3716884  49.9258566  41.6772478  86.9693203  82.4861717
  41.2140959  87.1983404  81.6804028  41.7823141  86.0190172  82.4402046
  58.6926573  90.4834838  52.0260954  59.1095465  91.2267346  51.5901804
  59.0648764  89.7138018  51.5956593  57.3188210  26.9159818  24.2920399
  57.7839088  27.7159786  24.5368409  56.8124390  26.6854548  25.0709295
  13.8617581 104.7760476  38.7475657  14.3941801 104.1029025  38.3237314
  13.1109398 104.2996640  39.1019130  10.3712528  76.4671798  61.7811394
  10.3030461  77.4138636  61.6571569   9.4644278  76.1688418  61.8511343
  18.6206024  79.7533984  32.7170229  18.5479611  79.8615069  33.6653185
  18.6852568  78.8071270  32.5880933  77.3616600  23.5588884  49.9750519
  78.0411196  23.6303020  50.6454754  76.5699148  23.3265948  50.4602432
   7.7305477  76.0661597  17.3471761   8.2774227  76.8230553  17.1367753
   8.2613629  75.3100748  17.0965660  29.9455905  12.5529718  23.1387115
  30.8734107  12.5231290  23.3721423  29.6757555  11.6349888  23.1117344
  10.1337450 110.2552320  30.5016685   9.9980515 109.6943576  29.7379684
   9.2510050 110.5024308  30.7771611  67.4796677   1.9335826  30.8534431
  67.0748901   2.6013499  31.4070415  67.7777910   2.4122086  30.0799632
  35.3895682 108.9036305  19.8508036  36.3151234 108.6610688  19.8236310
  35.3615778 109.6792331  20.4110622   2.7448719  97.7510185  36.9355989
   2.7376383  98.6353726  37.3017907   1.8334454  97.5836367  36.6957593
  69.1994953  17.5429857  45.9353542  69.3670607  18.3257651  45.4105568
  69.4666147  17.7870452  46.8215322  42.9610556  97.2768934  82.7043533
  43.1112593  97.6052256  81.8178654  43.8378733  97.1822185  83.0764675
  61.2752151  17.6821983  33.1705213  61.9484949  17.6060915  33.8466382
  61.1653090  18.6250114  33.0470085  43.0625677  11.5967524  25.1118660
  43.3396101  12.2874582  25.7138681  43.7325478  10.9188807  25.2004647
  39.8683327  99.9241490  30.7445121  39.8173779 100.6380780  30.1089478
  39.1814392  99.3143005  30.4752612  54.7917271   3.3394778  18.6765850
  54.9954081   4.2012039  19.0401423  53.8846254   3.1782866  18.9362383
  26.1400765  99.1690690  16.4297998  25.6649512  98.9615471  15.6251752
  25.4830902  99.0944536  17.1219206  18.5336655  98.8796074  14.3954778
  19.2066544  99.0132506  15.0629008  18.3864516  99.7502966  14.0260720
  58.3161211  30.0681758  28.5841632  58.6773348  30.4726100  27.7953744
  57.7257490  29.3896675  28.2565689  19.2141360 100.7124097  26.4185357
  18.2668322 100.7320745  26.5543771  19.3188637 100.6624586  25.4683924
 115.0073511  33.7813585  93.3995890 114.4835026  33.2108968  92.8371072
 115.1032287  34.5904988  92.8972632  53.0665159  39.1149259  15.8287668
  53.2526159  38.8222528  14.9366117  53.8856506  39.5103693  16.1268830
  73.2439375  25.6306100  70.0500870  73.0056715  25.0339794  70.7596588
  74.1404152  25.8979464  70.2528048  58.1757069  27.6181698  20.7466984
  59.0094662  27.8288794  20.3263688  58.1006813  28.2512736  21.4606905
 114.4424451  47.4273629  16.4721918 113.9287437  47.1707625  17.2380221
 115.3331555  47.1410127  16.6743529  77.8708315  35.6138635  24.4863176
  78.7918663  35.6077981  24.7468805  77.4043751  35.2679229  25.2472234
  38.1895018   3.3385351  38.7999558  37.5478220   2.8075954  39.2717409
  37.6714253   4.0291357  38.3865571  44.0705317  94.5340211  57.0314932
  43.2453936  94.7395558  57.4709702  44.5983332  95.3264363  57.1301937
  60.2973938  27.9152322  34.7651744  59.6404219  27.2694635  34.5051765
  59.8143625  28.5473609  35.2974582  41.2641638 108.8858927  63.5967350
  41.4464014 108.0241273  63.9714050  41.9328039 109.4574426  63.9741993
 103.1678976  84.5672841  20.2628231 102.9285897  83.6462850  20.1592731
 103.8049282  84.7289295  19.5669103  70.5887413  23.3080244  71.1345816
  71.2656641  23.4921598  71.7858124  71.0734463  23.0312014  70.3569841
  44.5857065 102.0947714  65.2718353  44.6640223 101.7430467  66.1586237
  44.0129488 102.8559275  65.3657818  79.3088007  15.3766465  50.1791954
  79.0937805  15.1650679  51.0876179  78.9205170  14.6656609  49.6693230
  60.8893013   4.8683172  17.4737179  61.5707970   5.5232978  17.3227286
  60.1630592   5.3617978  17.8548729  35.6584662 101.2589438  61.2962151
  35.5506390 100.7488758  62.0989799  34.7826069 101.2875290  60.9111404
  88.0114651  12.7324069  40.8999252  87.2504139  12.1647143  41.0214663
  88.5661507  12.5552869  41.6596460  94.1219694  32.0727342  85.3381875
  94.9917108  32.3611181  85.6149831  93.5199959  32.6791256  85.7696393
   8.1670414   8.3633178  65.2982357   7.4936043   8.8881677  64.8655179
   8.7477051   9.0066474  65.7046750  42.7792025  13.3306098  27.1897769
  42.6521683  14.2438281  27.4469280  41.9171000  13.0447066  26.8876672
  69.1672611   9.3670315  43.0255270  68.7039518   8.8028449  42.4064350
  68.5305691  10.0437140  43.2556534  19.1893214  92.0155699   6.9129819
  19.3924969  92.2008021   5.9961164  20.0331229  92.0718713   7.3613864
  19.1974705 107.5124390  70.7573080  19.4081515 106.6806496  71.1815357
  20.0149172 108.0096329  70.7857752  18.1940001 105.4880227  27.3564553
  18.6110466 105.4080231  28.2143044  18.5545128 104.7627575  26.8463039
  40.0321883  98.1892426  46.2821198  39.2086333  97.7917321  46.5649223
  40.1859158  97.8267867  45.4096365 116.6408003  89.6653433  27.7375269
 115.9175743  89.1778250  28.1318665 116.3304294  90.5702658  27.7056718
  31.9861000  84.4875855  30.0042319  32.0016068  83.5752029  30.2932811
  32.9080265  84.7419591  29.9645495  19.8006314 102.5980736  78.9356089
  20.6755751 102.2283209  78.8173342  19.9158972 103.2787759  79.5986271
  47.3856831   1.6410172  25.5007672  48.0335903   0.9409042  25.5800939
  47.8950834   2.4481398  25.5735302 116.6335333 101.9532294  42.7963018
 116.7211474 101.5123798  41.9511938 115.9155167 102.5734211  42.6696205
  69.7685146  12.4602139   8.3307236  70.4154730  11.9860446   7.8083837
  68.9449215  12.3410463   7.8577280   5.0406569  84.8265810  19.7548199
   4.2860239  84.7841163  20.3421521   4.8754996  85.5945129  19.2077971
  69.7795486  16.3811374  66.5109968  69.8456955  16.2162375  65.5704308
  68.9365101  16.8216085  66.6182327  58.4143686   4.0032479  36.0018945
  58.9607620   4.5091152  35.4004073  58.2646227   3.1733453  35.5490494
  54.2807007  17.1112120  25.7139158  54.8395729  17.1433306  24.9374747
  54.7577572  16.5547550  26.3295484  63.1568289   3.2004389  44.4129419
  63.0084658   2.4296962  44.9608278  63.2206249   3.9265996  45.0333071
  83.9828933 110.0317186  33.6916733  84.2845697 109.3416480  33.1008887
  84.5875544 110.7580971  33.5400438  22.2383421  99.0347345  29.1977525
  22.7089470  98.7579877  28.4115124  22.7075833  98.6141248  29.9182582
   7.1071881 103.2309408  46.1793327   6.2665098 103.4730859  45.7909346
   7.5540798 104.0652288  46.3224459  26.8598765  95.7067068  50.4144812
  26.8740910  94.9118395  50.9475994  26.1765259  96.2480242  50.8097506
 101.1339760  18.0780244  52.8513050 101.7343616  17.6952720  53.4910440
 100.2619934  17.8682113  53.1857586  88.5844785  36.1754459  93.5048792
  88.8322336  36.2804323  92.5862780  87.8630001  36.7918568  93.6303156
  30.2657336 109.5525272  40.7534790  29.5438689 110.1525335  40.9409189
  30.8235043 110.0326772  40.1414442  26.5083998 107.4877749  32.9555964
  27.2281473 108.1052003  32.8252840  25.8417433 107.7605436  32.3251987
  60.7275581  18.9392924  68.3260393  61.1337280  18.5068190  69.0771866
  61.4613056  19.3192017  67.8427982  35.2021855 109.2534266  54.7589159
  36.0189408 109.3566045  55.2472734  34.8156994 110.1290951  54.7508383
  71.2105179   1.7577307  63.2899618  71.1063814   1.5352365  64.2151022
  71.8933249   2.4284856  63.2803249  26.5876930 110.7629723  12.8232288
  26.9426983 111.6508600  12.8663397  25.6544798 110.8689234  13.0079353
  73.3594704  32.9088616  35.9331322  72.4331951  32.7922130  36.1444092
  73.3703089  33.6120510  35.2837920  52.2098398  18.2902086  26.8787813
  52.2179222  19.2433953  26.9659710  53.0844021  18.0717206  26.5568542
  63.3720350  19.1867840  19.8429823  63.8883781  19.0491879  20.6371427
  62.9870605  20.0559425  19.9551916  27.0794797  25.7758570   4.9746007
  27.8783655  26.1421895   4.5953768  26.9442105  26.2773347   5.7786244
 116.0288037 100.0460012  36.8622398 116.9500698  99.9184151  37.0885611
 115.6207646 100.3407700  37.6763940  69.3816137  17.8883111  20.1606011
  70.0710297  18.4869444  19.8732316  69.7120523  17.5176144  20.9789085
  41.8402594  94.2364724  33.8759232  42.1400660  93.3732326  34.1608167
  40.9382361  94.0940888  33.5890174  45.4325026  98.3362074  73.7495089
  46.0679453  97.6411779  73.5781145  45.8331984  98.8616354  74.4420338
 115.9293331  52.1778102  20.2989817 116.8463934  52.0603890  20.0511026
 115.4638566  52.2533317  19.4659984  52.6096266  95.4405136  50.0119781
  51.9081610  95.8777316  50.4946852  52.1991080  95.1608868  49.1937399
  37.9761809  76.7563243  13.2489169  37.4242037  76.1766357  13.7738121
  38.2823056  77.4200029  13.8670182  86.9820786  31.2072897  56.7814159
  87.7539539  31.6394973  56.4158630  86.4033890  31.9258952  57.0362949
  50.4960775   5.4471684  73.9906120  49.7129250   5.9884393  73.8909483
  51.0001373   5.6059718  73.1925249   6.4190930 108.8238100  65.0162649
   5.9265488 108.5990284  65.8056355   7.1951693 108.2645736  65.0508308
  11.8184250 108.7353418  59.2156792  12.0976084 108.1394378  58.5205650
  11.6704005 108.1680812  59.9723434  34.8353976 106.3141752  18.3113658
  34.5763367 106.9074989  17.6063228  35.3022927 106.8714840  18.9339805
  91.6108895 105.3488178  44.5924377  91.5382982 104.9468840  45.4581261
  91.0352398 106.1124546  44.6338892  66.3869286   6.2230211  54.2068720
  66.2209940   6.4233786  55.1280451  66.9125700   5.4233068  54.2266178
  39.2486304  96.3817174  33.6937690  39.2043799  97.3376710  33.7144327
  38.5699385  96.1239631  33.0699325  43.1142348  93.0485721  54.9046469
  42.2180479  93.3121068  54.6957636  43.4195154  93.7094135  55.5261946
 111.2752611  37.4072664  92.9663730 110.6942779  37.9276126  93.5212847
 110.7876856  37.2920733  92.1507558  88.4057331  33.2607126  10.3486645
  88.0787277  32.5770044   9.7639954  87.6169586  33.6544466  10.7215321
   8.2501637  34.5978611  95.8143052   8.2704388  34.8190158  96.7453858
   7.9117905  35.3854578  95.3883666  65.6881285  40.8823586  59.4616127
  65.3906727  41.0310364  60.3591871  65.7825565  41.7602777  59.0920591
  33.4171551  79.6472545  22.8972435  34.1089123  79.7441931  22.2427940
  32.9322117  78.8700099  22.6198387  21.6348809  85.5700130  54.9318504
  22.3059243  85.4881759  54.2541790  21.3801163  84.6681685  55.1267958
  61.0093117  30.3945541  81.7243290  60.0631857  30.4504681  81.5903378
  61.1358356  30.6347537  82.6422215  48.9991093   4.0445802  26.0396028
  49.4499445   3.7530947  26.8320775  49.6645403   3.9945754  25.3533554
  40.1636648   9.6232402  28.2040095  41.0368299   9.9501222  28.4207106
  39.8532343   9.2152292  29.0123367  51.3507860  95.3687198  33.8701415
  50.9606188  96.0692508  34.3928766  50.6046599  94.9341888  33.4569764
  37.3705125   7.8573471  34.9231648  38.2550168   8.2232201  34.9190259
  36.9608760   8.2298690  35.7039690  71.6927004  13.2484436  40.4160023
  71.7724228  13.8180637  39.6508837  71.8861055  12.3720098  40.0833082
  54.8646307  22.3290491   9.8639822  54.7782993  23.0695534  10.4643428
  54.0562534  22.3406816   9.3515182  56.2102699  41.8617678  44.3838263
  55.7656670  41.4224100  43.6588955  55.5796528  41.8344116  45.1034117
  57.9568022 107.1732939  21.0166550  58.7786310 107.1455304  20.5266953
  57.7656286 108.1064488  21.1110449  23.8129967 104.1091163   7.6959974
  24.6858376 104.3560965   7.3904246  23.7846583 104.4062353   8.6054748
  10.2678793  95.6383963  47.9685259  10.2847594  96.4228887  47.4203300
   9.9271029  95.9415502  48.8100719  76.7595816   8.6769325  59.1026545
  77.0161390   8.0724496  58.4062243  76.0816574   9.2245817  58.7067604
  27.0053356  87.5984402  28.7839007  27.2712296  88.0597372  29.5793462
  27.6218909  86.8697829  28.7121511  31.8847388 110.0791938  32.9553628
  32.7585476 109.7809156  33.2077956  31.2886780 109.4680132  33.3882642
  95.3806782  27.7074504  37.9648709  94.4956970  27.3665237  37.8352213
  95.6874275  27.9189515  37.0831680  29.5916336  82.1290107  28.2106781
  28.7530010  82.1384330  27.7493310  30.1233166  82.7812357  27.7544427
  88.1311131  17.8377306  27.7940345  87.4241066  18.2213032  27.2751474
  87.6834583  17.3169792  28.4608603  71.8672657  31.1930752  49.2000961
  72.5125980  31.4429021  49.8614311  72.2241879  30.3972387  48.8057804
  71.5354937  91.7224057  11.1264491  70.8326262  91.2917037  10.6399286
  71.5423888  91.2829323  11.9767714  68.2463884  14.7211289  73.2675219
  68.4190559  15.5263484  72.7796268  68.9328384  14.1173410  72.9838657
  70.9624624   1.8799917  28.0870962  70.8995008   2.5166348  27.3750901
  70.7849836   2.3878019  28.8788438   9.2543429  85.1617021  43.0037832
   8.4822577  84.7880812  42.5789022   9.0371626  85.1640029  43.9360142
 108.1374836  20.6402779   8.3690459 107.7761364  19.7545934   8.3341080
 108.9405823  20.5919337   7.8504598  17.7337616  97.2618110  12.1561801
  17.0954960  96.5490289  12.1281028  17.5410908  97.7238448  12.9720438
  62.5177908  44.1748905  26.9638181  62.4516773  44.0622282  26.0155749
  61.7133331  44.6329498  27.2072577  64.8864412  24.6020150  33.7420464
  65.3737307  23.9469624  34.2417336  63.9961624  24.5556021  34.0905881
  77.4529314  21.9985151  66.7053413  78.2460022  21.5065694  66.9180822
  77.5027609  22.1357799  65.7593441  18.6658495  80.0238867  43.9249516
  19.0499180  79.6626539  44.7238445  18.8643854  79.3755145  43.2493544
  78.6524487   4.3197283   9.8201060  78.1854153   3.4985042   9.6661502
  79.3512917   4.3240839   9.1660208  13.1112211 110.2085350  37.3005581
  12.7373331 109.3648718  37.5548673  12.9085701 110.2891457  36.3685369
  77.9725647  18.6062562  27.7728033  77.5734329  19.4578314  27.5946283
  77.5413799  18.0073857  27.1631575   3.2874506 107.7612255  30.8299088
   3.0647152 107.1587915  30.1201940   2.4494856 108.1419874  31.0927176
  71.2785053  40.6567001  29.6120811  71.4913797  40.1792431  30.4139209
  70.9932232  41.5186691  29.9151611  95.7277966   0.4039263  14.1043162
  96.0107708  -0.4749926  13.8520122  94.9369812   0.5584763  13.5876405
  86.7103195  25.3531313  55.9597731  86.9697475  24.6787310  55.3319836
  86.7861462  24.9273443  56.8136978  53.1584644   6.2953532  25.0733638
  52.6107216   5.5458021  25.3065681  53.9887619   6.1338693  25.5214238
  41.0545080  97.3210902  70.0968409  41.5360277  97.0991976  69.2998886
  41.1168307  98.2743783  70.1567459  13.9162415  97.8399832  37.1159458
  13.9672249  98.2202883  37.9928732  12.9780548  97.7675719  36.9404602
   4.8659741  41.4220207  88.6159178   5.4361760  40.6538695  88.6483493
   5.1959740  41.9342666  87.8777191  65.7906008  17.3390937  48.0312634
  66.0386515  17.7171683  47.1876049  65.8228731  18.0751407  48.6423492
  40.1002520 105.0438453  55.0210524  39.8627203 105.3377355  54.1416025
  40.9884375 104.6996404  54.9268246  73.4011078  21.5148997   2.4864447
  73.3410072  21.8171024   1.5801933  74.1350269  22.0067668   2.8547701
  86.6304111  20.0018787  52.7493238  87.1605015  20.2874184  52.0052147
  86.3568497  20.8146930  53.1744528  73.4965515   3.1050286  48.7300825
  73.8762856   3.8131434  48.2098818  74.0610552   2.3515728  48.5572386
  72.5410080  12.0404530  49.7231483  73.1135511  11.2736368  49.7026300
  72.9615450  12.6691198  49.1365004  65.6099272  38.1881571  40.5840492
  65.6194162  37.7822042  39.7172475  66.3277340  38.8209367  40.5600405
  90.8059311   3.1060302   4.8244652  91.0093403   3.9880416   4.5131543
  90.2197266   3.2438985   5.5684954  13.1045949  38.1410050  34.5603848
  12.7454686  38.9943957  34.8032498  12.7908814  37.5464249  35.2417731
   3.0273217 107.4548612  52.2075129   3.2485503 106.7861937  52.8557253
   3.3110541 107.0823104  51.3726902  48.0696058   1.2284528   3.7270933
  49.0042400   1.4315435   3.6891147  47.9447460   0.8357596   4.5910579
  97.2297001  19.1328537  40.9948254  96.4010525  19.5419347  41.2443018
  97.1085548  18.2047617  41.1953259  53.7837601  21.2565947  59.9596357
  54.6508789  21.3049340  59.5571470  53.7425280  22.0224237  60.5323839
  77.3676252  40.8212233  45.6252384  78.1767321  41.3008118  45.4475498
  76.7415285  41.1629725  44.9869204  60.5658579  29.9422550   9.4122821
  60.5266619  29.6294641   8.5084808  61.3892317  29.5913815   9.7516668
  78.9829493  16.4544177  61.7475653  79.5256376  15.8812988  62.2890949
  78.4344482  15.8559036  61.2404537  87.7701473  25.3502059  36.1728835
  87.6184082  24.7727776  36.9210720  88.4367371  24.8999000  35.6541228
  74.5380688   0.5247627  35.5929685  74.9638939   0.5803242  36.4484334
  75.0249529  -0.1548150  35.1267576  91.4663887   6.3085669  12.7614820
  91.6152000   7.1345359  13.2217681  92.2552013   6.1828113  12.2340465
  64.9361372  45.2788639  44.0909576  64.6971941  46.1321163  43.7288857
  65.4602766  44.8657703  43.4047604  56.8808174  17.0136130  51.9845915
  57.3210764  16.1670554  51.9088030  56.9942904  17.2612894  52.9022026
  58.3053350  18.5756755  46.7618322  58.1269693  18.1585467  45.9189653
  57.5170755  19.0857124  46.9482279  87.6621819  11.5436268  61.5623951
  86.7457485  11.4061332  61.8021345  88.1228161  11.6005123  62.3995447
  86.3308525   3.7232554  39.3067551  86.4273071   2.9824311  39.9051762
  87.1423340   4.2206126  39.4085598  53.7364531  33.8681698  43.0724621
  52.9453516  33.6550856  42.5775051  54.4560289  33.6359763  42.4854994
 113.6559612  57.1533963  96.1335324 114.4958002  56.7635370  95.8908085
 113.7529070  57.3734624  97.0600335  87.0933897  97.5230497  84.3648675
  87.2358972  97.0567458  83.5411659  86.8655617  96.8369144  84.9922040
  65.9240246  34.7827268  43.5898018  65.4835320  35.5746412  43.8981390
  66.2967157  35.0300312  42.7435350  40.6895256  11.2677288  16.8039250
  41.4368057  10.7331181  17.0722437  40.9158993  12.1541977  17.0852792
  92.0966339  30.8578634  38.4488487  91.2631989  31.2233090  38.7456083
  91.9630814  29.9102235  38.4682059  80.7894516  35.6069851  24.2585444
  81.4682293  35.3392243  24.8780632  80.7805157  34.9136877  23.5986257
  51.7827463  13.5264778  33.3766985  52.6853085  13.7889469  33.5575867
  51.3151312  14.3513346  33.2456279  63.3207369  19.0843892  41.2466383
  62.5789642  19.6750808  41.3773584  63.8884783  19.5458174  40.6294012
 101.9184399  50.8836603  32.5876546 102.8086567  51.2225342  32.6820540
 101.5224552  51.0070610  33.4503245  38.1252909  36.6864371  16.1373246
  37.6759028  37.5090909  16.3310313  38.2162213  36.2571192  16.9880009
  30.3243089   1.9813368  36.8345714  30.2335858   1.7903285  37.7681231
  30.5598950   1.1416306  36.4400792  75.0600052  18.9445245  33.1975913
  75.1973343  19.6363962  32.5505328  75.8236504  18.3748877  33.1048870
  49.5701313   6.7942977  19.4607902  50.0891685   7.5281537  19.7898650
  50.1857376   6.0621482  19.4258785  68.6024141   9.7626233   8.7362748
  68.9923763   8.8884860   8.7292755  68.6961937  10.0739372   7.8359848
  37.4727570  65.0031590  84.5917550  37.1790921  65.7435232  84.0608564
  37.5175797  64.2706263  83.9772478   9.3891066  79.2609973  23.4619427
   9.2646378  79.4577856  24.3903899   8.5459679  79.4670005  23.0583191
  51.9494772  15.7858586  28.8757062  52.8202581  15.4486513  28.6653185
  51.9954777  16.7177892  28.6621165  71.6744184   7.3334682  31.4393497
  72.1316099   7.5306940  32.2568536  70.8003521   7.0567960  31.7144799
   0.8533257  93.1882412  32.7971148   0.0731319  93.5540326  32.3803115
   1.0147923  92.3702164  32.3270130 116.4294941  47.8577446  88.8873258
 116.0134298  48.2573890  88.1235143 117.2878916  47.5750285  88.5719684
  76.3159847   7.7275133  51.7342091  75.9743643   7.7314419  52.6283598
  77.1553564   8.1833696  51.7964983 105.1480675   9.2026687  29.3704319
 105.2959824   8.6315793  28.6166334 105.9867477   9.6440405  29.5047498
  70.3949881  34.2353725  30.6385970  70.4935598  35.1407528  30.3439713
  70.8714628  34.2001867  31.4680338  27.8767508  73.5748978  67.4222088
  28.3971089  73.2815761  68.1701565  27.1386832  72.9662294  67.3904753
  66.3539600  10.0530779  37.3953605  66.2801075   9.3261456  38.0137014
  66.3906717  10.8342421  37.9473281  71.5240097  34.8962164  37.5846934
  71.0219240  35.1038909  38.3727384  71.1167049  34.0997410  37.2441602
  70.8693933  10.7660413  33.2254767  71.7854452  10.5287528  33.0813384
  70.3946829  10.3291035  32.5183964  21.7063826 105.7503230  27.8684092
  22.3777741 106.4179475  28.0089092  21.6414517 105.6725324  26.9165874
  75.8679438  10.6825089  33.7104797  76.6454744  10.6569767  33.1527853
  76.1883640  11.0029078  34.5536304  59.8115921  15.5817473  46.3118744
  59.1802549  16.1905897  46.6952229  59.9279690  14.9056089  46.9793510
  62.3603296  19.5406401  53.3923721  62.7480936  18.8066411  52.9158020
  62.3444462  20.2568102  52.7574825  66.4353466  58.3897591  18.4697378
  66.8777752  58.5526943  19.3027675  65.7673979  57.7362442  18.6770988
  65.5814981  22.2448874  30.2763844  65.2970362  23.0178237  29.7886539
  64.8477411  21.6341829  30.2065778  89.0041065  73.4902859  21.4857054
  88.6974716  72.5892591  21.3839364  89.7681522  73.5494900  20.9121490
  95.7090473  32.0227313  56.7261362  94.7764587  32.1264482  56.5370607
  95.7648563  32.0551419  57.6811600  82.1594715  36.3667917  45.1468754
  82.5699425  36.0878801  45.9653854  81.7228794  37.1899009  45.3662062
   0.3028922  17.1103537  17.2223771   0.1622729  16.1707699  17.1055877
   0.7932620  17.3775947  16.4449751 109.4577122   4.4742942  26.2932944
 108.7624645   4.9590158  25.8484244 109.4010735   4.7576085  27.2058487
  59.5754910  25.2369905  22.2267842  59.1473293  25.9462380  21.7473245
  59.6376991  24.5226479  21.5926909  85.5289650  36.9748330  40.3374577
  86.4569855  36.7612267  40.4343653  85.2225399  37.1227455  41.2321377
  27.8773093  34.3302655  39.3929195  28.3576465  34.2791820  40.2192974
  28.1320500  35.1740384  39.0195775  69.8768234  28.7407446  49.9957848
  70.3918362  27.9700446  50.2345753  70.5039358  29.3254089  49.5701933
  57.7186728  18.1763649  39.0404510  57.1525621  17.6731431  38.4551978
  57.4066877  19.0776241  38.9590240 101.1760122  96.1278432  94.4177922
 100.5339891  96.7125076  94.0150505 101.7281706  95.8410018  93.6904162
  79.2813158  35.4404640  47.8348780  79.2125368  34.7107172  47.2192717
  78.3944941  35.7974529  47.8831959 111.2387813  86.1451979  24.1217589
 111.3831771  85.2307505  23.8785172 111.7884696  86.2772412  24.8941827
  85.2361900  51.0780589   1.1575291  84.7951109  51.2834738   0.3332207
  86.1657411  51.2100952   0.9711716  54.6769571  24.4871926  11.5908444
  55.2755070  25.2030706  11.8041301  54.2583370  24.2688727  12.4235070
  94.0064335  29.2534304  35.4100776  93.8386631  28.8142037  34.5763135
  94.9607563  29.2775416  35.4803109 109.8873043  16.7591524  21.6236806
 110.5613327  17.2899806  21.1992502 109.0791321  16.9853997  21.1633635
  90.8700848  50.4574156  49.7584343  90.2981567  50.9994841  50.3018379
  90.2758503  50.0154495  49.1519880  13.4564989  91.1001964  24.5554757
  13.7700527  91.7535205  23.9301085  13.8291853  91.3729567  25.3938913
  68.0030060  21.0713601  34.0553355  67.7790117  20.1803803  34.3240619
  68.7988091  20.9710550  33.5329628  83.1174660  27.8318357  18.3962536
  83.2594204  27.9709077  17.4599099  83.5119534  26.9780350  18.5740983
  39.9099588  42.1465635  10.0187731  40.0905371  42.7157259   9.2706561
  40.4509735  42.5001574  10.7248235  67.4002123  17.8095841  22.4013495
  68.0610895  18.3366096  22.8504801  67.6497364  17.8484976  21.4780664
  69.6303749  14.3105006  56.9707489  69.3642950  14.2095637  57.8846693
  69.2119217  15.1235867  56.6878700  79.7340965  14.1051304  34.8563361
  80.2819347  13.8886034  34.1018701  78.8377619  13.9749086  34.5467234
  91.9001484  45.6153584  33.9698529  91.5236378  45.3279543  33.1380630
  91.7864799  46.5657854  33.9685321  53.6121893  39.3247890   6.7529559
  54.4817162  39.5465422   6.4198184  53.0125189  39.8573136   6.2304175
  57.9030037  17.0905018  41.6140318  57.7945471  17.7325046  40.9123898
  58.1025743  16.2715042  41.1605453  67.0877981  13.1159389  13.9192832
  67.4662781  13.9510489  13.6443722  67.6459837  12.8259456  14.6407819
 112.8090269  99.6193927  90.5784115 111.9573147  99.7005742  91.0076317
 113.3811123 100.2106565  91.0676476 118.0482877  82.3051782  30.7646751
 117.4801029  81.7784185  30.2026033 118.9360059  82.0792408  30.4869294
  38.9709442 108.0061851  49.8862314  38.9809006 107.0492257  49.8672247
  38.2868355 108.2260795  50.5185890  80.6060314  20.1445556  33.7216854
  80.1381397  19.3341994  33.9232612  81.4062500  20.0955153  34.2446351
 105.8373893  96.7053087  33.2369018 105.6982959  95.9580810  32.6550627
 105.0775970  97.2684808  33.0893111  97.8966045  49.7189283  35.0243306
  98.6961079  50.2157211  34.8505020  97.2096920  50.2022982  34.5652747
  24.1074579  92.7545125  49.5997286  23.3886593  92.1749074  49.8519611
  24.2453068  93.3122761  50.3653193  42.6889753  30.1959467  43.9469767
  41.9914341  29.6916246  44.3656969  42.4043179  30.2894640  43.0378819
  26.5422171 108.4482111  38.3014894  27.0720356 108.7832965  37.5781345
  25.9664362 107.7997239  37.8962994 104.6318817  20.1286411  24.2907619
 104.7844696  19.3405962  23.7692881 104.6140003  20.8398581  23.6503863
 107.5280285  15.9754717  10.5281568 107.7319145  16.4797080  11.3158166
 107.9684830  15.1359940  10.6604886  47.6322699  10.3664351  44.6313524
  47.0297241   9.8820484  45.1957464  47.3771667  10.1208746  43.7420511
  92.2129345  41.8172836  45.7993317  91.3476086  42.0173168  45.4423428
  92.2075367  42.2075844  46.6733265 108.3839447  78.0091375  57.6630142
 107.6769525  78.6226409  57.4629977 107.9749424  77.1455877  57.6061657
  69.1848230  14.2631698  37.1798015  70.0707102  14.6141708  37.2705436
  69.2273617  13.7029970  36.4047980  99.5196993  82.8097265  95.1981538
  99.9735100  83.5492891  95.6022982  99.3810398  83.0807322  94.2906511
  57.5105685  87.2172589  50.9606504  57.3592108  87.6358027  50.1132154
  56.7564886  86.6400618  51.0807943  68.0009460   3.0934289   0.5346832
  68.0991745   3.6392260  -0.2455018  68.6278486   2.3810673   0.4091159
  30.2996224  88.9901824  32.2889471  31.2387007  88.9103932  32.4562812
  29.9615877  89.4703121  33.0448818  46.3390541   4.4401205  34.5462871
  45.6583071   5.1053923  34.4451690  46.1407948   4.0198290  35.3831148
  43.7146902  35.0384521  45.9682941  44.6645021  35.0147820  46.0846233
  43.5896921  35.0444579  45.0193119  86.1603165  -0.0508542  34.0882087
  86.2586689   0.4101868  34.9212742  87.0523643  -0.1261692  33.7493753
  98.3609104  49.7362185  50.0671148  99.0322399  49.5608139  49.4077396
  98.7609768  50.3809500  50.6506348  27.1192377 102.1956540  26.9379997
  27.4050778 103.0699940  26.6733170  27.7965039 101.8955411  27.5441957
  56.2429350  98.3672340  37.8176522  55.3042525  98.1815083  37.7927184
  56.3117808  99.2876847  37.5641537  93.1749535   0.9426895  22.6868939
  92.8272057   1.8311864  22.7635646  92.9442120   0.6710065  21.7985368
  69.2043417 107.5902985  48.4763861  69.7730845 108.2458053  48.8802099
  69.0251368 107.9349692  47.6015615  98.9938831  48.6825705  43.4614229
  99.5967388  49.3257999  43.0885315  99.5325279  48.1715202  44.0655136
  72.0980549  27.6768589  41.1954880  71.8772411  27.0612860  40.4965305
  71.3518047  27.6377869  41.7936611  66.6351128  23.7368870  27.2809696
  66.5963411  22.9796362  26.6967630  67.5663853  23.9520264  27.3327327
  67.8999519  26.3917184  40.7019901  67.4643230  25.5394197  40.6952190
  67.4518967  26.8951201  40.0222349  34.7086048  52.5803947  36.8378663
  34.4412994  51.8285275  37.3665214  35.5563021  52.8384638  37.1998572
  21.1285435  95.9882777  95.8806992  21.5504777  96.7332881  95.4527254
  20.2019059  96.2256330  95.9160203  46.2673235  51.9267559  51.0202551
  45.3787756  52.2781849  50.9635782  46.8097448  52.5729179  50.5680609
  61.3834620   8.5360932  38.2785988  60.6281757   7.9698467  38.4371400
  61.8958998   8.4833384  39.0853548  23.0967062 105.7637132  25.1179528
  23.5091131 105.0993748  24.5658612  23.5812825 105.7243998  25.9424949
   1.9359736   7.5977606  68.1695461   1.3533835   7.5995153  67.4100590
   2.7741961   7.2867054  67.8277063  89.7501087  24.8198819  78.6119938
  90.2035618  24.7551918  77.7715015  89.9203014  23.9813638  79.0411234
  41.5688801  30.1400685  13.7196243  41.6222191  29.2953944  14.1667390
  42.1995592  30.6945038  14.1790545  74.4026089  19.5502925  25.9846830
  75.0681925  19.3998623  25.3134131  73.8461924  20.2386427  25.6202579
  67.6691914  40.0610638  47.8005552  66.9680643  39.4800305  48.0956030
  68.1253147  39.5613885  47.1234179 101.9603920  31.6831183  69.7146130
 101.4891529  30.8693862  69.8934984 102.8130436  31.5629816  70.1326847
  96.8585777  31.9779587  34.1763711  96.4210987  31.3924050  34.7944140
  96.1437893  32.4222374  33.7203884  88.8247013  19.2361450  62.0086575
  88.7718773  18.3923340  62.4574614  87.9643631  19.3463612  61.6037941
 106.2573034  79.7896641  84.2324164 106.4518911  79.5058196  83.3392206
 107.0189840  80.3090232  84.4899824  24.8877018 102.3692150  38.4186125
  24.3679493 102.6252676  37.6566887  25.7932204 102.3909796  38.1091142
  77.3546696  42.6474142  27.2596002  77.9902649  43.3542013  27.3723197
  77.8424358  41.8509674  27.4693203 101.4241982  23.8429904  14.5983028
 102.1309853  24.2478347  15.1010907 100.6680298  23.8686490  15.1846290
  36.5629071  87.8958816  33.5524869  36.0788363  87.2015161  33.9994335
  36.6641873  87.5779648  32.6553226 114.9395752  40.2030993  53.7581491
 114.0500832  39.9737740  54.0273285 114.8474789  40.4957676  52.8514576
  72.2750950  87.4050140   8.4298313  72.9993629  87.7548504   8.9487547
  71.8573952  88.1779480   8.0499274  81.0972977  25.2096796  28.9757371
  80.9349632  24.8140407  28.1193781  81.7114544  24.6125412  29.4029093
  56.9362831  22.8610873  42.2071218  57.3776197  23.6191559  41.8239975
  56.2291002  23.2357645  42.7322292  83.3506680  11.6726303  45.3503942
  82.6967049  12.1769357  44.8664141  82.8509617  11.2256825  46.0335922
 100.0151730  16.2506795  23.5473228 100.6132698  16.8381548  24.0092564
 100.5366135  15.4673302  23.3721161 104.2675400  29.0461922  17.6791823
 104.9681377  28.6439633  17.1657491 103.6343384  28.3411360  17.8140426
 108.3116245  19.8764157  24.3713260 109.0261078  20.1328468  23.7882352
 108.3347130  20.5227089  25.0770211  82.8978634  13.3395207  25.7186937
  82.3036003  13.9839280  26.1031723  83.1653786  13.7275267  24.8855543
  22.5748461  89.6275182  23.2148218  22.7134770  88.9622612  22.5406957
  22.9413527  90.4283805  22.8399515  55.6571388   4.1225770   9.2815733
  56.2243414   3.7327021   9.9467897  56.2594748   4.5591465   8.6792171
  34.6587420  33.6634779  40.3831053  35.0599241  34.5282388  40.2966690
  34.5651388  33.5361505  41.3271666  13.6478394 104.7595395  19.5792127
  13.8469380 104.1992987  20.3293610  14.3391722 105.4215557  19.5845234
  83.1247520  16.2603474  43.2384634  83.3620167  15.5664825  43.8536739
  82.1711540  16.3177562  43.2983255  40.3002899 106.0282136  23.8758278
  40.2306193 105.2359713  23.3431625  39.9366301 105.7784374  24.7252941
  59.4513434  96.3275666  53.1113768  59.9273127  97.0834799  52.7674580
  60.0991553  95.8536537  53.6328983  35.5407047  11.1716115  46.9684267
  34.8490477  10.7154083  46.4891338  35.1653337  12.0279622  47.1733475
  64.2383051  49.2755127   6.0797727  65.0328302  49.4885635   5.5903131
  64.0785074  50.0463438   6.6243041  28.6360138  97.4815948   9.7074533
  29.5906513  97.4648685   9.7753882  28.4437149  96.9842822   8.9125103
  88.0597717  14.2733567  88.4884873  87.2442085  14.1618007  87.9999742
  88.4738762  15.0396007  88.0914780  67.8365469  33.7822127  45.4066038
  67.3351717  32.9879856  45.5911398  67.2540951  34.3121123  44.8623753
  51.4772844   9.0258008  14.3221474  51.9854164   8.5221869  14.9580753
  51.3937330   9.8941690  14.7160864  41.6238546  33.3687997  49.6803474
  40.9181547  34.0145946  49.6461582  41.5578604  32.9880452  50.5560780
  38.7166691  10.6371701  54.6512032  38.4202409   9.8208398  54.2487526
  38.0207348  11.2655735  54.4588089  80.3049660  29.4408607  35.1570678
  80.3873634  30.1628208  34.5339966  80.5853081  28.6680984  34.6666789
  55.8758467 107.9475088  24.0111446  54.9262255 107.9926072  23.8997102
  56.0124415 108.0635170  24.9514174  19.1728562 101.4060480  10.8329546
  19.9654358 101.6446311  10.3521967  18.6847370 102.2256501  10.9118545
  67.6285076  39.8935509  57.3528194  68.4557343  40.1622152  56.9531345
  67.6201630  40.3318167  58.2037497   4.6050488  93.9759558  96.1064136
   4.4241559  94.6324413  96.7791224   5.5478608  94.0418666  95.9548149
  94.4378853  19.2503047  83.9261723  94.1409016  19.5397413  83.0634689
  93.7607765  19.5585752  84.5284367  83.8768578  13.2255673  35.6170726
  83.2155895  12.8550899  35.0325179  84.0439129  14.1002321  35.2659512
  79.0888929  41.1894608  20.2555037  79.1515970  41.2492180  19.3022311
  78.5427523  41.9343281  20.5067706  14.6994894  90.4869790  30.7286882
  15.2075213  89.6887035  30.8732224  14.8456305  91.0099120  31.5169859
  50.3251123  13.4587204  18.7571096  51.2814331  13.4177315  18.7547505
  50.1242971  14.3502986  19.0417027  75.9829617  23.6151958  41.4087629
  75.4709721  23.9594388  42.1406031  75.5541134  22.7895212  41.1838579
  52.9282587 101.1479218  53.3583593  53.5129374 101.8263496  53.6961651
  52.2923105 101.6239692  52.8243303   4.3925064 110.6727482  49.6890068
   4.6002024 111.5883376  49.8755264   4.6364277 110.2043806  50.4873562
  18.2697409 109.1722895   1.9937184  17.8543871 109.4772842   1.1870637
  18.9737004 109.8009808   2.1531639  73.5696030  34.6820068  50.5191517
  73.2235718  34.8344612  51.3984966  73.0476189  35.2517819  49.9542427
  73.4668779  26.4093852  28.9781356  74.3722343  26.3435650  28.6744523
  73.3252382  25.6093478  29.4842100  30.1289719 109.2032224  55.5392551
  30.8903569 108.9539857  56.0630941  29.3844288 108.8157682  55.9994316
 108.0246639  31.3819647  26.7715549 107.8328896  32.2546172  26.4281392
 107.2145081  31.1111903  27.2034812  87.6444149  64.7626448  40.6136560
  86.9302368  64.2718410  40.2070808  87.4545670  65.6776571  40.4064512
  82.9451370  56.0067987  12.5298393  83.6167049  55.7736826  11.8888390
  83.2495689  56.8326092  12.9061234  89.3145752  17.9540062  67.2258615
  89.0760231  17.1741188  67.7269650  89.1451263  18.6831236  67.8224421
 100.7279491  49.9507570  57.5709581 100.7819366  48.9959478  57.6116133
 100.7038307  50.1496506  56.6349602 108.1736469  45.3939867  25.9153199
 108.0917358  44.4416857  25.9667253 108.8696480  45.5402899  25.2746844
  75.2215624  37.8184462  18.0305886  75.1471281  38.7670922  18.1343317
  75.9183502  37.5652337  18.6360645  76.5093899  32.9137087  57.2017241
  75.9550667  33.6455393  57.4726152  75.8925629  32.2274637  56.9471264
  68.4248734  56.0043335  25.8364367  69.2223597  56.0567856  25.3096557
  68.4839916  56.7487478  26.4352584  55.9332323  26.5862703   8.5894120
  56.3920736  25.8254480   8.9455676  56.6275263  27.2169065   8.3984017
  99.9885082  35.7792759  34.4528461 100.6257725  35.6843877  35.1607513
  99.8628902  34.8895955  34.1228175  74.6559191  49.2877722  23.9860559
  73.7283993  49.1807175  24.1969490  74.8461962  50.2012587  24.1995144
 112.3264885  26.2134314  60.0479031 112.1245289  26.3774061  60.9690714
 112.9999447  25.5335069  60.0677061  37.5620627  47.3397446   8.1439841
  37.3116589  46.7660141   7.4198568  37.9966164  48.0813360   7.7227497
 115.0255203  33.9127445  24.9971557 115.1919842  34.6904492  24.4645238
 114.9276543  34.2490077  25.8879852  96.8631744  28.1854010  41.6768169
  96.8642139  27.6737738  42.4858093  96.2887096  28.9278865  41.8637323
 106.9535446  17.9784536   8.6111510 107.2439671  17.3053932   9.2266792
 107.0704365  17.5805593   7.7484524  46.7368221  24.3383622  16.1444831
  47.0819044  24.8369908  16.8851030  47.3342848  24.5362687  15.4233050
  79.7157478  48.8206339  55.1582479  80.5684280  48.4627914  54.9110174
  79.9183321  49.4988012  55.8026695 108.2724476  29.0951514  58.2681036
 108.4805965  28.2830977  57.8060722 107.3823357  29.3086052  57.9881334
  19.2377251  99.7552283  43.1409359  19.7398966  99.6366115  42.3347187
  19.6728533  99.1902585  43.7794542   7.6195388  22.8364372  25.3672099
   7.0654826  22.5841594  26.1058569   8.3703761  23.2733035  25.7692432
  64.0528393  26.4411354  18.8975751  63.4144497  27.1293354  19.0848458
  64.7380018  26.5648270  19.5544505  66.4246750  27.1563864  90.7030392
  66.2294054  27.8965092  90.1283073  66.3873005  27.5228286  91.5865326
  87.4648857  10.3215730  30.2663422  86.7854023  10.5697024  29.6394730
  88.1923485  10.9145892  30.0782776  86.0341740  27.6705647  10.3781188
  86.9822598  27.6493692  10.5081296  85.7932472  28.5858846  10.5208766
  56.4143562  23.9843178  45.8375931  55.8552265  23.8433075  45.0735760
  57.2538519  23.5933638  45.5954504  79.9697733  35.2886176  52.3289490
  80.8166981  34.8680305  52.4774790  79.4339705  34.6098542  51.9185448
  73.8424301  86.3630009  53.5210562  73.4313488  86.8794632  52.8278685
  74.1957140  87.0140362  54.1273403   3.9889865  12.5950921  49.4663191
   3.2671599  12.7341115  50.0793982   3.5705237  12.5678158  48.6058664
  79.7923326  23.8553429  59.9381065  79.3239880  23.2986116  60.5601454
  79.2110062  24.6034074  59.8013783  95.7106400   9.3238991  39.1747665
  96.2397957   8.9881468  38.4512281  95.1137352   8.6066210  39.3879318
   3.3237891  66.4360666  39.2562413   2.6313262  67.0855951  39.1344237
   3.8599257  66.7879534  39.9668503  27.1288811  57.4278025  95.9304684
  26.3245617  57.4698345  96.4477064  27.8148305  57.2347943  96.5695762
  42.8091097  20.6803012   9.3142915  43.3947182  21.2101102   8.7733638
  43.0148125  19.7764635   9.0755546  63.1168032  65.8432245  15.1642597
  63.3675766  65.3010654  15.9121931  63.5465193  66.6837072  15.3228998
  79.5634460  12.5519168  43.0063868  79.1011524  13.3257687  42.6844168
  79.6024752  11.9648373  42.2513723  57.4229813  33.2664466  34.6091366
  58.1416035  33.7752032  34.2336607  56.8002605  33.1642437  33.8894129
  54.2033148  38.5846424  36.2259746  54.9707031  38.0320835  36.0775590
  53.4847212  38.1154251  35.8020806  95.0628471  28.9405370  69.9835491
  95.1061249  29.8916149  69.8844910  94.8925209  28.6151695  69.0996075
  75.5146980  22.9030895   3.5444975  76.0443926  22.4138236   4.1739985
  75.9288931  22.7318811   2.6987070  97.0542526  47.5468349  18.0022955
  97.8639793  47.0693684  18.1828523  96.3574123  46.9318247  18.2312334
  55.5984497  35.1341581   1.1195482  55.2600002  34.8364091   0.2751388
  56.5167570  34.8640680   1.1182183  76.9554472  20.0189686  63.0882931
  76.6390610  20.6127167  62.4074173  76.3742065  19.2604184  63.0336189
  33.7297171 108.9705978  11.9574773  33.2174938 109.7715555  12.0684958
  33.7255591 108.8125602  11.0134232  69.6860426 105.7473673   4.6932822
  69.3750399 106.6466622   4.7970840  70.0123614 105.5052502   5.5599570
  45.7292938  16.6660106  43.8483143  44.7802830  16.6931009  43.9702892
  45.8711815  17.0565200  42.9859877  97.2631836  64.6910095  21.7528963
  96.6100788  65.3637123  21.5601468  97.4960613  64.8389196  22.6694798
  60.0358313  99.1789968  40.0826788  60.6632536  99.0684957  40.7970762
  59.6305960  98.3173973  39.9843955  65.4943895  36.6861510  56.6832733
  65.4979086  35.9596515  57.3065042  66.4094067  36.7784429  56.4178324
  94.2923927  12.9377329  50.9369278  93.8209820  12.6197267  50.1669455
  95.1050854  12.4320841  50.9459496 101.6970730   6.1940014  66.2643480
 100.9316921   6.4463389  65.7478762 101.7812824   5.2510816  66.1227703
  72.9599857   3.8937646  51.3833857  72.8104162   2.9805517  51.6281414
  73.0610514   3.8732129  50.4317617  60.0805521  44.6450090  11.0923696
  60.4085350  45.0862741  11.8759131  60.5592299  43.8165140  11.0659862
  29.7065960  60.5554977  95.1426476  28.9756905  60.5126804  95.7592223
  30.4203736  60.9493148  95.6443069  76.5737867  44.3561840  18.5991895
  75.9057283  44.6402645  17.9753101  76.5060663  44.9790859  19.3228197
  94.8956490  46.1925888  45.4700613  95.3818798  47.0102072  45.3636980
  95.3489971  45.7346630  46.1778831  36.1706274 107.8273134  41.3730335
  36.9856327 107.8674359  41.8734217  35.5695742 108.4013898  41.8478012
  28.7466656  89.1517943  77.9176155  28.1094395  88.4522741  77.7732411
  29.4453656  88.7383907  78.4247115  30.7675474 109.7640164  18.2079244
  29.8837727 110.0029440  17.9284799  31.0088413 109.0324635  17.6397347
  45.3770750 106.6035039  23.6378980  44.6716612 107.1047537  23.2287836
  44.9884623 106.2535967  24.4396329  54.1342562 110.6653237  45.2124166
  54.9934500 110.8721319  44.8446417  54.1437643 111.0643898  46.0824060
  83.3710384  32.4245596  15.7381666  82.8698635  31.9422460  15.0805736
  83.0129242  32.1302009  16.5756285  87.6427555  57.7312803  59.7873163
  87.8307056  58.6670256  59.7145653  88.0730724  57.4629641  60.5991411
  92.3357487  42.1489954   6.1306232  91.7963696  42.4842167   6.8468064
  92.1465397  42.7317619   5.3952253  96.5016365  22.9937243  15.7422948
  95.7367706  22.5225377  15.4118502  96.1964607  23.4105134  16.5481412
  95.0113487  13.8754690  28.1574702  94.6583462  12.9862356  28.1276774
  95.9580612  13.7549937  28.2312083  56.4926577  44.6345425  43.9589834
  56.5825891  43.6815786  43.9584017  56.0010576  44.8292160  43.1610680
  67.0297050  10.9729886  43.9348459  66.4046097  11.1532736  43.2327223
  66.6611624  11.4110792  44.7019768  98.4173965  52.5855732  57.8012896
  98.7017536  52.9209518  56.9510603  99.2231369  52.5173378  58.3134985
 110.4006290   8.5764897  42.6202250 109.8602486   8.3524346  41.8625832
 110.1321602   7.9559642  43.2978010 105.6295967  56.2309980  12.8982604
 105.8070469  56.0177326  11.9821489 106.4102173  56.7018366  13.1901133
  16.1955010  63.5119372  91.9354212  15.6924569  63.9103954  92.6456389
  16.2377678  64.1906458  91.2617746   3.3097796  29.3048310  52.1577978
   3.2685904  29.6463180  51.2645340   2.9352526  30.0008035  52.6977825
  39.9929309  18.6691809  51.4343500  40.8502150  19.0854025  51.3445711
  39.3987536  19.3883991  51.6486168 101.6805649  39.2029428  44.3064833
 102.3033810  39.2361188  43.5803699 101.6178322  38.2733536  44.5259380
   7.9513984  51.4086008  22.7273798   8.2342009  51.1089468  21.8633986
   7.1402221  50.9284496  22.8937483  86.5868378   8.6078942  48.7278032
  85.8461475   9.1955942  48.5787725  87.3082924   9.0029061  48.2382059
  53.1144857  12.7841294  40.2169657  52.5857019  12.6858020  39.4251657
  52.9926968  13.6979938  40.4743576 105.0502968  26.4174223  31.4492035
 105.5897903  26.9779539  32.0068526 104.1753101  26.8025136  31.4975119
  68.3519411  13.7244153  66.8804216  68.4746790  14.4070840  67.5400639
  69.1937876  13.6747980  66.4275789  45.5486679  84.4757271   9.3533713
  44.8800039  83.8989449   9.7227526  46.3510084  83.9540005   9.3704736
 113.5530758  14.0682840  73.0506849 113.9441776  13.7729931  72.2284460
 113.5116768  13.2804501  73.5927534  57.5654828  84.8470896  92.5374311
  56.7854630  85.3717726  92.3571101  57.7079426  84.9454706  93.4788439
  77.2022533  14.5866954  47.2089767  77.0759964  15.5354905  47.2000504
  77.3631334  14.3751228  48.1285381 105.1356792  35.3164887  46.3278913
 104.5533943  34.5724344  46.4813805 105.7768536  35.2691269  47.0370340
  82.3260975  60.7996416  33.1182146  82.3592663  60.4291344  32.2362542
  83.2437134  60.9255934  33.3597636   4.3556647  24.7741628  57.9841232
   4.9357848  24.7117782  57.2253084   4.8245482  25.3391409  58.5982704
  87.0924664  28.6875224  61.7743826  87.0767403  28.5672188  60.8249044
  87.6628017  29.4440985  61.9105339 100.8625507  21.1137176  32.5196028
 100.0377083  21.2758636  32.0618010 100.7364178  21.5022492  33.3852601
  92.1352005  28.9571977  25.7164574  91.8177700  29.5411992  25.0276828
  92.9441738  29.3664861  26.0235143  92.4420357  18.0712891   8.6079454
  93.3506012  17.8322673   8.4246391  92.0677090  18.2664120   7.7488530
  44.6972370  28.1228018  12.4350977  45.0617838  28.8053203  11.8716180
  45.1889753  28.1993079  13.2527626  22.3789709  97.4572284  40.2524471
  21.6591948  97.0617731  39.7607446  23.1607741  97.0010276  39.9411654
  77.4617815  23.5418510  57.1674776  78.0640984  24.1629815  56.7580366
  77.2796583  23.9172339  58.0289602   9.0627341  34.9738860  18.8073301
   8.7498050  34.5523477  18.0069470   8.9043002  34.3280697  19.4958448
  78.4654140  15.1289511  42.0087051  77.7715683  15.3886437  42.6148129
  79.0861607  15.8573008  42.0289898  71.2934160  61.7303133  27.5806212
  71.3647556  62.4649191  28.1901240  72.1995735  61.4822483  27.3973918
   1.3664107  40.3413296  35.2322006   2.1706061  40.3681135  34.7137499
   0.8966594  39.5737314  34.9060845  89.3034172  42.3118830  31.6338491
  90.1237392  42.6018381  31.2348104  89.5691776  41.6551399  32.2775054
  42.4798059  22.0552802  14.7029865  42.0183468  21.9730282  15.5375636
  43.3895445  22.2243738  14.9479687  88.1671429  45.0683880   9.0809166
  88.0323887  45.9951305   9.2789543  87.2938728  44.7396469   8.8674277
  66.8694067   8.3378267  52.3359966  66.2739372   9.0690458  52.5001955
  66.5870190   7.6571536  52.9468727  38.9560437  25.4774570  43.9746475
  39.3636250  25.4660177  44.8406601  39.6912146  25.4323602  43.3633232
  12.8420119   9.9496585   5.8481336  12.7145152   9.7637612   6.7784125
  13.5473590  10.5964148   5.8275998  70.8395338  33.0614996  42.3352051
  70.5958271  33.6389065  41.6117144  70.5400038  33.5209680  43.1196785
  40.5535793  19.8466134  44.1174412  41.1895561  19.1316581  44.0928364
  41.0856009  20.6416607  44.0844584 108.3454210  69.0931481  83.7318185
 108.0287534  69.5535701  84.5089713 108.3634168  68.1716293  83.9901045
  71.8569517  17.8227687  41.1284876  72.4206114  18.5934532  41.1960602
  71.1986494  17.9468083  41.8122149  37.3050356  47.3815584  25.8442354
  37.8129745  46.7248392  25.3678417  36.7812300  46.8751621  26.4650607
 118.1123829  13.9509678  45.4208279 118.3696365  14.6622241  44.8341703
 117.1564674  13.9355254  45.3737211  82.9285812  44.8767471  36.0115743
  82.7847672  45.7643461  35.6833720  83.8616467  44.8478937  36.2232065
  57.6399851  52.4167490   5.1930916  57.7333403  51.5288830   4.8478246
  58.5030079  52.8127337   5.0721586  55.5549669  27.7698016  50.7451391
  56.0372782  28.1253314  49.9986744  56.1978388  27.2380400  51.2143707
  34.9902027 107.6314117  24.0016723  34.9354475 108.5867320  23.9772415
  34.4144171 107.3403443  23.2945776  10.9029441   4.9673778   6.3606596
  11.3751368   4.9841988   5.5282056  10.0586943   5.3740120   6.1653948
  96.1930561  32.5083780  65.6007147  96.3355541  31.5953875  65.8504581
  97.0721626  32.8843474  65.5555439  23.5828083 108.2339473  32.5542474
  23.5853022 107.5203095  31.9163251  23.4091872 107.8054027  33.3923626
  68.3356953  37.3468685  32.4956751  69.0742540  37.9472017  32.5974870
  67.6799250  37.8530669  32.0161366  38.1509512  92.6000686  28.3848500
  38.2537144  93.2962389  29.0337086  38.4372729  91.8066902  28.8374019
  81.2735289 107.1785436  45.7590771  80.8504790 108.0120159  45.9654331
  82.2066801 107.3875527  45.7169533  54.2941809  23.2862353  21.3033128
  53.9093924  23.6671901  22.0926428  55.2276754  23.4867859  21.3711381
 106.0585690  40.1050377  32.7262616 105.3884411  40.2491856  33.3943844
 105.5699825  39.8168063  31.9552588  67.1650171  30.6875587  41.2452555
  67.9562998  30.6062245  41.7776918  67.2138071  31.5696979  40.8769083
  93.3521271  48.1103563   0.4130243  92.7933502  48.1223631   1.1901036
  93.0176926  48.8214970  -0.1334783  54.8360395   7.1073854   1.7262593
  55.7554674   7.3692596   1.6782510  54.5328379   7.4505496   2.5668180
  79.3631506  31.5808249  11.7913473  79.5025492  32.1716714  12.5314164
  78.5891581  31.9294333  11.3490343  74.4946098  30.4055452  23.3542156
  74.4709253  31.3473487  23.1848764  74.0638351  30.0146055  22.5940633
  54.0664244  29.0061402  38.2998395  54.1039085  29.8587298  37.8663468
  53.6570454  29.1855979  39.1462660  66.0442162  14.4401503  48.0911493
  65.3704786  14.2034805  48.7285566  65.9042263  15.3732383  47.9299593
  83.3673477   1.7932737  18.9274120  83.1445503   1.0185484  18.4112787
  84.3177986   1.7468679  19.0309799  58.9831734   0.6093637  20.3812599
  58.1828213   1.0403091  20.6811810  58.9018488  -0.2915350  20.6943107
  84.9215031  30.7074928  46.8469429  85.4503441  30.8826542  46.0685587
  84.2949486  31.4304471  46.8784761  84.1137409   9.8203987  15.5757272
  84.8561287  10.3158736  15.9215581  84.4936085   9.2619520  14.8974419
   3.6799388  27.4779892  55.9328365   4.0801196  26.8937969  56.5768909
   4.3373542  27.5589752  55.2418423  52.5989008  29.7939801  46.4619064
  51.8523169  29.5633960  47.0147896  53.3632898  29.4968271  46.9555044
  69.1495323  37.2448421   3.6355004  68.9182377  36.3565016   3.3642289
  70.0616455  37.1790862   3.9182743   5.6685196 110.9645932  91.5161368
   5.2393662 110.3733390  92.1345854   4.9647557 111.5296643  91.1973145
  58.5913038  24.2799902  17.2683525  59.4779730  24.5882893  17.0812821
  58.1200886  24.3904853  16.4425337  75.5081606  21.1824036  42.9401636
  75.9881258  20.5391598  43.4617996  74.9089193  21.5957189  43.5617065
  79.5298386  36.0150290  27.2968078  79.0507936  35.2331305  27.5713658
  79.0659761  36.7397070  27.7162266  86.1358643  33.7195659  46.0386515
  85.2963448  33.8237643  45.5907965  86.4552307  34.6137285  46.1599302
  30.4448193 105.1512600  34.2386222  30.0470322 105.8681912  33.7446523
  30.7776469 105.5649133  35.0350833  74.5520592  37.0664811   6.9182009
  74.3087912  36.2588263   7.3706913  74.6833658  36.8008566   6.0080171
  36.6626423 111.1159662  31.0315657  37.4393385 111.4431001  31.4853954
  37.0002907 110.4609219  30.4207134  54.1973639  31.6387057  37.3394179
  54.7404671  31.5483403  36.5564108  53.3684015  31.9919133  37.0164704
  75.4738522  31.6906095  34.2253923  74.9025679  32.1102977  34.8686051
  75.0783968  30.8314133  34.0783405  51.5969324  31.4964032  71.5929794
  51.9306421  32.3688126  71.8021917  52.2271490  31.1431170  70.9650898
  82.8539467   9.8138994  20.3456831  82.7279091   9.4980401  19.4509315
  82.9703236  10.7593453  20.2517629  53.1163263  29.2305088  16.9299996
  52.5061893  29.8932409  17.2536469  53.6065197  29.6739602  16.2376893
 116.1625957  37.0284057  53.0284262 116.4090729  37.9081035  52.7427483
 116.9780159  36.6437197  53.3498859  16.4742522   8.4703469  15.0229502
  15.6868224   8.6321545  14.5033324  16.9912581   7.8645009  14.4920230
  41.4484501  26.9422388  33.8669133  40.5424881  27.0011163  33.5635972
  41.8451500  27.7710676  33.5987568 104.4829082  14.3590271  10.2379751
 103.8928127  14.7568226   9.5978296 105.3479385  14.4119060   9.8315835
  76.3020754  25.2598429  48.0815077  76.9027805  26.0028625  48.1389809
  76.6672945  24.6096039  48.6815357  68.6582851  70.0279713  35.5127287
  68.7057304  69.0879488  35.6869030  67.7208138  70.2172947  35.4736018
   3.1582104  80.8216184  95.5484398   3.9768254  81.2656396  95.3272125
   2.4752175  81.3777106  95.1735781  58.3786869  30.7284498  19.2633736
  57.9436350  30.2497292  19.9689150  57.8287029  31.4990401  19.1221571
  41.3246679  19.3291044  64.3300343  41.7305803  18.4772265  64.4905615
  42.0483446  19.8907340  64.0523767 100.8424091  31.5166712  44.1313553
 100.9837246  30.7013083  44.6124458 100.1896572  31.2932277  43.4678602
  84.9501801  77.9686499  58.1355762  85.8206749  77.5717497  58.1048918
  84.9687386  78.6397314  57.4532700  75.2876377  13.8740718  28.0515957
  74.4053984  14.1251624  27.7780175  75.8463621  14.1213453  27.3147678
  63.3829021  58.9569569  17.2979462  63.9300156  58.4759617  16.6770279
  63.7440729  58.7361622  18.1564546  67.1937370   8.7968814  70.1049185
  66.4720869   9.3983138  70.2885723  67.2592258   8.7858558  69.1500235
 103.3276939   6.2784374  20.4611492 103.7483883   6.6818362  21.2204385
 104.0388870   5.8304381  20.0031805   1.5347628  56.3631868  28.6091542
   0.8430438  56.1445951  29.2336321   1.5265040  57.3194504  28.5676122
  75.8826351   4.6191704  18.7693202  76.4975548   5.3289199  18.9546895
  75.0809145   4.8710620  19.2276084  88.7844563  26.8487811  40.9573650
  89.6154690  26.3882256  40.8410120  88.3364964  26.7505550  40.1171780
  75.2843618  22.5156021  55.8249044  75.8613968  23.0381751  56.3818407
  75.6096268  22.6640368  54.9369860  90.7318592  41.3357067  28.2797527
  89.9453545  40.9805679  28.6938906  90.9913158  40.6672382  27.6456666
  81.8841648  28.6366510   6.9772971  81.8737221  28.0127788   7.7031797
  82.7554989  28.5418725   6.5925419  52.9109669  29.5926976  20.4736590
  52.7597189  28.9810133  19.7531044  53.4440756  29.1003680  21.0978699
  63.3116388  39.6087289  54.6636724  63.9648962  39.8185635  55.3310966
  63.2438564  38.6542082  54.6866131  89.7621155  47.5117350  38.4789753
  90.6091690  47.2141933  38.1470299  89.1555214  47.3650789  37.7531862
  85.3718376  12.2186089  43.5368443  84.6744823  12.0843518  44.1786385
  85.9692097  12.8366733  43.9580011  14.6404397 105.2180713  76.4699724
  15.5543267 104.9592488  76.3513782  14.6608292 105.8442443  77.1936598
  36.6185414 104.1910117  95.3264373  36.0111939 103.6427730  95.8232115
  37.4617993 103.7446349  95.4032762  83.4783268  30.7768750  25.1827669
  82.9735756  31.5873909  25.2499652  84.3282509  31.0518241  24.8388624
  81.3996792  22.6786280  32.9982257  80.9591198  23.1435657  33.7095475
  80.9410858  21.8404698  32.9397392  43.6895865  94.6598608  66.6956949
  42.7504366  94.7691555  66.8449783  43.8838881  95.2386935  65.9585142
  90.6827354  13.8390636  54.5560360  91.2641048  13.5159016  53.8676977
  90.2867413  14.6273673  54.1845512  71.1759090  20.5082226  16.4026856
  70.4631758  20.6911588  17.0148778  71.9691658  20.5618691  16.9356942
 104.5968723  36.1812019  65.6114197 104.3562984  36.2043595  66.5376043
 103.7956238  36.4280415  65.1495838   1.1104731  32.0836306  30.8457613
   0.6813483  32.9214382  31.0194159   1.0613589  31.6124320  31.6775012
  78.9783955   8.6327559  52.0593452  79.2507315   8.7682527  52.9669285
  79.7605896   8.8271797  51.5430021  64.3751192  14.2775846  88.1137848
  64.1244221  14.6948779  87.2896194  64.5860767  15.0067151  88.6969662
  62.2828531  35.4629326  33.4814262  63.2221460  35.6412053  33.5281134
  62.1124172  35.3187013  32.5506306   0.5838446  61.4271927   8.0783647
   0.7560878  61.3886166   7.1375799   1.0581164  62.2031260   8.3770716
  32.5423258 109.9318684  36.6795087  33.1380528 109.7613957  35.9499311
  31.6852682 109.6499675  36.3597965  79.8850346  58.9431143  29.5388532
  79.3887949  58.6074018  30.2853656  79.2371035  59.4095945  29.0108204
  90.1419544  52.1345329   7.0914638  89.9286842  51.6940355   7.9140872
  90.4188251  53.0122328   7.3545420  80.4456997  34.7761130   4.3982214
  80.9687996  34.0799379   4.7956446  79.5803022  34.3856311   4.2763883
 117.3643762  68.4539681  79.2198768 117.5305731  68.8887828  80.0562647
 117.2340090  69.1707593  78.5990324  97.2076702  16.3546145  31.0218048
  97.4614239  15.4774261  31.3088202  98.0301857  16.8430686  30.9886479
  84.1028595  32.9743624  53.8383102  84.8156071  32.5018191  53.4082842
  83.7489700  32.3496604  54.4713545  78.2596350   6.2313217  28.9247823
  77.5862503   6.4318985  29.5748234  77.8002548   5.7304054  28.2507777
  59.5572042  33.5353231  48.9263868  59.9209976  32.6662636  48.7572002
  60.0700474  33.8706422  49.6617699  71.9215918  57.1386051  52.5144482
  71.5943623  56.2398767  52.4764681  72.6603508  57.1504354  51.9059038
  75.3171062  11.8896103  18.0558848  74.3879843  11.8665707  18.2848728
  75.4028225  12.6484859  17.4788296 109.2358208  24.7326016  29.9435878
 109.0506744  24.2338729  29.1478348 108.9120102  24.1788912  30.6540680
  80.8183575  10.5127347  31.8043756  80.7182789   9.6747899  32.2561121
  81.4544678  10.9950864  32.3325276  73.9116287  31.8014908  50.9102011
  74.1136932  31.4869356  51.7913723  74.0587568  32.7463198  50.9535646
  87.2299290   3.9167747  18.8244796  86.7474842   3.1039125  18.6737001
  86.8467617   4.5406133  18.2078469  62.2069979  39.9074888  19.5913208
  61.2520504  39.8643088  19.6407557  62.4882650  40.0339031  20.4974866
  69.1687489  25.5952644  32.4604154  69.1771889  25.1814270  33.3234906
  68.3096600  25.3775144  32.0987773  85.2533817  25.8236766  25.0887203
  84.8439121  25.1139832  24.5938444  84.7580242  25.8620143  25.9068775
  92.5369930  27.4022126   7.0889670  92.7079487  27.3173857   6.1509842
  93.4053230  27.4754763   7.4850208  75.7884979  64.4922304  12.6749277
  75.8917046  64.7122383  13.6007667  76.6838312  64.4323921  12.3417175
  98.5931778  53.3136654  36.2150121  99.1611099  53.8184452  36.7971468
  98.5822296  52.4347496  36.5939879 102.7385998  29.0064812  28.3895874
 102.8810310  29.5712256  29.1492009 102.2879505  28.2393336  28.7426186
 112.4677849  39.9427795  26.3191152 112.9004288  40.6804180  26.7491674
 112.9893589  39.7848558  25.5321860  74.9582624  42.3211908  11.6224003
  74.0557289  42.5903368  11.7933536  75.4038382  43.1278849  11.3636792
  56.6158533  20.7375264  40.2524090  57.3436499  21.0116148  39.6943569
  56.5920210  21.3898253  40.9525299  75.2457333  42.8193665  42.4223900
  75.7346344  42.2999620  41.7840910  75.1366901  43.6730480  42.0033789
  34.8802584 100.3083761  24.0176034  35.5458086  99.7724028  24.4488859
  35.0057381 100.1404138  23.0836463  47.8163481  15.0537944  28.5797191
  47.9342604  14.7946942  29.4936109  48.2668972  15.8953905  28.5093307
  77.6843357  18.1564319  13.4575605  77.8352451  19.0990818  13.5273302
  78.3884811  17.8424847  12.8902459  90.7104969  30.0195265  28.5474205
  91.0953617  29.3927503  29.1600132  90.9910011  29.7142863  27.6846457
  97.9135513  73.9029169  52.0299387  98.6933899  74.4173002  52.2384882
  97.8844643  73.2268429  52.7069283 113.5314083  31.7233324  45.0817060
 113.8725853  32.0395303  44.2451382 113.4748077  30.7739162  44.9738216
  83.7907410  46.0437584  26.0327911  82.8621960  46.1241722  25.8146620
  84.1786289  46.8670273  25.7361436  78.0767488  48.9838648  43.3871603
  78.5665607  48.1885147  43.1780291  77.6232100  48.7778854  44.2045403
   8.3143954  42.7119255  30.3035712   7.5010638  42.5284338  29.8334026
   8.9935832  42.2815514  29.7842360 108.2214355  51.3549328  57.0869350
 108.2734871  50.5693436  56.5425301 107.2832775  51.4978552  57.2121096
  80.7895565  38.6309242  50.6159544  81.0275555  37.7625561  50.2911091
  80.3670597  39.0579319  49.8707104  61.7018431   7.6308010  92.1586051
  62.3517149   8.0673168  92.7093831  61.7786616   6.7042063  92.3860800
 101.4741707  30.6452084  50.8241224 102.4235153  30.5855417  50.7173204
 101.3520718  30.9163284  51.7339659  77.2981691  58.1524992  26.8700337
  77.3825121  58.9970779  27.3125362  76.3713980  57.9288387  26.9554639
   8.3885054  58.9091253  71.4943790   8.0270438  59.7640657  71.7281532
   7.6322131  58.3224010  71.4900446  37.0420604  36.5491652  22.3319745
  37.8345923  36.0289288  22.4641514  37.0382457  36.7460442  21.3952470
  92.4382687  40.0795746  26.6012239  91.9295692  39.9189830  25.8064461
  93.1854439  39.4853520  26.5315294  89.9265003  39.6610522  24.5647001
  89.0271187  39.9481440  24.7225785  90.3394032  40.4009199  24.1193438
 100.1118183  25.5338979  64.3932819  99.1997242  25.4967237  64.6812725
 100.6096745  25.6950879  65.1947784  89.8239708  40.5191278  47.8374434
  89.4405556  41.3881493  47.9558420  89.3001461  40.1187372  47.1435261
 107.9252625  22.1166444  43.7344933 108.4469414  21.5456700  43.1705189
 108.2104588  23.0019784  43.5084867  49.2001295  34.0300393  43.3233404
  49.7181082  34.1260719  44.1225338  48.3423328  34.3897605  43.5492134
  95.7352066  65.5351448  10.3382254  96.5041161  66.0496330  10.0926471
  95.7542610  65.5177975  11.2950790  99.4686985  33.7153554  58.9120960
  99.4118977  34.1757250  59.7493935  99.8454952  32.8634262  59.1322613
 102.9726982  78.2695007  22.2558022 103.3353043  79.1169643  22.5137782
 102.2221947  78.4882450  21.7034125 116.9849110  28.1983662  53.5073185
 116.9852829  29.0223885  53.0202675 116.5628338  28.4121537  54.3394089
 113.8479137  60.6191015  33.3490181 113.0274582  60.1280737  33.3935237
 114.2663002  60.3139496  32.5439930   1.2805514  38.9177990  21.9211936
   0.7046275  38.7709999  21.1708689   2.1648936  38.8499427  21.5612268
  98.4824371  32.1904206  45.6997490  99.0508938  31.9615817  46.4350843
  99.0598106  32.1738458  44.9364710 115.9475994  69.4945002   3.3588722
 115.4894352  69.6424103   4.1861832 115.9523678  70.3508759   2.9312909
  92.0549393  59.1266727  33.5144305  92.8018761  59.6235371  33.8482809
  91.4098835  59.1603279  34.2208314 100.0371742  41.0849142  32.6476908
  99.8923302  40.2381325  33.0698395 100.8842945  40.9933233  32.2115445
 110.1735592  12.5765896  29.5992684 110.0443745  12.0222151  28.8297153
 110.2220631  13.4658539  29.2484260  79.4423056  41.7125940  34.2375374
  79.5956326  42.3726988  34.9135399  80.3112602  41.5290928  33.8804913
  94.4933605  47.7852583  57.5488424  93.6488533  47.6930332  57.9899168
  94.4356537  47.1973658  56.7956543  69.4716662 100.4999692  28.0314708
  70.1778239 100.6983585  28.6464548  69.7231119 100.9497971  27.2248363
  10.9817271  70.8536100  20.6874728  10.9875350  71.8101263  20.6517434
  11.6680293  70.5869198  20.0758362  79.4726515  29.5492744  48.8484716
  79.0262222  30.3791881  49.0163231  79.8690796  29.3164682  49.6880436
 106.0557764 103.6753364  29.0056610 105.9268873 102.9615028  29.6302080
 105.1743239 104.0084631  28.8374186  82.7713680  38.0832243  24.6462202
  82.0839214  37.8542781  24.0207386  82.6993179  37.4215555  25.3341413
  87.8475016 110.7977332  64.3180037  87.6154345 110.0670193  64.8910952
  87.8550833 111.5615225  64.8948956  20.6399207  48.8097334  19.0667808
  21.2507491  49.3761015  19.5383132  21.1543898  48.0330372  18.8470280
 104.9497509  80.1723385  32.9269433 104.8258972  80.6569767  32.1108437
 105.7032013  80.5916595  33.3425331 106.7942810  68.1440353  61.9945955
 107.7431488  68.0302620  62.0487547 106.5392113  67.6584196  61.2101507
 116.1645889  62.7080584   5.7685673 115.6725502  62.2656918   5.0768763
 116.1778736  62.0809603   6.4916205 111.0772705  64.4953823  67.3234129
 111.3520145  64.3250322  66.4224529 110.1207638  64.4871998  67.2877407
  92.6247215  27.6477098  30.4777551  93.4004307  27.9267931  29.9913144
  92.4432087  26.7655826  30.1535058  64.5129633  55.1594782  25.2256465
  64.5575523  54.2038298  25.2569008  64.9986935  55.3962040  24.4355440
  76.1199570  17.6150215  22.8765750  76.7414093  17.0676184  22.3966026
  76.3676214  18.5119343  22.6519799  12.6587235  86.9560545  95.9629115
  12.9636895  87.0525830  95.0607404  12.5703465  86.0109299  96.0860365
 113.0533409  47.2832346  68.8436031 112.1701145  47.6133251  69.0084648
 113.5211849  47.4299240  69.6656990 109.1803169  55.9416151  23.7192965
 108.9646912  55.1276970  23.2640219 108.5826492  56.5899420  23.3468771
 113.6000443  36.5551567  53.7444067 114.5520878  36.6255951  53.6744833
 113.2722664  36.9103932  52.9182100 115.1534206   5.7984786  52.8815842
 114.6655733   4.9936061  53.0559874 114.6908743   6.2048774  52.1487045
  73.4441489  16.1421059  95.6681448  73.8369959  16.0466097  94.8005158
  73.6407488  15.3172396  96.1121902  93.3885860  72.4681377  67.5256205
  92.7555847  71.8596554  67.9067993  92.8536320  73.1026840  67.0487499
 108.4454823  23.3420658   0.2407862 108.3596516  24.1949773  -0.1851346
 107.8185272  23.3710885   0.9635090  84.6745682  50.8432150  25.8982182
  85.5004406  50.8136654  26.3812232  84.6527100  51.7199039  25.5145860
  25.0056319  43.4638453  24.6892548  25.9112983  43.3002186  24.4261503
  24.7846846  44.3003702  24.2798162   9.2666184  89.2095583  90.5210605
   8.8354813  89.7347539  89.8468795  10.1428448  89.5876401  90.5953041
   9.9821429  34.8871207  46.5499067  10.2235465  35.6243467  47.1106672
  10.5111365  34.1575241  46.8725252  60.3723097  30.8413839  48.3632517
  60.8055830  30.0490808  48.6806870  60.9874535  31.2140822  47.7316427
  86.1392212  14.8820400  31.1575961  86.5591908  15.3246987  31.8950963
  86.8632412  14.4884038  30.6707001   4.2778067  50.5744505  38.9694524
   3.9701323  51.1194468  39.6937132   3.8607459  50.9492683  38.1936932
  76.3335722  12.3447083  86.6148200  76.9209593  12.8019427  86.0130313
  76.0646933  11.5600107  86.1371329 111.3288403  59.0585518  33.9974880
 110.5049992  58.6002588  33.8316917 111.0631275  59.9233294  34.3101954
  94.5320892  29.6778440  73.8146830  93.6186504  29.6878052  74.1006184
  95.0091839  29.2939615  74.5503759  97.4442196  72.1118546  23.4530783
  97.9117203  72.9400110  23.5618448  98.1174564  71.4917564  23.1729794
   7.5412135  32.8761673  28.3547044   8.4893374  32.8522444  28.2254267
   7.4216513  32.6892304  29.2858291  91.7171860  30.6959271  62.3527288
  90.9231663  30.4089665  62.8037548  91.4007092  31.1029887  61.5462685
   9.2504840   8.1906313  48.2390451   9.0086036   7.3793292  47.7923727
   8.4576182   8.4516764  48.7075043 114.5127201  73.3035707  18.9809477
 115.0789547  72.8748751  19.6226859 113.8336468  72.6563883  18.7905383
 107.6630020  51.1446905  30.9001064 106.7983818  50.9988213  30.5161977
 108.2350636  50.5280542  30.4432178  75.7654572  38.3153939  33.2861471
  75.7915449  37.7185488  32.5382662  76.4175177  37.9665089  33.8938713
  79.4473743  62.9059458  13.9902198  79.0124273  63.4879494  13.3670640
  80.3761196  63.1247807  13.9142621  98.7798977  32.3819256  17.0920086
  98.9499950  32.5452733  18.0197024  98.8785458  31.4349270  16.9935381
 103.3211803  43.9821720  56.5126371 103.7472343  44.7735405  56.1833191
 102.6846600  44.3013525  57.1523237 112.1819305  60.6611919   0.4596709
 111.5340805  61.3213158   0.7061671 113.0262089  61.0797501   0.6276748
   4.2929606  11.2868249  35.4752493   4.6739630  11.4608121  34.6145582
   4.0988116  10.3495634  35.4662085  76.8432188  41.2989759  23.2920003
  77.0638466  42.2128534  23.4719467  77.6381731  40.8130026  23.5113430
  89.8963642  41.5152645  19.7292697  89.6749210  42.4385214  19.8508954
  90.5702400  41.3419771  20.3866148  95.6137943  70.3815651  24.6592069
  96.1151981  69.9696207  25.3628612  96.1744022  71.0934401  24.3506765
  34.1612660  98.9360183  93.7786993  34.8648011  99.5805209  93.8554686
  34.5318352  98.1323474  94.1434347 111.9975471  57.0314121  22.0632505
 111.8633652  56.2772560  21.4892459 111.5427876  56.7999268  22.8730965
 118.2748110   1.6703563  39.4669199 117.9467279   2.5587802  39.3280149
 118.1217844   1.5011363  40.3965330  81.3716143   6.0157631  92.2104019
  81.6051310   6.9322966  92.3575950  80.5379027   5.9046458  92.6673528
 108.9275646  47.4598217  34.3364549 109.8435974  47.4873447  34.0601206
 108.4315300  47.4268913  33.5184741 113.0784225  61.1972713  23.4452128
 113.3625031  60.5093288  24.0471005 113.3765602  60.9011793  22.5851703
   7.0060115  54.0700960  34.5529556   6.2759261  54.6740961  34.6885753
   7.6208262  54.5569134  34.0040946 101.9283104  15.7170451  26.4732432
 101.4977646  16.4928651  26.1141324 101.4493084  15.5293393  27.2804332
  74.8812771  60.1309061  54.7860670  74.2169189  59.6155167  55.2434874
  75.0615740  60.8647633  55.3735828 108.7373734  31.2858438  53.5955334
 108.6990356  30.6826735  52.8532743 108.8255024  32.1514153  53.1964731
  80.2760410  52.1196365  41.5348673  80.9359074  51.4281988  41.5871191
  80.7281590  52.9058170  41.8410349  95.6088924  68.9733839  39.3218517
  95.2721119  69.8689604  39.3492150  96.4888763  69.0369701  39.6930909
  78.8161325  30.5268478  39.9024129  79.6466732  30.2090907  39.5482111
  79.0459442  31.3320184  40.3662205   9.7103171  58.3695698  75.1698780
  10.1327185  58.6190510  74.3479538   8.7816672  58.2969189  74.9495125
  26.7675530  98.7009662  78.8543740  26.7320382  97.8030484  78.5246506
  27.4439274  99.1238254  78.3252826  81.9235611  78.3709812  32.7051234
  81.0509968  77.9833889  32.6370955  81.7943478  79.2926502  32.4813724
  75.6891268  11.7877005  79.6623245  76.4131277  12.3361777  79.3602672
  75.1946944  12.3505019  80.2581599  22.2880511  41.5440416  20.2565193
  21.9324069  40.6603813  20.3507853  22.5218444  41.6106319  19.3306994
  97.5924683  56.3427448  20.6944799  97.9955101  56.5364456  19.8481524
  96.6638088  56.5369415  20.5675673  13.0073218   9.0099490   8.5935235
  13.7646632   9.0348917   9.1783679  12.3516612   9.5560300   9.0272731
 107.9309940  55.5759716  68.0538082 107.2712898  56.1354446  68.4636974
 108.5871220  56.1863422  67.7173805 104.5378399  36.3445282  52.6973820
 104.2340660  36.7412305  53.5138178 105.1084423  35.6285715  52.9767609
  96.2552452  45.3993988  51.5447140  96.9344425  45.7034397  50.9426546
  96.7269897  44.8786688  52.1947384  92.1225483  99.7123569  90.3243390
  91.5796215  99.7275394  91.1125204  92.7982218  99.0606731  90.5114469
  91.0184479   4.1039377  24.7071457  90.3743458   3.7135792  25.2979016
  91.4433193   3.3556646  24.2878628  95.0898838  60.5524397  26.8551850
  95.0256252  61.4785433  27.0884895  95.8326054  60.5081177  26.2529945
  95.0036144  55.9713125  52.7997351  94.5828152  55.6949043  53.6138344
  95.6222439  56.6505003  53.0684853  82.7612209  15.9786332  53.3822823
  82.6202011  15.0672066  53.1260633  81.9274521  16.2515581  53.7651110
  98.9416790  38.1299090  25.4226661  99.1235161  38.9732289  25.0079584
  98.9256859  37.5050235  24.6977544  95.9785271  43.4153223  64.2657566
  96.8424702  43.0099106  64.1918421  95.4552841  42.7773237  64.7509432
  16.7329442 100.0229352  91.4273676  16.8404614 100.1356118  90.4829231
  16.0229813 100.6210702  91.6606518 105.0203705  70.2301598   4.7248545
 105.2377319  70.6008482   3.8695315 105.5387497  70.7414579   5.3462172
  99.6776485  42.6387405  13.0235422  99.4308376  42.5026798  12.1087730
  99.0967369  43.3363104  13.3271444  79.7503328  76.7000484  69.6850777
  80.4943180  77.1846056  70.0427532  78.9810705  77.1567631  70.0254774
  89.4718266  75.1651192  34.1231728  89.9774361  75.1253414  34.9349642
  89.7824001  75.9580994  33.6861825 116.8824863  12.3040330  56.7219973
 116.2843895  12.7682567  57.3076677 117.7497959  12.4519920  57.0989799
  88.1488323  35.4847121  14.8137212  88.0860329  36.2387133  15.4000390
  87.4110031  35.5866909  14.2125261  19.9003272  78.5539961   5.5251878
  19.4911437  77.7587843   5.1839542  19.6508078  78.5742426   6.4490736
  86.1516190   7.8715730   9.9387282  86.2432480   6.9785702  10.2709651
  86.7340469   8.3934265  10.4907095 101.6179752  36.3687754  20.6824279
 102.5104427  36.5027714  21.0014749 101.3799191  35.4963493  20.9961724
  92.1792221 110.2385998  31.0341620  91.7070198 110.1555157  30.2057004
  92.7226543 111.0186863  30.9229064 101.3982105  65.6359816   5.0077617
 100.5502033  65.3584719   4.6612006 101.6798496  66.3363981   4.4192681
 102.6892471  38.5822392  32.2420406 102.5808620  38.1792903  33.1035018
 103.4624767  38.1550884  31.8733954  81.5598965  65.0850153  57.1106911
  82.2688389  64.5738602  56.7203617  81.9950485  65.8506441  57.4857759
 104.2558193  47.7035189  45.3445625 104.8875904  47.6605940  44.6267509
 104.0283108  48.6311054  45.4082537  81.6435432  44.2056561   6.0851759
  81.8827629  43.4582949   6.6333175  80.7586956  44.0053320   5.7799596
 117.7823067  63.6066103  33.8574696 117.3720932  62.9274893  33.3219767
 117.9874611  64.3078709  33.2391000  83.3897495  44.3521643  55.7321692
  83.6280346  43.6993980  55.0738811  82.4418545  44.2602444  55.8284855
  96.1732483  19.7493851  31.3338327  96.0291576  18.8031614  31.3223577
  95.3561115  20.1119614  31.6759610  95.5048084   1.0497161  64.0924692
  94.9769497   1.8353775  64.2350769  95.3180408   0.7965112  63.1884623
  85.5690002  60.1443338  10.7797563  85.7108307  60.0665474   9.8363227
  86.4481163  60.2348471  11.1474550  99.6122837  57.5241184   9.1412115
  98.7203693  57.6558161   9.4627392  99.6038055  57.8876352   8.2557666
  20.2569138  87.9393476  76.2752893  21.1835801  88.0259722  76.0516336
  20.0426804  87.0313590  76.0610679  97.1558094  52.1364164  40.9186220
  97.7197552  51.8718290  40.1918554  96.2829590  51.8351030  40.6664705
 104.3791866  54.0677118  54.8914385 104.1629410  54.8705864  55.3656387
 105.2211094  53.7939692  55.2553892 110.4128361  52.9462624  28.5939002
 111.0127068  52.8524351  27.8539133 110.2359104  53.8857841  28.6411691
  75.0471544  52.8730726  42.4492407  74.6899605  53.6738014  42.8332710
  74.6083689  52.1649313  42.9206562 104.7731113  38.1023335  36.2249780
 104.5481110  37.4452186  36.8836188 104.1503239  37.9517078  35.5138659
   3.3153586  43.8018417  14.0675259   3.3430247  44.1271162  14.9673402
   4.1343741  43.3176613  13.9625812  76.6106510  21.4117837  19.8236513
  77.5666857  21.4150000  19.7765541  76.3491344  22.2488475  19.4400334
  59.4232750  44.5180750  51.8922472  59.8269653  43.7471008  51.4936686
  59.6844339  45.2446699  51.3264847  20.4012238  94.7600597  89.6787706
  20.4465710  95.1571339  90.5485454  21.2995659  94.7989672  89.3505862
   4.4031577  54.7422695  29.1669726   3.5759597  54.2705727  29.2643309
   4.2048697  55.4492950  28.5529447  85.6970310  73.3981609  29.5012355
  84.8980713  73.6769247  29.9486589  86.3881302  73.5083246  30.1542878
  75.0166655  42.7993727  53.3553076  74.1520214  42.4157953  53.2087088
  75.5987740  42.0462704  53.4563923  81.5427303  41.0557127  46.6223240
  81.5614796  41.9373655  46.2500715  82.4367428  40.9066296  46.9301462
   0.8297400  14.0682805  27.8645873   0.9072928  13.1532526  28.1346631
   0.6907706  14.0277767  26.9183946  86.0429382  61.8414307  56.5154266
  86.2474632  61.5713692  55.6201792  85.3426647  61.2494802  56.7901039
  97.8600502  52.0711565  20.5888987  97.7466202  51.7089796  21.4676428
  97.1414185  51.6953945  20.0803661 112.9359150  37.8175282  51.1824751
 113.0005932  37.1946788  50.4585266 112.0503330  38.1741548  51.1132097
 118.2937431  41.2414503   3.6038581 118.2384300  40.2872849   3.5514873
 118.1247044  41.4409828   4.5246437  96.6190815  63.9352226   1.1526269
  96.6457272  63.3279085   0.4132404  97.1315575  64.6894884   0.8616316
  75.6303406  12.2490978  52.3240948  75.6827021  12.8720713  51.5992546
  75.3827524  12.7814853  53.0800676  12.0204978  79.0616751  16.5027964
  11.6511588  79.6428585  17.1676612  11.6112571  79.3431807  15.6845617
  66.8953180  28.5267377  32.7780509  67.1065569  27.9146886  33.4830356
  67.6392841  28.4676933  32.1786690  61.8221140  17.8266668   7.0053458
  62.1558666  17.3005486   7.7320087  62.3186588  18.6435997   7.0532620
 103.8436890  37.4096632  40.7871914 103.8339901  36.5895772  41.2807465
 104.7336483  37.4696779  40.4398966   0.4402308  36.4159179  10.3997576
   0.4207949  36.3776994  11.3559973   0.8734660  37.2462320  10.2019930
  98.6754608  47.8208590  23.0646110  99.4398022  48.3968925  23.0507660
  98.1302643  48.1633091  23.7729335 103.7057972  54.1257000  52.3812580
 104.4297504  54.5096350  51.8865681 103.9700222  54.2106819  53.2973337
  93.4059620  46.9067764  31.5478992  94.1106796  46.9425440  32.1946812
  92.7566338  46.3185930  31.9334531  81.7877674  58.6368513  46.4583445
  82.5904942  58.2467365  46.1124182  82.0196915  58.9164972  47.3439169
 113.1554699  41.3924170  20.6775618 112.2497272  41.2755680  20.9642768
 113.5479450  40.5236435  20.7637405  93.8820553  31.0989404  33.0768776
  94.5825958  31.0664845  32.4253988  93.2565498  30.4339027  32.7893043
  93.3390141  23.1481075  58.3067989  93.2007504  22.6137972  59.0888643
  94.2503452  23.4339523  58.3700705  94.0169239  54.0961027  36.2842131
  94.8833275  54.4563627  36.4733696  93.6892033  53.8016796  37.1340084
  14.2258410  52.5398636   9.3935776  14.9976687  51.9861221   9.2757255
  13.8103251  52.2055531  10.1884460 104.9716377  17.1373940  29.4295049
 105.5968857  17.8193545  29.1840792 105.0371647  16.4888728  28.7285376
  12.8704219  33.9506555  26.4841580  12.6661544  34.8786807  26.5993810
  12.8715567  33.8216257  25.5356956  65.9931183  44.3091726  41.7962456
  66.8916845  44.1966534  42.1063280  66.0660219  44.2988777  40.8418846
  63.7639570  15.7125986  11.2179792  63.4270430  16.1606097  10.4420912
  62.9821968  15.3924572  11.6680753  93.8426590  77.0120955  35.0428271
  94.6729279  76.5482235  35.1510525  93.3173084  76.4363766  34.4871449
  49.4831311  95.0053280  83.8046077  49.7313725  94.4172400  84.5178833
  48.8667904  95.6192749  84.2038873   3.5845713  44.8177385  51.3206387
   3.5709910  45.7237625  51.0121536   4.3329386  44.4233942  50.8726788
  78.6112833  26.8775749  48.1008148  79.2638731  26.6968656  47.4242783
  78.9203358  27.6786923  48.5238171  94.3715763  56.2818766  33.4806824
  93.7217236  55.5857468  33.5772753  95.2141285  55.8381987  33.5780931
  66.2862891   1.6450022  88.1412968  66.8955534   0.9090994  88.0823359
  65.8996695   1.7064379  87.2678074   3.6650233  28.9217353  69.5775509
   4.2419104  29.1315246  70.3120089   2.8002600  28.8173437  69.9744511
 103.5218430  55.7391262  14.9785614 103.6439800  56.6880417  14.9490273
 104.3574429  55.3806639  14.6793771 117.2745705  21.3240147  11.8451393
 117.5868893  21.1603451  10.9552503 118.0039501  21.7687201  12.2769618
  83.5844040  41.8446112  30.3755593  83.5907841  42.6613522  29.8764324
  83.1049919  41.2288904  29.8212242   5.0848822  35.2567863  30.0437427
   5.8134703  34.6371174  30.0062323   4.8705821  35.4302788  29.1271138
  84.4301510  36.3414788   3.2268110  84.3566036  37.2924900   3.3067864
  84.2957497  36.1683726   2.2950365  84.1835976  39.9107265  47.3787498
  84.9805450  39.5319271  47.7497149  83.7365341  39.1715789  46.9664049
 117.4645710   6.2691349  50.7310724 117.1411133   6.9449663  51.3267708
 117.4612713   6.6872704  49.8700380  79.1067648  30.3786778  31.3265014
  79.7132635  30.2079630  30.6059122  79.6168566  30.8931160  31.9521141
   5.5889832  79.5056623  96.5121983   4.9650799  79.7019213  95.8132960
   6.2323319  80.2128094  96.4644928   7.5666480  55.5069113  20.2110863
   7.5628047  54.6000147  19.9048972   7.2659545  55.4546785  21.1183262
 110.2367878  59.1539764  29.8394704 110.1297283  59.5050573  30.7235026
 110.2320766  58.2040071  29.9568319 103.8759899  19.4161284  26.8080759
 103.8056564  19.3850756  25.8539677 104.6906853  18.9531374  27.0033765
  84.3954468  32.5512505  10.2895057  84.2696095  31.7300582   9.8140669
  83.6967468  32.5587225  10.9437251  93.3524132  59.8045683  37.5091076
  92.8576088  60.5860853  37.7553415  92.8491688  59.0772581  37.8751612
  97.2617149  61.9034338   8.4680170  96.4151001  62.3119497   8.2874572
  97.4783802  62.1842194   9.3570876   3.0400138  12.8338814  20.6222916
   2.8926329  13.7776470  20.6840706   3.1362586  12.6673698  19.6846128
  72.4302292  47.6186132  38.7150145  72.5202799  48.3278894  38.0785799
  73.2574463  47.1402502  38.6591768  91.0757160  85.0448322  37.4468493
  90.6077290  84.9509525  36.6171503  91.8787861  85.5123997  37.2172880
  80.5597973  31.6068196  33.4047556  81.5115929  31.6174245  33.3037567
  80.3765392  32.3150349  34.0220714  75.9606504  61.4349842  33.3630085
  76.6496038  61.1055183  33.9400911  75.7645082  62.3094893  33.6991692
  94.3095589  53.7108135   4.6572006  93.6266994  54.2999935   4.3365780
  95.1157475  54.2233372   4.5970553 109.1494942  22.1535325  13.0321598
 108.6883450  21.4647746  12.5534332 109.4705677  21.7213368  13.8235867
 101.7399120  36.9603825  25.5381155 101.0212135  37.5917912  25.5059004
 102.1454239  37.1025038  26.3934422  85.3506088  67.6201153  25.7173634
  85.7142925  67.7834892  26.5875816  84.4962025  67.2227383  25.8855891
  73.0213642  55.3422976  25.7171392  73.1217194  54.6426868  26.3626647
  73.0621052  54.8956108  24.8715377 101.7003345  28.3536863  41.0399103
 102.3505878  27.6546073  40.9714270 101.0663319  28.0292606  41.6794586
  99.3413734  72.0936966  64.6863747  99.7222424  71.9530439  63.8195515
  98.6496830  72.7394533  64.5421600  22.9297023  31.7564201  29.4191837
  22.0348506  31.4901853  29.2080140  23.0176596  32.6279783  29.0333319
  29.7994553 101.5206140  79.1657713  30.7421338 101.4311927  79.0257802
  29.5888268 100.8487838  79.8142388  12.0151286  87.5249481   1.7532922
  11.1209540  87.2226524   1.9123933  12.5618224  86.7594337   1.9303395
  91.2105560  75.6898975  24.5586777  90.8654308  75.8458185  23.6795807
  91.0016441  74.7733307  24.7389197  62.2447872  38.0978918  46.6245079
  62.8716755  37.3772550  46.6871500  62.7210855  38.7905765  46.1667347
 107.3130798  39.8074293  35.9334350 107.9272938  40.4873848  36.2102461
 106.5315437  39.9599934  36.4646220  92.3925686  52.3833847  31.5730286
  92.2425842  53.1519651  31.0225534  92.5217438  52.7398109  32.4519539
  93.8642883  41.2418270  33.0625725  93.2864285  41.8764734  33.4862995
  93.5405064  41.1860371  32.1635246  84.3486214  44.3701363  11.0570168
  84.6632957  44.8053408  11.8493605  83.3964252  44.4593668  11.0968232
 113.4403610  36.5789485  24.7053194 113.0981922  35.9159660  24.1056466
 113.1784821  36.2741113  25.5740714  15.9552531  28.5139894  42.6917505
  16.1892848  27.7310133  43.1901598  15.8576064  29.1987801  43.3533859
 105.0690556  49.4034863  19.0893316 105.5002880  49.8005772  19.8460245
 104.2008018  49.8059702  19.0699589   2.7002482  23.3110785  22.4917054
   3.4453540  23.2113004  23.0842352   2.9195266  24.0745425  21.9576025
  68.8223314  66.8560123  48.7317610  69.5079803  66.6508627  48.0961275
  68.6433601  66.0231209  49.1682148  98.2341766  45.3323126  13.3313048
  97.3728848  45.6112814  13.0205023  98.4539318  45.9579992  14.0215635
  98.9672661  94.8407269   6.9314575  99.0084934  95.2878475   6.0861063
  99.8504257  94.4959831   7.0633888   8.9224200  53.6316347  45.0232363
   8.1649451  53.1143713  44.7495651   9.5795970  53.4707212  44.3461418
 107.8436852  53.9588785  35.5180883 108.1333256  54.4468737  36.2889338
 107.2800732  54.5710039  35.0449300  -0.1691385  63.5803223  36.5064335
  -0.3184839  63.5841846  35.5609655   0.7829909  63.5452938  36.5983772
 109.0318966  22.6966858  22.5066781 108.1940079  23.1539488  22.4353886
 109.5549393  23.2449269  23.0915594 116.4658165  17.4187326  25.1179767
 117.2038078  17.8172970  25.5792141 116.6253948  17.6160991  24.1950393
   6.4734511  89.4228172  22.2341657   5.8985953  89.9398327  21.6698313
   7.2929053  89.9169254  22.2583604 111.6614151  66.0203791  33.4077001
 110.8434486  66.4619255  33.6361456 112.2880077  66.3214874  34.0656924
  12.1589236  15.7210207  27.1810555  12.8509478  15.1036108  26.9441152
  12.5767188  16.3250566  27.7949119  17.5582557  57.9466915  25.4138803
  18.4107547  58.0342102  25.8402848  17.5428633  57.0453739  25.0919747
  85.4394722  73.6172295  65.8603239  84.9578381  74.1405678  66.5009308
  85.9275723  72.9840422  66.3866901 102.3905373  62.1547318  28.4735656
 103.1512642  62.7353668  28.4539771 102.1425915  62.1158886  29.3972802
   5.1216178  70.1191711  53.0440569   4.5005946  69.9062920  53.7406445
   4.8115973  69.6225500  52.2867727  82.4970818  50.3267670  15.3687942
  83.2356358  50.7796621  15.7757998  82.4978352  50.6340075  14.4622433
  86.9085121  38.4415698  19.1652536  86.5525532  38.5519433  20.0469232
  87.3714256  37.6043463  19.1969252  96.8622112  79.3212032  60.4284477
  96.1780643  78.6578369  60.3383684  96.6312027  79.7966957  61.2264299
 113.5068703  82.0515728  22.4296641 114.3459034  82.0830631  21.9700360
 113.0058289  81.3793659  21.9677877 102.1304798  68.9597988  51.5001488
 102.1594810  68.3704519  50.7464504 102.3072910  69.8262024  51.1336517
  15.2600055  66.7566299  10.2871943  14.5880847  67.4039984  10.5009043
  15.1571708  66.6059542   9.3475384 105.8181095  65.6284189  29.6412444
 106.1388111  65.2651882  30.4667449 105.9782505  66.5692186  29.7152758
 116.7009640  63.4690714  70.7778168 116.7115784  62.9078197  71.5531301
 116.8848038  64.3460608  71.1144495 105.9067345  37.4983382  22.6214099
 105.9692287  38.1494689  23.3202338 105.0589943  37.0766735  22.7620435
  89.9326038  69.3405867  32.2590899  89.9734974  69.1771030  33.2013369
  89.7983265  68.4757137  31.8715429 107.6311207  66.2652779  36.5292025
 108.2289124  67.0015335  36.6588306 107.8703117  65.6393385  37.2127342
  88.0624008  70.0973368  70.4549980  87.6700878  70.1207685  71.3277960
  87.6017666  69.3895960  70.0042772 113.1732655  47.8559828  22.1716952
 113.7439632  47.1125317  21.9772315 113.4078979  48.5152864  21.5186286
 103.5298634  55.9818792   3.2447976 103.3614445  56.9131517   3.3883366
 103.2080936  55.5551195   4.0388843 112.9794407  58.7212753  84.6155071
 112.5760460  58.0952454  84.0141869 113.3652401  59.3864393  84.0454674
 118.0452156  42.5714207  62.2491884 117.5604916  43.3157825  61.8925476
 118.9651966  42.8214836  62.1635485 117.2679710  52.2749567  42.3051119
 117.1444988  52.3009682  41.3562679 116.8303394  53.0637407  42.6253080
 101.3583660  46.7969465  51.7771482 100.5771637  46.9257736  51.2392330
 101.0183144  46.5860128  52.6466894  91.9931412  75.0626087  43.1472683
  92.7762413  74.5252800  43.2666540  92.3281097  75.9518480  43.0320215
   3.4035926  54.7822189  12.5300801   3.6959700  53.9863682  12.0858192
   2.6429896  55.0720406  12.0263720  24.1583686  60.6597614  14.2701054
  23.6529212  59.8598242  14.4145095  23.8448863  61.2656498  14.9415696
  85.2160549  31.4873552  21.7924213  85.2765560  31.1545587  22.6878667
  84.3934250  31.1292148  21.4588714 106.7085648  44.6814489  48.9856052
 107.5497246  45.1376724  49.0088749 106.3102436  44.9554777  48.1594801
  11.9728331  54.2853022  50.4236794  11.8211036  53.4410763  50.8485270
  11.2822871  54.3489361  49.7638845  15.8221011  58.4061909  17.7153945
  15.0344519  57.9359055  17.9886377  15.6477599  58.6589146  16.8087697
  86.9598675  54.7669363  51.1013174  86.3317013  55.0601578  51.7613649
  87.4792004  54.0969372  51.5458679  -0.2822347  61.5236568  44.5336866
   0.6226783  61.6916370  44.2707109  -0.2607293  60.6482840  44.9203300
  89.4576168  60.6627131  49.9722576  90.3587627  60.3995514  50.1591206
  88.9820480  60.4810047  50.7828426  67.4099255  35.9182811  41.3713121
  66.9754744  36.4264154  40.6862688  67.8502655  36.5734458  41.9126892
  15.0238185  64.2914963  11.7593884  15.3750853  63.5554695  11.2582827
  15.3396468  65.0681448  11.2975359 100.5339432  24.2148757  49.3873215
  99.9865627  24.7731233  49.9395514  99.9109840  23.7175632  48.8573933
  13.8592105  67.7576590  26.8720531  13.0242686  67.4174738  27.1935701
  13.6286311  68.2572842  26.0888314  99.9370193  61.0247946  55.4286528
 100.7469463  60.5856419  55.6882620  99.2502213  60.5664158  55.9128237
  87.6621246  42.4282360  50.4307747  87.6622105  41.5425920  50.7939100
  88.5883617  42.6614237  50.3679466  97.7965450  75.5257225  47.4250603
  98.1869507  76.3734674  47.2126007  98.5219955  75.0091124  47.7758551
  89.1845894  62.2231817  56.5496635  88.7524509  63.0231285  56.8489647
  90.0775719  62.2926664  56.8872690 102.0121956  57.4983311  49.0698814
 101.1779690  57.0885324  48.8410282 102.2742271  57.0694399  49.8845100
 100.9632111  60.5379438  26.7660642 100.1489544  60.4982281  27.2676921
 101.5040874  61.1717701  27.2371840  23.7241320  60.7457209  25.0285792
  22.9898982  61.2966251  25.2999330  24.3875556  61.3643217  24.7229099
  94.8451614  17.4815357  49.5036793  94.0842533  17.2710752  48.9624214
  94.6882629  17.0198131  50.3273439   6.0015540  77.1253252  40.0641680
   6.6350608  77.5833368  40.6165504   6.2494426  77.3603153  39.1699862
  68.6335468  41.5796280  23.9246559  68.9763355  42.3051071  24.4465828
  68.1240559  42.0019102  23.2330465  10.7101779  91.2933445  31.2638330
  11.4638572  91.8117619  31.5456939  10.4301028  90.8293343  32.0528078
 116.5535736  65.4133797   6.2807131 116.4445114  64.4909668   6.0494435
 117.3273659  65.4292297   6.8439418 117.4026585  62.4097681  25.3714204
 117.5655651  62.6482153  26.2840176 117.0420837  63.2039356  24.9770641
   5.4395537  75.8056164  44.3095303   5.1253562  76.6705656  44.5729256
   6.0585456  75.9812212  43.6008453 111.3292789  57.5370646  70.0686264
 112.2439003  57.5602341  70.3499937 110.8576393  57.1714687  70.8170462
  11.6988044  71.0212374  34.6312809  11.5496402  71.9424868  34.4184756
  10.9215312  70.5703449  34.3014836 115.7956791  29.7763610  34.4728446
 116.0475254  30.6876278  34.6224999 116.6237450  29.2962050  34.4711590
   6.6215186  61.0909033  18.5022569   6.8764167  61.8902588  18.9630091
   6.7989592  61.2787676  17.5805974  17.5719600  73.5858250  24.0720725
  17.4298816  72.6524687  23.9143109  16.7874484  73.8717794  24.5400429
  10.8708148  61.3695288  35.0122976  10.5727439  62.1694374  34.5792460
  10.6728892  60.6712866  34.3881845  98.0216026  54.4756222  39.4108415
  97.7827358  53.5508347  39.3480301  98.9037132  54.5207357  39.0419555
 102.2414398  62.8493214  50.3055143 102.6283646  62.2489643  49.6682596
 101.9432068  62.2832680  51.0174656  89.4829464  75.0701809  44.0174198
  90.2937317  74.9352837  43.5268497  88.8119888  74.6278143  43.4974718
   2.3271899  46.8014956  43.5559082   2.3176627  47.7502728  43.6822414
   3.2377200  46.5974092  43.3425426 102.9514790  73.8183689  27.3165846
 103.7155151  73.4787989  26.8505692 102.3132610  73.1058598  27.2813654
  89.6729183  55.1315165  58.7013865  89.4903564  55.7846689  58.0258894
  88.8839912  55.1204824  59.2433310  77.8705454  88.9372635  42.1696186
  76.9434118  88.9669800  42.4057722  78.1737232  89.8389721  42.2756243
 114.8977089  88.2210541  38.2209659 113.9493561  88.0912399  38.2175970
 115.1618576  88.0809784  37.3116612   0.1119761  61.8476820  63.0894709
   0.1271109  60.8910179  63.0612564   0.6660990  62.1176910  62.3571682
 116.5845776  24.7770429  19.2817760 115.9272003  24.1454458  18.9899325
 117.4097824  24.2926264  19.2569327  92.5931644  36.5660691  53.3602142
  93.1977177  36.9527960  53.9936113  91.8816376  37.2023702  53.2888794
  94.2385691   0.5301331  90.3608766  94.3463248  -0.4047109  90.5360547
  93.2908362   0.6639002  90.3489843  11.4556937  42.8553104  41.9334316
  11.7321925  42.0098066  42.2868395  11.3530116  42.7004004  40.9944487
  23.9208941  67.8978777  31.7764068  24.1992335  67.0438576  32.1071696
  23.1354670  68.1062651  32.2822762  94.7155094  42.5986910  16.6532016
  94.2985153  41.9550371  17.2259653  94.6430397  42.2215939  15.7764006
  19.7352271  32.1204734  48.2742834  20.0257163  31.2543440  48.5600662
  20.1018672  32.2181773  47.3955011  72.8961897  96.6228294  47.2361708
  73.8073301  96.3517857  47.3483896  72.9408884  97.3739815  46.6445589
 105.0849724  70.4024267  36.3085151 105.3179550  69.5171881  36.0286808
 104.4798088  70.7147694  35.6358671 111.1127663  44.5335007   0.2750850
 111.3293934  44.9808502   1.0931217 110.9953308  43.6175013   0.5268500
   0.5367903  24.3101597  39.5418358   0.3793196  25.2542353  39.5292735
   0.9647612  24.1275740  38.7053347  99.0897655  51.6105175  38.8289261
  99.9077225  51.5219688  38.3397150  98.7246990  50.7258606  38.8472962
 107.5400543  56.3952160   1.3267890 107.2088909  57.2686243   1.5358935
 106.7610359  55.8390522   1.3197039 108.2788277  37.9176235  52.3195314
 107.7276230  37.8631330  51.5388727 108.3598042  38.8559365  52.4905348
  52.4610554   4.1367488  48.6980820  52.3807274   4.5677047  47.8471661
  53.3203732   4.4058757  49.0226889  92.8377628  20.4689717  71.5382004
  93.4018803  21.0377622  71.0142946  93.3712101  20.2370143  72.2983694
  23.3147864  61.7551661  67.7955914  23.4619288  61.8956566  68.7309217
  23.6904673  60.8922625  67.6209879   8.0661540  57.4846172  40.6170988
   7.6692824  58.2954550  40.2988625   8.2814078  56.9955397  39.8229337
  13.0503135  73.3015156   9.6066523  13.7076812  73.1986809  10.2947843
  13.5580783  73.4800529   8.8151109   9.7305255  67.0429707  57.4213362
   8.8386683  67.3671865  57.5466919  10.0725894  66.9337225  58.3086348
  38.1280249  37.5634669  69.7152355  37.6749771  37.1338557  70.4407814
  37.6342123  38.3702467  69.5686152  13.5035472   2.7376580  70.8324957
  13.3133940   3.1051037  71.6956615  13.7517314   3.4932888  70.2998924
  96.4159775  41.4820051  48.0553055  95.9326458  41.4056492  47.2326326
  96.1865711  40.6904793  48.5422277 112.3624229  61.5279341  56.4924431
 113.1821918  61.6482306  56.9717455 112.4489975  62.0925283  55.7243490
  95.0952244  96.6599751  27.9470944  94.5157337  96.4940357  27.2035360
  94.6582317  97.3536205  28.4411907 101.7269039  51.8007612  25.5332112
 101.1172676  52.1839905  26.1638594 102.0189953  50.9880018  25.9459329
  53.0383145  98.1892579  94.9301028  52.2788655  98.7478154  94.7643268
  53.1410729  97.6799243  94.1262042  78.1624651  75.8393335  63.0996275
  78.0044889  76.7127991  62.7414036  79.0471268  75.8855629  63.4622097
  80.3549767  54.7642422  51.5779734  80.5209446  53.9177561  51.1630678
  80.5895138  54.6309137  52.4963665 114.4370461  67.8084183  12.2086513
 115.2801514  68.2474613  12.0961905 114.6065521  66.8983603  11.9651318
 105.1272392  63.2330799  28.6960244 105.6922150  63.7868881  29.2348504
 105.3379822  63.4801817  27.7956009  20.7133250  87.5260353  27.5562000
  21.1850505  88.1650257  27.0219684  20.7453208  86.7169094  27.0457935
 109.7833347  47.2129631  41.7933846 109.7023392  48.1279230  42.0626736
 108.9259911  46.9939137  41.4284086  98.9580441  48.7383461  54.4508886
  98.4694767  48.4741545  53.6713171  98.5876274  49.5882130  54.6891022
 115.9425926  73.0034781   4.7510111 116.1855412  72.1067286   4.5206994
 114.9954224  72.9681921   4.8846725 111.1137676  47.4585867  29.9626470
 111.0661888  47.5731134  30.9117794 111.8542099  46.8667316  29.8296356
  12.4646144  81.9886017  41.9835377  12.4784045  82.1908283  42.9190302
  12.1582465  81.0828590  41.9387770   3.1415038  76.6908169  23.5167956
   3.9085250  76.9942474  23.0311537   3.2058100  75.7360554  23.4938908
  77.0477533 100.4697323  15.0158584  77.9341364 100.2033997  14.7716689
  76.7553329 101.0220814  14.2908514  83.1323624  73.0703163  79.8660898
  82.4388981  72.6982689  79.3211842  83.3214378  73.9193249  79.4665051
  14.4289546  60.7581139  32.5322199  13.9417128  60.3353310  31.8250537
  15.3012042  60.3661633  32.4897599 111.7933464  54.9702930  42.5453424
 111.3982677  55.8421230  42.5375319 112.0788002  54.8285961  41.6427565
  15.8273654  64.9266243  14.4688833  15.6550936  65.8472681  14.6662772
  15.5344825  64.8167562  13.5642397  87.5275040  61.8824148  73.0766487
  86.6050434  61.6274834  73.0941248  87.8411293  61.5882349  72.2214699
 103.6748886  77.1184969  74.6449995 103.0949306  77.3080349  73.9074659
 104.1757774  76.3523436  74.3650866  91.2044907  75.4022026  66.5086699
  91.1758518  74.6778917  65.8835363  90.3113365  75.7463360  66.5175962
  71.5226078  45.5182409  40.8634281  72.1715784  46.2019253  40.6971502
  71.9430256  44.9382591  41.4983320 118.2357025  74.7278690  77.5174093
 117.4181557  75.0350428  77.9092026 118.2462978  73.7868166  77.6921654
  80.0685501  91.6338158  48.7351084  79.9826288  92.3132420  49.4038582
  81.0033989  91.6163063  48.5301924  95.8607483  95.2277565  47.1350908
  96.2880993  95.7549191  46.4600372  96.0173512  94.3223667  46.8668127
 104.1482830  57.3550701  39.8805833 104.7488880  56.9412565  40.5004787
 103.2880592  57.0029354  40.1091290   0.4823165  62.8313255  17.3440135
   1.0159926  63.4834957  17.7979898  -0.3698011  63.2533789  17.2344053
  50.7926213 104.2488235  90.8789131  49.9917447 103.9593595  90.4418352
  50.4859864 104.7133916  91.6576212  83.5950851  68.3922338  65.9009743
  84.3431759  68.2335520  66.4766550  82.9989147  68.9272690  66.4249420
 104.6598339  33.5296297  16.3278532 105.1529694  34.2765522  16.6672051
 103.7720203  33.6569142  16.6622424 110.9477997  41.7294216  82.6465893
 111.4314938  42.5382710  82.4791527 111.5825367  41.1550665  83.0749035
  97.8475380  63.1644821  59.9617529  97.2479343  62.9652691  60.6807947
  97.4128628  62.8153229  59.1836929  93.4368896  90.5071926  25.3768039
  94.3094063  90.5392647  25.7691336  92.8600502  90.8772182  26.0450625
  33.6166148  29.2215872  54.3446112  32.8740554  29.3399811  54.9369144
  33.3027320  28.5994029  53.6884117  22.8050761  75.6140947  28.5570002
  22.2706084  74.8418140  28.3721566  22.1895270  76.2494612  28.9225674
  86.3547039  64.0350342  74.6272469  85.5293846  64.2354536  74.1857672
  86.8438721  63.5100412  73.9937449   2.2762351  56.9517183  66.6314173
   1.6986041  57.7146816  66.6527319   1.6986232  56.2090063  66.8073940
 117.3906612  70.6114483  22.5797510 117.1611977  69.6821785  22.5850987
 118.3068848  70.6335068  22.8559399 109.3986797  84.7445679  42.9826498
 109.4472694  85.0492287  42.0765257 108.5041809  84.4173527  43.0776739
  14.4962649  81.4584827  13.5974240  15.0156073  82.1417046  13.1734872
  13.8931708  81.9352150  14.1677177  -0.1420350  44.1406107  34.8003507
   0.3856330  44.9234819  34.6425486   0.4987578  43.4383488  34.9119234
 114.9393177  38.6911464  65.2135134 114.8380756  38.4117222  66.1234093
 114.1749477  38.3290863  64.7653103 105.4833126  33.0468965  54.0425491
 106.3234615  33.5029149  53.9933157 105.6054211  32.2615814  53.5090685
  -0.1702543  75.7767630  24.7329140   0.7354407  75.5790710  24.4944501
  -0.2576204  75.4542446  25.6298971   6.3197760  67.1317005  49.4827795
   6.1506037  66.6830826  48.6543131   6.4395671  66.4253330  50.1175451
 108.2088184  24.8460174  14.6424675 107.3679066  24.3977332  14.5522559
 108.8374805  24.2641091  14.2153835  96.0499382  18.9248443  53.3059120
  95.3735924  19.5877182  53.4451532  96.0522556  18.7801111  52.3597193
  19.7731547  41.9562197  48.6723185  20.4481940  41.7355299  48.0305672
  19.8275046  41.2594271  49.3263483 108.1209946  57.0726585  50.6979418
 109.0405560  56.9185877  50.9145069 107.6401329  56.7776203  51.4712191
 103.7149733 105.4945756  41.3113451 104.6300238 105.6589682  41.5391636
 103.7299174 104.6559412  40.8501482  82.6740295   9.4137149  68.1995535
  83.0686361   9.5431953  69.0619659  83.2093364   8.7335162  67.7908993
   9.5058493  94.3666267  69.0932369   9.2864852  94.7620773  68.2495975
  10.2615218  94.8660946  69.4026232 102.7762222  41.3311291  31.5817785
 103.0432701  41.6707134  32.4359441 103.0916691  40.4274321  31.5740252
  99.8670483  71.7132902  61.8806791  98.9486980  71.5741539  61.6493845
 100.2687931  70.8485222  61.7969513 111.2465286  69.6112776  43.6394501
 111.9482231  68.9926100  43.4366989 111.4414597  70.3790474  43.1020832
  13.8455348  65.3458214  30.1605511  13.0145125  64.8796415  30.0694084
  14.3166499  65.1564407  29.3491197 116.2293053  52.8045511  66.1665201
 116.4975548  52.8294706  67.0850229 115.5693150  52.1123075  66.1284494
  98.9665413  57.1234417  28.4249496  98.5366154  57.4076653  27.6183438
  98.5529804  57.6444817  29.1132140   1.8965392  88.2727051  38.2403016
   1.6176371  89.1476822  38.5102177   1.1046843  87.7386856  38.3037996
  99.1469669  72.5808001  18.3234322  98.8776302  73.2231522  17.6668692
  98.9603329  73.0028200  19.1620612  14.8593383  29.9323249  59.7184372
  15.1703505  29.4450688  60.4813814  13.9050536  29.8909736  59.7805452
  22.0813041  58.1206083  24.3574762  21.4282565  57.6188803  23.8695908
  22.0206313  59.0057850  23.9982939  22.6800399  57.6183653   5.6108493
  22.7668814  57.7156925   6.5591204  21.7569213  57.4043751   5.4755837
  23.0425505  68.2567310   8.4078085  23.9390712  67.9234695   8.3701348
  22.9233794  68.5209417   9.3200707  17.4693619  93.4363859  93.8579058
  18.3463036  93.8142365  93.7912807  17.3670136  93.2310265  94.7871983
  89.2986298  27.2692418  70.5854225  89.7362709  27.7753806  69.9009275
  88.9985657  27.9258108  71.2139988  84.1358471  17.7646172  20.6499028
  84.5984936  17.2679353  21.3248062  83.2336617  17.8150105  20.9657478
  13.4986739  45.9470892  57.0475578  14.1804271  46.6178036  57.0873976
  12.9902797  46.0744524  57.8485250  99.7427559  98.0613804  58.9748573
 100.5113983  98.1952286  59.5293951  99.9607944  98.5011292  58.1530809
  17.9344229  90.2327633  34.5329690  17.7757411  89.9369526  33.6365581
  17.3648219  89.6829319  35.0709963 100.3638649  63.4115267  46.9832420
 100.4065132  62.5349092  47.3652935  99.5337200  63.7696695  47.2976065
  98.4700394  66.0458946  80.4800415  97.8832150  66.7970657  80.3927708
  98.0048466  65.4448700  81.0619259   6.7634825  86.8360043  21.9660854
   6.2267260  86.3774109  21.3196921   6.4977889  87.7525330  21.8911409
  14.0719561  34.6808100  42.7490473  14.2402224  34.0536141  42.0458126
  14.5525031  34.3329835  43.5002613 107.9302788  66.4444494  14.4943607
 108.5331154  67.1568489  14.7072279 108.1723022  66.1833286  13.6058354
 106.5417004  72.2882462  58.2514286 105.6376934  72.5539112  58.4200287
 106.9109344  72.1303177  59.1203117 111.5478992  32.4994826  31.7707062
 111.5183544  31.6038060  32.1070480 112.3145866  32.5150347  31.1978340
  10.5995707  83.3707905  24.2699957  10.4536872  83.0095387  23.3956695
  10.2241378  84.2504406  24.2313981   9.2535340  82.6887220  92.8156411
   9.5696007  82.2682756  92.0159152   9.8152577  83.4566324  92.9205945
 115.0060272  77.2716427  25.7359743 114.3113327  76.6272879  25.6001878
 115.1170731  77.3075151  26.6860366  86.1434174  90.8650780  35.8481145
  85.6153488  91.2948418  35.1752996  86.9468307  91.3837624  35.8896184
 113.2415104  69.5294333  37.6772976 112.8571320  70.3998232  37.7817416
 112.5015163  68.9665413  37.4497342 104.8641396  42.8128767  22.8311920
 105.3486729  41.9901800  22.8992605 104.5151234  42.9587460  23.7104797
 106.6859150  39.0848756  66.3442993 107.5081635  39.0423942  65.8561087
 106.0058880  39.0512681  65.6714916   4.5614581  67.5969982  30.9786582
   4.6996074  66.8236446  30.4317784   5.0961165  68.2778168  30.5701733
  96.5148640  48.1836319  49.1071510  97.2392464  48.7662649  49.3352890
  96.6836548  47.9362822  48.1979990  93.2773685  60.7428551  42.3167276
  93.5734844  61.3019943  41.5984583  94.0449905  60.2180815  42.5438643
  97.2196007  72.7194452  49.5891714  97.9714966  72.1518660  49.7586870
  97.2250843  73.3466005  50.3122759  71.2541437  45.1851273  29.3192601
  71.4257288  44.4347048  28.7503505  71.3014221  45.9431314  28.7366557
 113.6991978  75.7929087  48.8080883 114.3694973  76.4759398  48.8278580
 113.3353138  75.7887363  49.6934128  66.8674803  88.4164810   0.3924128
  67.3045492  88.8362980   1.1333296  67.1454430  88.9252377  -0.3692550
  84.4666290  65.8115435  42.1979094  84.4694805  65.3353930  43.0282736
  83.7178707  65.4549932  41.7199278 101.9397163  67.5053501  72.8117228
 102.6406765  67.1404314  72.2716141 101.1475182  67.3878670  72.2874546
  99.0260696  65.9350157  41.1596870  98.9751339  66.8318272  41.4903927
  99.1270447  65.3958464  41.9441128 100.3806210  22.2108173  29.4795227
  99.7358513  22.0774388  30.1742935 100.3079033  21.4290571  28.9319849
 111.9768715  54.8237133  32.7595282 112.6923656  54.3190193  32.3727822
 112.4118710  55.5387497  33.2239914 106.8504065  24.8081778  95.1352513
 107.2069758  24.1554402  95.7377625 105.9443301  24.9272822  95.4199877
 109.3913651  75.0164795  25.0585032 109.1940498  75.9329796  24.8653007
 109.3697548  74.9630976  26.0139704  35.4372935  52.1119881  42.9891205
  35.4282622  51.7513704  42.1024990  34.8861556  52.8927755  42.9357433
  99.7613907  57.1426058  54.5533514  99.5651436  57.8801012  55.1311207
 100.3409576  56.5819359  55.0690746  17.7608256  50.2461767  35.1570249
  17.9577594  50.4475021  36.0718560  16.8574958  50.5389023  35.0364614
  76.7703169   4.0777920  84.3676236  76.7355650   3.2254599  84.8018482
  76.6581553   4.7120713  85.0756815 114.2163849  55.0506449  44.2529297
 114.9954987  55.1820993  43.7126207 113.4839821  55.2486086  43.6692953
   3.3230452  65.4176569   5.8843905   3.3611541  64.4778299   5.7068783
   3.6895613  65.5103636   6.7637652  96.3432217  76.3088703  20.7386875
  96.3355446  75.4071093  20.4177523  95.8081245  76.7918110  20.1088715
   6.3879065  26.9976091  57.3345757   7.2307067  27.3304939  57.0261717
   6.5513186  26.7341781  58.2401848  99.4597435  54.9732351   0.8180168
  99.5611191  54.2200470   0.2360697  99.3691158  55.7213974   0.2278712
 106.2446213  58.2872248  34.4009995 105.7734680  58.5079670  35.2044439
 106.3020229  57.3318100  34.4118094  92.4866867  36.1460447  74.5376682
  91.9324398  36.1241698  75.3177691  92.2597599  36.9695067  74.1056442
  10.1780371  48.6433792  63.4660959   9.4375949  49.1536474  63.1380558
  10.9495978  49.1473341  63.2073498 114.1948223  85.1387405  12.8054762
 113.7359905  85.7440567  12.2229874 113.7889767  84.2886829  12.6353967
 113.4474945  72.2975254  36.9555402 113.9229584  72.2151947  37.7822113
 114.0978050  72.6309967  36.3373852  29.2402415  74.1428757   7.3165125
  28.4105925  73.6689138   7.3737872  29.0078692  74.9864531   6.9284236
 111.0273647  61.9640732  26.9448709 110.6422997  61.1890984  26.5357661
 111.9714355  61.8105555  26.9074655  82.3409653  59.3733311   4.2207584
  82.1434021  59.0966845   3.3259574  82.7536774  58.6086702   4.6222576
  92.9282665  70.5522346  24.2380214  93.8810539  70.6360579  24.2755628
  92.6009846  71.3595772  24.6346569  55.0326686  80.8402061   8.3639115
  55.6295924  81.2476826   7.7363122  54.8430400  79.9796486   7.9901218
  97.6389503  91.8240547  50.6382418  97.3999977  91.8391323  51.5650129
  96.8110085  91.9522762  50.1753139 104.3196964  83.6435795  41.0814381
 104.5706940  82.8095531  41.4784575 103.5711670  83.9397335  41.5993547
  14.6918635  63.7634087   7.6631504  14.3573527  64.6561718   7.5776982
  13.9186244  63.2360888   7.8637975  71.3993692  96.9971752  31.1625147
  71.8722010  96.7099571  30.3813839  72.0264816  96.8848896  31.8769050
 114.2138863  77.4276495  35.0580263 113.8555813  76.6646624  34.6044827
 113.7458801  78.1723738  34.6804070 115.5266493  55.2636622  95.6360320
 116.0481756  55.4966830  94.8679520 115.3106135  54.3400477  95.5076171
  67.2326088  74.5095444  25.6986809  67.7348375  74.8247147  26.4501238
  66.4976072  74.0330791  26.0846639   2.8738265  51.8595266  40.8253765
   3.6105399  52.3905611  41.1278534   2.1822219  52.4941301  40.6377935
  23.6119132  66.7830515  29.4403648  22.6678805  66.6391563  29.3745089
  23.7204699  67.2982693  30.2397370  22.2186045 105.9604836  31.2082005
  22.7372699 105.3616905  30.6709218  21.8769889 105.4130650  31.9152141
  85.5711079  74.7913551  73.9595795  85.2001762  74.4555140  73.1435776
  85.8360195  75.6872940  73.7513685 101.8865490  68.6601448  24.6635461
 102.6482677  69.2389679  24.6947622 101.9681740  68.2017469  23.8272190
 102.1461201  67.3236275  38.2878971 102.2836304  68.2694674  38.3399534
 101.8383312  67.1751976  37.3937702  19.5557837  68.5271168  67.8652477
  19.0507083  68.4632778  67.0546532  20.4574446  68.6656570  67.5753546
  95.9297562  83.2765579  35.1983309  95.1050758  82.8382111  34.9886036
  96.5765285  82.5713348  35.2222300  22.5049071  70.4980564  35.4896998
  21.9450717  70.1321268  36.1744642  21.9259410  70.5956936  34.7337270
  80.4342651  68.1618452  10.9793591  80.9740925  68.0705214  10.1942003
  80.2585793  67.2622395  11.2551916   8.2750659  93.6604881  60.8860970
   8.2566314  93.1111908  61.6697836   8.5821490  94.5119095  61.1975527
 113.6299992  90.3978443  17.0615816 114.1365910  89.6893501  17.4586141
 114.2714119  91.0899067  16.9007206  94.2967892  72.5883579  36.4406824
  94.8216152  71.9768381  36.9572473  94.8536205  73.3611441  36.3459778
  89.8604965  86.2223434   2.8222939  89.7064114  86.4322281   3.7434003
  89.8021889  87.0648193   2.3716718 107.7257442  93.6197281  58.4220600
 108.2340908  94.3451595  58.0593538 108.3267879  93.1849766  59.0270042
  65.0469160  64.8306751  10.4556715  65.1201153  65.6954575  10.0519013
  64.4541979  64.3470907   9.8802948  20.9899937   5.6468921  50.6276608
  21.1680447   5.0879912  49.8712492  21.2579571   6.5219836  50.3472328
 112.5553417  66.1329794  30.1424241 113.0382538  65.3136253  30.2505279
 112.3348331  66.4005327  31.0346222 112.5202370  52.2353220  79.4604588
 112.5517750  51.4209747  79.9625301 113.1293583  52.8191423  79.9125195
 109.6618652  97.9407406  52.5240517 109.2172050  97.3587227  53.1403017
 109.0264225  98.6348820  52.3490953 114.1550064  28.1136608   5.2567482
 114.0616035  27.6437974   4.4280520 114.8418427  27.6391292   5.7250440
 113.7201309  51.5979004  63.9392185 114.5582867  51.3143015  64.3043137
 113.9576244  52.1963978  63.2309628 105.4116344  80.1457787   2.6464310
 105.1177406  79.5271969   1.9776890 104.7847843  80.8674908   2.5971645
 100.1110363  43.0053759  27.0979667 100.8519077  42.4731302  26.8080330
  99.5670700  42.4027157  27.6050520  96.2009907  99.9196434  37.4283600
  95.9978676  99.4630814  38.2447720  96.2644005 100.8413315  37.6787543
  95.6115532  52.0648766  53.3083963  94.7196770  52.3628092  53.4873247
  95.5848026  51.7599726  52.4014473   0.9231047  39.1247749  16.6449749
   0.5706839  38.6795044  15.8744109   1.0640197  40.0266552  16.3568997
  45.8277148  26.7173003  96.5383553  46.3966673  26.8478678  95.7797596
  46.0315913  27.4499796  97.1195976 113.7055588  64.1641569  26.6361856
 114.6183395  64.3803978  26.8267393 113.6451244  63.2216787  26.7921042
 110.3676701  76.0737610  33.1575608 109.4946194  76.2947798  33.4818697
 110.8459949  76.9027281  33.1733489 116.6387081  54.5868015  21.6541624
 116.2545776  53.7246895  21.4946389 117.4854374  54.5578861  21.2086964
  15.3693251 100.0933552  23.6702752  15.6064944  99.2573166  24.0715551
  14.6918349 100.4508686  24.2442274 104.8515511  36.5289712  32.7574611
 105.6033802  37.0549083  33.0301905 105.2297688  35.6916976  32.4888420
 101.9603443  61.9826794  24.5785856 101.3877010  61.6513062  25.2703214
 102.8257656  62.0276117  24.9851084  69.8298883  84.5451260  30.7684302
  69.3307686  84.3498993  31.5615225  69.9229717  83.6994553  30.3297710
  13.4279399  84.2393589  23.1475139  13.5765986  84.1575909  24.0895581
  14.3060069  84.2513371  22.7666211   8.5393958  92.8474426  29.2570829
   8.7330394  91.9218063  29.4051433   9.1988330  93.1318569  28.6242485
  14.9898200  62.9785156  33.9398527  14.5980315  62.2846651  33.4094644
  14.3752150  63.1031799  34.6630073  45.4708308  30.3765772  95.1482680
  45.5363386  29.9812601  94.2789802  44.7566145  29.9022578  95.5738817
   4.7495513  62.6725245  41.1162615   4.0686278  62.3628616  40.5190277
   5.5702643  62.4013567  40.7050133   2.5697093 105.4001713  47.1213055
   3.1270938 106.1625099  47.2774935   2.0269923 105.3352547  47.9071045
  24.1443972  60.5748940  70.8492088  23.9491515  59.7402382  70.4232264
  23.6151461  60.5663395  71.6467381 109.7550583  79.6193647  16.3516486
 110.0945759  78.9790440  15.7263911 110.4966450  80.1982784  16.5281379
 116.5895462  70.4563761  50.8764505 116.6714954  71.4097023  50.8502054
 115.6573391  70.3001785  51.0274887  17.3216014  58.7473726   9.4545680
  18.1831412  59.1061401   9.2417866  17.2390132  57.9749727   8.8952738
  17.0043425  90.0512886  18.1898522  17.2284083  89.3498135  18.8013732
  17.8165011  90.5471325  18.0861413  95.3747940  66.4609194  24.9017310
  94.6507549  66.7967844  24.3733358  96.1403179  66.9473791  24.5958543
   0.6031756  60.1445913  34.5582056   1.3188033  60.5024433  35.0836039
   0.5231814  59.2362928  34.8494554  15.5835204  70.6401253  36.5246630
  14.7797732  70.9303665  36.0933995  16.1671595  70.3980589  35.8056331
  12.8286795  68.7829971   7.6917183  12.7839427  69.1117048   8.5895944
  12.9514651  69.5664597   7.1556759  28.0407958  87.3856163   2.9685885
  27.2528319  87.5904942   3.4719557  28.5457473  86.8063831   3.5393295
 107.3062611 108.7810612  20.1565194 107.7876282 109.0918446  19.3897545
 107.9713631 108.3635330  20.7038283 109.9475288  82.1151352  28.7468958
 110.6041908  82.6364899  28.2851434 109.6790886  82.6652622  29.4827843
 117.8153610  91.9162560  22.0605230 117.1567249  91.5181923  21.4913416
 117.5097656  91.7287922  22.9480457  94.7609711  63.2426929  22.1623158
  94.8918629  62.3335886  21.8928266  95.5088329  63.4348631  22.7280045
   3.3487181  63.5160065  54.6375561   2.5676780  63.4432888  54.0889931
   3.7651877  64.3300772  54.3545961   3.0125670  59.9849415  36.3668013
   3.8337474  59.4940948  36.3980651   2.3805289  59.4231892  36.8153405
 102.9580116  67.5032425  49.2422295 102.7600479  66.6002798  48.9938354
 103.2674122  67.9117155  48.4337425 103.9442158  64.5560503  40.2689981
 103.0154896  64.6804285  40.0734568 104.3699360  65.3376007  39.9166155
 113.1245041  71.9798517  84.4629383 112.6972675  71.5952730  83.6975574
 113.8739109  71.4086151  84.6311951  18.1829791  64.4429779  44.2952299
  17.6899676  63.7372541  44.7137117  19.0724330  64.0986109  44.2145205
  47.5958191 107.9753154  89.6146092  48.2921158 108.1689304  90.2422395
  47.3486840 107.0699208  89.8028043 101.7209148  94.1240406   3.8653260
 102.2453690  94.8525333   4.1976994 102.1347618  93.3434105   4.2335415
  11.8129782  68.4022522  54.1407490  12.5539546  67.9314995  54.5222998
  12.1055465  68.6357307  53.2597733  91.1701870  68.3218384  38.0247068
  90.2374458  68.4385252  37.8441477  91.3421822  68.8917589  38.7742639
   1.0468249  83.9112949  55.5030394   1.1589961  83.3483791  56.2690496
   1.7202525  84.5846081  55.5999327  82.5360107  91.4807320  21.2488031
  82.8257275  90.7074833  20.7646775  82.6695919  92.2079086  20.6408548
  15.3047995  56.7222691  35.2071691  15.8680205  55.9817457  34.9821472
  14.9208693  56.4834833  36.0508537 114.0009499  74.6620131  44.0758562
 114.2597008  75.5107403  44.4349384 113.1024837  74.5366049  44.3812323
  83.4373093  75.6111860  58.8337660  83.9286804  76.3951063  58.5882998
  83.9426136  74.8865843  58.4651899 101.6291332  88.4184265  26.2461710
 101.7722321  89.3310738  25.9954953 100.7278442  88.3968830  26.5678096
  20.3285460  59.8445272  53.9132833  19.5026641  59.3688774  54.0022230
  20.8914428  59.2552471  53.4111643 115.5851173  65.9234715   1.0132585
 115.4841709  65.5737257   0.1279789 115.7139111  66.8634176   0.8862016
   9.7305636 101.2256908  14.6955657  10.1818709 100.3816509  14.6837091
  10.1184134 101.7148876  13.9699662   6.3894419  61.9741058  35.8572698
   6.3723426  62.9151297  36.0316634   5.7581668  61.8503571  35.1484680
  22.7234893  83.9916039  36.5001202  22.2364383  83.3773422  37.0493960
  22.9406123  83.4899998  35.7143164  84.4660586  24.9413966  84.9101665
  83.7001723  25.1840018  84.3898025  85.0797098  24.5718478  84.2752614
 105.8482265  87.1222401  69.2031860 106.6244793  86.7295933  69.6025467
 106.1888885  87.8486919  68.6812067  35.7554011  84.0517807  79.7877932
  36.6157775  83.6501026  79.9087906  35.2045588  83.6439323  80.4559708
 107.3316288  75.4096222  21.4128947 107.9674339  76.1135626  21.5411496
 106.9067097  75.6192684  20.5811954  26.9293265  95.4009819  38.8447690
  26.3989882  95.1099968  38.1029463  26.9608836  96.3536739  38.7575531
  22.2798018  73.0390072  30.5449605  22.4767737  72.4870682  31.3017941
  23.1213050  73.1469631  30.1017475   7.8148989  59.3847132  35.3054976
   7.7440314  59.4933319  36.2538695   7.9084258  60.2758026  34.9686885
   9.8805861  55.8529568  54.6985197  10.7059245  56.1702013  54.3318939
   9.4498114  55.4077291  53.9688349 100.2330589  68.0590057  53.2444429
  99.3704414  68.4730291  53.2709312 100.7485580  68.6166000  52.6617098
 115.4818249  64.3069696  42.0062876 115.9580517  63.6939526  41.4462423
 115.4218578  65.1088095  41.4869738  17.0379691  55.8028460  29.4973826
  17.3798613  55.2579641  28.7885523  16.7880969  56.6222811  29.0703917
 114.9816132  28.4587932  39.7701097 114.3741512  28.4938312  40.5090237
 115.5041504  27.6722407  39.9267149 112.3337078  74.8582935  67.7390003
 112.0359230  74.3053627  67.0166254 111.5295982  75.1201439  68.1874180
  42.9058223  80.0773048   4.7671449  42.9463725  79.2038584   4.3776706
  43.5650782  80.5825233   4.2913896  86.4060593  64.9586821  24.0767598
  85.8815002  64.3098021  23.6076975  85.7634544  65.5637789  24.4470930
   3.7458377  72.8371477  37.8615737   3.3964972  71.9837761  37.6047635
   4.6740012  72.6750708  38.0302906 102.0815945  94.3037987  65.8583212
 102.0788097  95.1938057  66.2106037 101.6361713  94.3788433  65.0144005
  17.1377711  96.6788673  41.0858250  17.4781756  96.4222050  41.9428396
  16.4882617  96.0079765  40.8753824  99.3069839  69.9380732  59.5813751
  98.4136677  70.2643633  59.6898174  99.2901707  69.4661140  58.7487888
   3.2530360  51.5416288  17.1593428   2.3545317  51.8653440  17.2236109
   3.1881671  50.6108952  17.3732710  21.8285214   2.2851329  79.5753813
  22.0516812   1.8971114  78.7292910  22.0593773   3.2095008  79.4833088
  22.1779208  84.4912434  31.8889093  22.0764785  84.3145752  30.9536386
  22.0051055  85.4287052  31.9756961   6.9693332  89.3282318  11.8048811
   7.7042537  89.9014854  12.0228624   7.3789172  88.5095310  11.5252590
  97.4607468  82.2210312  21.4166379  96.8633938  82.5864220  22.0692444
  97.6328087  82.9466629  20.8165598  34.8838763  90.3406906  51.7654181
  34.8820548  91.2643528  51.5142679  35.8110480  90.1091194  51.8199062
 114.5607376  59.4939089  74.2084599 114.8880100  59.4780636  75.1078320
 115.2551842  59.9227476  73.7083912   8.5482936  88.4286499  31.0426259
   8.6438422  88.9348221  31.8494034   8.8446002  89.0211010  30.3516603
 114.9836349  87.3331165  43.0209589 115.4591370  87.5395203  42.2162628
 115.5940628  86.7994404  43.5296774   7.0587973  96.1576557  55.4384041
   6.4925818  95.4659176  55.7806444   7.6674418  96.3445091  56.1531544
  78.2419586  85.0409698  17.0043409  78.7715101  84.6024704  17.6703250
  77.4732733  84.4798470  16.9018614 109.5455551  67.5508451  48.9965725
 110.4865074  67.4128723  49.1052341 109.4798946  68.2685041  48.3665848
  37.8252095 110.2113917  23.1136584  37.8061121 110.8806654  23.7977195
  38.6189144 109.7075343  23.2936335   6.4456147 109.6413700  35.1174498
   5.9459608 110.4426223  35.2742100   6.3454216 109.1350478  35.9235716
  41.2557047  74.7145195  11.8067670  42.0043772  75.2851767  11.6333783
  41.6152590  74.0013595  12.3343623  35.3810137 105.3700353  64.7218370
  34.4578093 105.5355228  64.5307016  35.6795996 106.1635573  65.1661348
  29.6327227 109.2302104  28.7560177  29.3442410 109.6750514  27.9590678
  29.6641272 109.9209793  29.4178963  67.7821970  11.7885959   6.6980332
  66.9424868  11.5182686   6.3264930  68.4173727  11.6202796   6.0020059
 112.0715536  96.7058046   0.6138074 111.6605581  96.3869686  -0.1897203
 112.9883445  96.8435068   0.3755560  40.7169741 110.9971787  21.7612267
  40.4591912 111.6359311  22.4258876  39.8890322 110.6562824  21.4227986
  89.3422985   8.0883068  24.8031211  88.8146591   7.5062042  24.2563200
  88.7914562   8.2650989  25.5657196   9.9218308  28.6247461  94.2742671
   9.2018353  28.9805167  94.7950911  10.3507268  27.9969805  94.8558110
  56.4102125  13.3909595   7.3792225  56.4609957  12.5919652   7.9038763
  56.5658951  14.0985525   8.0047679  24.8059689  51.3464221  87.5584677
  25.6253087  51.2681919  88.0471292  24.8228871  50.6130713  86.9435349
   4.3703496  74.8821383  95.3022067   3.7820851  74.1511231  95.4913861
   5.2259099  74.4733637  95.1711899  97.2076511   3.1051436  -0.0705166
  98.0298328   2.6214883   0.0089811  96.5285587   2.4532670   0.1030353
  93.9976883  11.0771632  12.4543166  93.8112259  11.9481349  12.8048491
  94.9532986  11.0300756  12.4256015  19.5244044 110.6974925  30.2254915
  20.2743834 110.6586504  29.6319866  19.7913950 110.1771064  30.9832168
 104.6630985  78.2171601  94.0309530 104.1702205  78.7573474  93.4132933
 104.0003425  77.6701921  94.4526312   3.0584006  38.8946748  48.3394432
   3.6425452  38.6854601  47.6105881   3.2306056  39.8173547  48.5271645
  99.1585445  31.1837506  21.4732575 100.0683880  30.8880329  21.4421964
  99.1342068  31.8079543  22.1985245  19.6216934 101.5410997  21.5063739
  18.9153498 101.0170932  21.1285830  20.4226034 101.1532528  21.1537385
  18.1882512  58.1079146  84.0042022  19.0962826  58.4062194  83.9520112
  17.6678692  58.8967588  83.8520065  75.1420611 104.0892596  40.1596117
  74.9569624 103.1533654  40.2375221  75.6680315 104.1639126  39.3633580
 114.1323280   3.0147481  46.7895699 115.0638103   2.8617391  46.9481850
 113.8602352   2.2827953  46.2359953 102.0072842   4.6526477  18.6530638
 102.3084831   5.5423993  18.8370645 102.7020645   4.0893045  18.9938927
 100.0241280   6.4113021   6.0801548  99.3888092   5.6971109   6.0298145
  99.5681953   7.1643817   5.7043535  53.8133543 106.0714455  26.1299562
  54.7400397 106.0458852  26.3683271  53.3615988 106.2824858  26.9470334
  41.2482184  87.8042073   9.1148376  40.9682101  88.5303993   8.5576391
  40.4724997  87.2487755   9.1922241  38.2533615 108.6215807  29.5515823
  38.7117832 108.9328484  28.7710738  38.9512842 108.4206019  30.1750779
  23.4650582   2.2621392  93.8355955  24.3826073   2.0097397  93.9387134
  22.9715126   1.5073536  94.1564445   2.8619736 110.2259384  40.7452822
   2.9827278 109.3738810  41.1643839   3.7390679 110.6086552  40.7236242
  75.2608412 106.7306034  10.7121038  75.3856200 106.0504348  10.0502622
  75.8611315 106.4908401  11.4180756  56.1152571 105.3586895   5.8663315
  55.9861773 104.4102473   5.8716661  56.9982832 105.4821993   6.2145180
  64.2245215  95.7748206  19.4666159  64.3566530  95.3797061  20.3283906
  63.5491102  96.4381380  19.6082652  83.6049461   9.0904117  29.2092657
  83.8226891   8.6948872  30.0532913  84.4439697   9.3958431  28.8643193
  16.0414284  98.4788437  18.7379062  15.0846403  98.4519584  18.7462258
  16.2878435  97.9932506  17.9506886  42.2185820 109.4938497  20.2364206
  41.4759939 109.9962140  20.5717254  42.9506415 109.7430928  20.8005118
  72.2635794  20.6083775  30.6857562  72.8779411  21.1974263  31.1237240
  72.8201056  20.0030756  30.1957345  45.0430315  78.4146852  20.6110024
  44.3054217  77.9369993  20.2315640  44.6475523  79.1920681  21.0053420
   5.8604293  22.2245145  27.7286839   5.8553653  21.6544914  28.4976315
   4.9453311  22.2589827  27.4500561  74.2730761  32.8926849  20.4061842
  73.8381243  33.7109280  20.1663399  74.7035694  33.0854797  21.2390947
  51.2421530 105.5398716  19.3120956  51.2389773 105.9696127  18.4567928
  51.7496699 106.1264456  19.8729801  59.3209028  20.7548809  49.5457125
  59.7195959  19.9294746  49.8213530  59.3895721  20.7469893  48.5910130
  66.7371178  28.2640076  13.5389650  67.6160479  28.1564116  13.1754553
  66.2556791  28.7423825  12.8639793   9.4245945  87.3047321  95.2845837
   9.0583073  87.1083921  94.4223103  10.3704392  87.3374646  95.1412237
   7.5497584  58.2075977  24.1938710   6.7353682  58.3564329  24.6743464
   7.2718291  58.0698061  23.2883286  95.4799175  21.9830489  19.3331492
  95.0289631  21.5902448  18.5857725  94.7926235  22.1121764  19.9867439
  36.6756951  87.9477709  95.1769414  36.4240967  87.3388379  94.4825859
  36.2845456  87.5814813  95.9700789 104.0390968   7.0882624  41.8796968
 103.1998920   7.2165269  42.3218679 103.8046932   6.8998939  40.9709597
  91.8157322  69.7820180  80.6961980  91.4427549  70.3875809  80.0555637
  91.6519624  70.1979750  81.5425971  28.0772131  84.9031801  13.8119388
  27.1323317  84.9970622  13.9328396  28.1657713  84.3688435  13.0227149
 108.8161278  15.6593859  33.3398795 109.7259617  15.5490208  33.6160350
 108.3918858  16.0925770  34.0805483  65.2592611  15.6845403  53.1904507
  65.5109739  14.8314476  53.5441542  65.6571531  15.7098782  52.3202324
  59.1018503  92.2689624   1.8826453  59.0129011  91.4266271   1.4367852
  58.3329790  92.3218448   2.4503362  32.9227465 107.7854915  14.6167934
  33.4354180 108.1603215  13.9006221  33.3014792 108.1680752  15.4082632
  81.0979462   9.0450609   2.9386860  82.0256329   9.2492378   3.0567318
  80.7835197   8.8415486   3.8195658  64.2530060   9.4268823   4.8733127
  65.1393938   9.5120817   4.5221907  64.1072845   8.4824932   4.9292246
  25.9136408  80.4979415   5.3005785  26.7237347  80.6659384   5.7819921
  26.0057991  79.5997805   4.9827030  61.4843577  83.9891167  27.3548055
  60.9965723  84.6874113  26.9181299  60.9337252  83.2127495  27.2533965
  79.0183562 104.0302862  25.5921340  78.4734743 103.3028371  25.8923888
  79.5808905 103.6464507  24.9194860  85.8924484   6.7414415  28.7012386
  85.1228237   6.4210260  29.1716051  86.4444160   5.9674132  28.5897040
  17.9816836  92.8947563  30.8182740  18.3981722  93.3689470  30.0986123
  18.1065434  93.4593255  31.5810990 116.9830669 106.7626004   2.6280820
 116.4778412 106.4552070   1.8754262 117.7197255 106.1542148   2.6866707
  57.7260130  94.1023857   7.7142000  57.7168387  94.1620333   8.6694962
  58.3122080  94.8060579   7.4359024 101.1608315  51.8763351   9.9999052
 101.4631557  50.9697151   9.9462599 101.1789799  52.1887875   9.0953189
 116.3448459  56.8146543  53.8630226 116.2504274  57.7486725  53.6761358
 116.8901235  56.7815921  54.6490314  26.3420456 104.6535767   6.8581402
  27.2329205 104.6992005   6.5110135  26.1662548 105.5364604   7.1834797
  37.2186058  98.4850509  21.4191008  36.2952250  98.7135382  21.3123655
  37.4267166  97.9612799  20.6454182  64.2024153  93.4592373   2.9969734
  64.0318125  92.5379057   3.1926146  63.4294432  93.7482126   2.5119588
  91.5157700  11.0748672  35.6833839  92.4538422  10.9875870  35.8526182
  91.3849163  12.0117426  35.5371904  32.2175824  67.6837342  87.8366026
  31.7376935  68.4183996  88.2189748  33.1331955  67.8551572  88.0567965
   9.5804535  70.6110137  79.6017828   9.2450272  71.1313694  80.3318170
   9.9520623  71.2552934  78.9992490   3.8055472  25.2660418  21.1236620
   3.7690120  25.2365136  20.1676154   3.6549716  26.1860466  21.3408017
  54.7399729 109.9295017  29.3721223  54.3449038 110.8013594  29.3675828
  55.6754320 110.0910693  29.4947314  97.4699593  13.7230325  32.4661446
  96.6806316  13.4181309  32.0186758  97.1459675  14.3057406  33.1529570
  48.4409189  10.1175189  27.1840000  47.7962732   9.8922890  27.8547692
  48.6390829  11.0404611  27.3425603 116.8135244  80.0973695  72.2825506
 116.7915756  79.2078250  71.9297579 115.9958107  80.4942792  71.9824841
  10.4201733  69.2129653  83.5903743  11.0024201  68.5078579  83.8732996
  10.0079190  68.8781505  82.7940205  54.6551323  25.5088854  15.3072393
  53.9250469  24.9436045  15.0549304  54.2780161  26.3881540  15.3371954
  29.5589100  43.0844753  88.8585690  30.4369675  43.4141463  88.6673257
  29.1395031  43.7909942  89.3496457 115.5659164  95.4295678  17.6380408
 115.5192102  94.7511322  18.3116698 116.1758102  95.0802917  16.9882214
  55.1799219  84.7762675  15.6627727  55.2185457  84.9615164  16.6010809
  55.9970492  85.1328702  15.3143954   2.9912602  51.0925742  91.8703052
   3.6408078  50.3911447  91.8221485   3.3582531  51.7960303  91.3348642
  16.5591830 107.7283500  26.3524103  16.9250649 106.9132478  26.6958809
  15.6132191 107.6309375  26.4614439   5.3358702  48.0519056  25.4152775
   5.5882888  48.8855791  25.8121419   4.4089179  48.1591082  25.2019691
  94.3945026  28.5932446  28.6153603  94.0242481  29.1842389  27.9597163
  95.1699448  29.0511036  28.9398408  69.4309521   6.5450436  13.0959392
  68.9116812   6.2540525  13.8455474  68.9189577   6.2790495  12.3321712
  59.9677801   3.9031544  60.5095768  59.0205622   4.0070081  60.6002617
  60.1811314   4.3545976  59.6929264  94.8684025  31.8219161  38.8357377
  95.4453182  31.2313890  38.3513069  93.9846039  31.5301013  38.6121917
  97.8980732  16.2383449  26.3714361  97.9381180  15.8077455  25.5174971
  98.1502247  15.5573964  26.9951034  20.4594266 108.8295692  90.9462264
  19.5141255 108.6802762  90.9277674  20.8359658 107.9624694  91.0965237
  94.8956776  15.3427887  54.8947430  95.5567074  15.6003249  54.2521334
  94.6112823  14.4740403  54.6107960  72.9297590  16.5785217  13.5025585
  72.8049564  15.7517588  13.0366004  73.4437180  17.1172571  12.9010224
   7.4525599  35.4167581  26.8644142   7.6178031  34.5710301  27.2811484
   7.5945239  36.0584807  27.5603080  59.5948809  94.3430598  29.4099045
  60.1937979  95.0684054  29.5871139  58.8950651  94.4473119  30.0545979
  80.0843811   4.4863567  23.0214572  79.5369291   4.9622020  23.6460376
  80.9704685   4.5582518  23.3762884  85.0223190  82.1005409  89.1934267
  85.4597170  82.5254601  88.4556183  84.7319633  81.2570923  88.8462671
  89.3284798   2.1589471  22.9015994  89.9744511   1.6796972  23.4205103
  88.6872864   2.4666992  23.5422206  71.5551949  30.6882954  40.9453964
  71.4511681  31.4953899  41.4493895  72.0739985  30.1172924  41.5119934
  83.9285851   2.4120922  35.5501795  83.7560463   2.0054206  36.3993430
  84.8580647   2.2482871  35.3906083   3.7764233  97.7046950   2.3495282
   4.6138876  97.4581809   1.9569539   3.2023352  96.9583316   2.1775049
  58.9560366  27.0336175  30.0375080  59.1188145  27.9750824  30.0956631
  58.7747908  26.8787026  29.1104794  16.2623709 101.4516051  35.3619337
  16.4699477 101.9678457  34.5830631  16.2668579 100.5445332  35.0562668
  43.6088484  76.6745586  17.8253162  42.9362314  76.8241925  18.4897149
  44.0090864  77.5337763  17.6919293  41.7771166 101.9867660   5.6477445
  41.0887640 101.9659574   4.9829307  42.0495146 101.0737045   5.7391363
  79.4720459  27.3851228  80.9376431  80.2715397  26.9146967  80.7015514
  78.9379501  27.3632789  80.1436138  55.8271902 107.8357301  50.1868248
  56.2877863 108.3044578  49.4908571  56.4591902 107.1876971  50.4980564
  93.7908268  65.0809669  37.0805454  93.4326935  65.1028109  37.9679537
  94.4422817  64.3799925  37.1023679  23.9386433  90.4168863  27.2208548
  23.7021082  91.2733335  27.5769162  24.8707693  90.4916210  27.0164371
  95.2357578  15.7595634  59.3502331  96.1340046  15.9328127  59.0685081
  95.0434113  14.8847282  59.0127420  38.0401629 106.4914681  10.5735600
  37.3361176 106.6046829  11.2120974  38.1504601 107.3581354  10.1824665
 115.2664661  16.6366279  30.7173872 115.9670734  17.1472573  31.1231446
 114.6774769  17.2923720  30.3441286  79.4577837  28.0662704  54.9706745
  79.8669481  28.9315271  54.9829483  79.4073486  27.8383279  54.0423822
 103.6361122  65.5827427  14.5198143 103.1759548  66.4216232  14.4921327
 104.3222046  65.7074356  15.1755238  43.5094469 106.9790895  48.2080650
  43.3334463 106.0636027  47.9909420  44.4626539 107.0293171  48.2795238
  72.1856070  32.3694444  29.4265151  72.2289705  31.8464327  30.2270222
  71.4031172  32.9098606  29.5355892 113.0987453  25.7182765  22.1878552
 112.2768688  25.2632713  22.0042086 113.7323475  25.0168157  22.3386264
  64.5640802   6.4948446  36.1078763  65.3870440   6.9726074  36.0044050
  63.9205885   7.1700174  36.3230324  69.5956755  30.8586335   3.4058622
  69.3524599  30.4238200   4.2231849  70.4715538  31.2073731   3.5715270
  88.5452271  24.3351126  44.2900658  88.0317020  25.1423883  44.2613840
  88.0597973  23.7226868  43.7373257  61.8228548  99.5656795  56.9395399
  62.2876662  99.6312768  57.7737331  61.2794894 100.3529758  56.9055605
  35.4786908  54.4782924  93.5867551  34.8308312  55.1536232  93.7878582
  34.9736249  53.7766580  93.1758427  99.6378613  34.8493457  25.7040524
 100.2451801  35.3572249  26.2420583  98.8197613  35.3454280  25.7331228
  97.0298481  17.0515525  17.1939754  96.9554234  16.6859841  16.3124704
  96.5073395  16.4653230  17.7412844  75.0981426   3.5307455  35.3967714
  74.2895317   3.9802790  35.1512074  74.8229504   2.6367742  35.6000352
   2.5773291  47.0391464  28.9082718   3.3571963  47.1549845  29.4510698
   1.9233279  47.6163816  29.3023634  61.1632538  17.3815429  10.5342650
  60.2248907  17.5618052  10.4775894  61.5805483  18.2205248  10.3388000
 105.4486561  42.9578304  16.6839433 106.3263321  42.7642059  17.0132327
 104.8727703  42.8057575  17.4332476 113.4881878  11.7527544  32.9115367
 113.2798576  11.9720364  32.0033813 112.8983879  12.2989666  33.4311724
  60.6186342  20.0132036  18.2764316  61.1282969  20.5722308  18.8629162
  60.3689146  20.5889940  17.5537014  65.4479330 104.1306586  24.7521234
  65.3209132 104.7996778  24.0794325  66.0174864 103.4813113  24.3395853
  86.2992018  84.0122933  16.1186755  86.1037272  83.0966873  15.9194553
  87.0844286  84.2064114  15.6068444  76.8716621  55.7635784  29.3991184
  77.2416973  54.8935843  29.2493844  76.5882158  56.0556459  28.5327530
 100.3639126   9.8676330   8.5790825 100.7433605   9.3194234   9.2658991
  99.4844723  10.0738740   8.8957661  26.8831097  90.7980412  76.8576386
  27.2481572  91.0488837  76.0090783  27.5126778  90.1708000  77.2132316
  82.9026222  37.1101093  20.6622052  83.8128662  36.9087386  20.4450870
  82.3906803  36.6564083  19.9926543  17.8152137  46.1816740  42.9889250
  17.1481566  46.0650158  43.6654329  17.9289202  47.1299887  42.9256821
 109.4781208  34.2702651  26.9732785 109.5539093  34.6967053  27.8268814
 109.9405384  33.4388661  27.0789909   7.9923968  24.3454146   6.4996183
   8.1373076  24.9106193   7.2584176   7.1521525  23.9213085   6.6738468
 108.5196573  96.9451278  65.0108936 108.3357460  97.2078984  65.9127596
 108.1919605  96.0477441  64.9513271   0.7419925  29.3962884  24.0967202
   0.5150466  29.7732401  24.9467993  -0.0861306  29.0583134  23.7558126
  52.1966934  25.4907775   2.7004561  52.3711205  26.4315987   2.6747441
  51.3257933  25.3980041   2.3142439  34.7517651  97.6430876  13.9009571
  34.3480843  97.6869197  13.0341542  34.3475979  96.8806238  14.3151188
 116.4687347  51.5064621  11.7014241 115.7919884  51.0789442  11.1765742
 117.2795773  51.0611963  11.4554191  63.5591810 105.1558496   8.4172142
  63.0137556 105.0137092   7.6435608  64.3419379 105.5926551   8.0814582
  -0.0024076   2.7580774  51.8434238   0.6978659   3.3603090  51.5920877
   0.1945929   2.5271958  52.7512360 109.4892120   7.6776546   7.6778507
 108.7010193   7.1346700   7.6902092 110.2049637   7.0647162   7.8458726
  98.7769604  25.5724907  25.8207917  98.1978798  25.4697108  25.0655818
  98.4826946  24.9052429  26.4408088  83.3463860  53.5196304  17.6540649
  84.0998745  53.3113146  17.1017253  82.7185822  53.9286613  17.0584249
  31.8696248 108.9302152  94.1297571  31.0536324 108.7270826  94.5870577
  32.3891102 108.1292909  94.1996215 105.9006500  43.2895803  19.6799994
 106.8449020  43.1655502  19.7760749 105.5202866  42.4553967  19.9551237
  72.3931330  87.2840686  36.5812516  72.5414294  87.6856608  37.4373865
  73.0181902  87.7189202  36.0012150  74.4623470  27.0720816  39.8202300
  73.7137938  27.3005152  40.3713369  74.8713064  27.9119873  39.6115637
   1.4538722   8.9991730   5.7497966   0.6165080   8.8332719   5.3167421
   1.8529658   9.7027290   5.2379739 101.0682487  18.4064364  43.8378906
 101.8225956  18.9548707  44.0533113 100.4626751  18.5345554  44.5680332
  67.2292900  16.4100206  32.0091271  67.5713634  16.5522611  32.8917289
  67.9952526  16.1587107  31.4930081  56.4685774  34.6205282  44.4085598
  55.5395555  34.5354366  44.6228218  56.6521406  35.5549383  44.5055723
  90.1839447  22.1360087  18.2348359  90.0198841  22.6026320  19.0543354
  91.0993576  22.3264122  18.0299258  66.2829703 102.5147475  15.6517398
  65.6575316 102.0670814  15.0819516  66.7029398 101.8108745  16.1461246
  95.7539004 108.9324255  59.7031212  95.5274981 109.8434065  59.8904276
  95.4485052 108.4472517  60.4696465  16.8098294  66.6348606  93.9139139
  16.8332326  66.5120488  94.8629142  17.6933133  66.4107662  93.6215511
  17.1826129  44.1206789  40.2544689  17.8379969  43.8360739  39.6175218
  17.5859217  43.9500618  41.1056232  74.9777048  88.1298871  24.0002537
  75.0311011  88.8462157  23.3675957  75.8745783  88.0227919  24.3170786
  59.9852311  75.4244536  95.6100304  60.1781022  76.1431282  96.2121419
  60.0178181  75.8246773  94.7411278 115.1203728  35.0050449  37.7131367
 114.8225880  34.0959287  37.6805997 114.3336487  35.5212116  37.5374603
  91.8153667  43.5217381  26.0964251  92.1814156  44.3984365  26.2132263
  91.3346195  43.3529997  26.9067597  82.0790195  47.7631664  37.8282595
  82.6647758  47.6450920  37.0804787  82.0879173  48.7060499  37.9929352
  10.9142911  81.1507910  91.3574388  11.7449032  81.5564078  91.6060072
  11.0496556  80.8613103  90.4551580  69.9163103  35.6090736  45.9245062
  70.4555321  35.8588982  45.1741314  69.1726065  35.1443434  45.5408812
  91.4111536 111.3099537  37.3650742  91.1721724 111.7030478  38.2044768
  90.6087034 110.8847010  37.0626354  89.5219040  21.2875652  25.3149676
  89.5335960  20.8258748  24.4765544  89.2468452  22.1774983  25.0945139
  79.4224596  38.1707430  32.2204328  79.2216873  38.8697386  32.8427887
  79.2135906  37.3637915  32.6910019  96.9247532  53.4081268  48.4044027
  96.8094540  53.6538553  49.3223095  96.9879723  54.2423153  47.9392576
  24.5897805 105.0381511  89.3268362  25.4283749 105.3397029  88.9774570
  23.9340626 105.4463380  88.7614658 101.1124516  40.1327848  36.1021590
 100.6874752  40.4034662  35.2883101 101.6701126  40.8737993  36.3391113
  67.8539038  45.1514530   8.7905073  68.3599854  44.3888950   9.0708947
  66.9580698  44.9595165   9.0677667  85.9060860  25.5240202  29.6659970
  85.9468555  24.5724082  29.5711040  86.0563850  25.8595085  28.7822056
  16.2266289  56.3187730  95.6870296  16.4742791  55.5905914  95.1172459
  16.0096871  55.9058098  96.5228722 102.1784019  17.1241331  29.3341660
 103.1174564  17.0377779  29.1699982 102.1226978  17.6173997  30.1525903
  21.7505412  65.9837103   2.5787205  22.4578910  65.4908419   2.9946160
  21.5018706  65.4532385   1.8217579 112.6847553  29.2283535  10.7517350
 111.8473244  29.1726899  10.2914822 113.3067322  28.7897730  10.1711988
  10.3951506  22.5684333  29.2879510  10.8820967  22.2041106  28.5487747
  10.5868678  23.5058880  29.2623544  93.6773109  34.9342060  59.9348974
  93.4772110  35.7658339  60.3645325  93.7800407  34.3114686  60.6545305
  95.6877804   2.7589962  27.8404832  95.9625053   1.8907838  28.1353760
  96.2927341   2.9732692  27.1303082 108.4128571   1.0655218  28.5312104
 107.7247810   0.4398751  28.7578154 109.0602970   0.5469281  28.0535984
  16.8598210 100.0450938  96.2291462  16.0884034  99.4904226  96.3452691
  16.5327584 100.8163303  95.7660484  82.5260639  27.1379042  34.5964742
  82.2488213  26.6454720  35.3690553  83.4170532  26.8329597  34.4250965
  88.6401463  39.2148685  27.7658629  88.0396271  39.6091819  28.3984208
  88.1859875  39.2883372  26.9264746 100.0354290  52.0662498  27.9691744
  99.6465969  52.7969360  28.4499431 100.5064774  51.5651178  28.6349177
 116.0929966   6.7627013  14.2832124 116.3550854   7.5336629  14.7863638
 115.1614761   6.6561961  14.4759774  76.7790985  13.3527470  30.3556895
  76.3296890  13.5649729  29.5376301  76.0841894  13.3377242  31.0137987
  73.9750689 108.0352105  32.2839046  74.2682665 107.1250553  32.2405124
  74.3480509 108.4444819  31.5031290  87.1815109  15.3036797  24.7346163
  87.5199223  15.8314419  24.0113044  87.9505062  14.8511732  25.0811911
  61.5578782  36.3236683  92.5966292  60.7102524  36.0208088  92.9222575
  61.6171586  37.2322446  92.8919360  27.2847145   1.0310362  86.5784153
  27.3801153   1.9777582  86.4742759  27.9370373   0.6579254  85.9855428
 112.1450424  35.2751207  11.5214765 112.5685120  34.4167805  11.5340793
 111.2601662  35.1009488  11.2007165  14.7587256  36.1009550  38.4301829
  15.0262694  35.1878142  38.5342360  14.1259150  36.0847974  37.7121878
  40.8238350  79.7455853  90.9172198  40.6724583  78.8542526  90.6028274
  41.7748200  79.8509687  90.8897540 115.2129936  53.1666422  25.3617883
 114.5093727  52.6465034  24.9737120 114.7779369  53.9566135  25.6825662
 100.3256416  38.6664033   1.5426883 101.1527920  38.8516283   1.9873819
 100.3714371  39.1721630   0.7313053  98.6933708  13.3182621  25.5596232
  99.5628166  13.4338140  25.1762986  98.2486725  12.7126980  24.9665189
  98.1143570  24.5483851  13.7213600  98.1896210  24.0276742  12.9217184
  97.6681995  23.9717436  14.3415678  94.9263191  17.5223935   7.2296000
  95.3725529  16.6814876   7.3295367  95.4906178  18.0246115   6.6417402
  81.8108940   1.8560883  21.1758733  80.9376526   1.4812477  21.0611033
  82.1331787   1.9898178  20.2845359  98.1010151   6.3630998   2.6116720
  97.8849697   6.2759882   1.6832493  98.9205074   5.8790320   2.7133301
   4.5567469  44.4394922   4.2432028   5.3660064  44.1500092   4.6645373
   4.2860274  45.2073145   4.7465834  59.1919344   5.0999592  90.0638053
  59.1196554   5.2725790  89.1250780  58.6575239   5.7798289  90.4741976
 101.2984276  41.9048786  45.4731798 101.6844177  41.0670662  45.2176237
 101.6470432  42.5323057  44.8399067  70.2767324  25.5608630  22.2747564
  70.4045391  25.7818413  23.1972909  70.3000784  26.4034510  21.8211818
  72.5403738  32.1705890   4.3331984  72.5089312  32.9918313   3.8424802
  71.8650436  32.2668052   5.0046915  75.7397366  58.3377218  22.8062916
  76.4139366  58.8125992  23.2922721  75.6022787  58.8593245  22.0155525
  11.2083851  61.6513264  72.8290394  10.4307210  61.9795387  72.3776486
  11.0239445  60.7243907  72.9807094  80.4599667  43.0567551  36.5638828
  80.9689426  43.8670778  36.5405178  81.1174870  42.3613358  36.5812373
  47.9013096  63.7526518  86.3714233  47.2620808  63.8452410  85.6649926
  47.4600445  64.1099053  87.1420660  78.6865425  24.3499494   0.2005571
  78.8049889  24.4923139   1.1396711  79.4576454  23.8487554  -0.0648459
  46.8234080  90.8808703  27.7837777  46.1514300  91.5621252  27.7598453
  46.8717497  90.5603857  26.8831205 101.8773842   5.4187530  15.1530039
 101.9289398   5.9291852  15.9611082 101.7071629   6.0676938  14.4702649
 111.9550228   8.8447750  30.6619811 111.2291622   8.3859897  30.2390385
 111.5689182   9.2303717  31.4484096  16.3334595  43.1796222  95.5983418
  15.7574498  42.9162830  94.8806368  17.1404492  42.6863497  95.4511037
  79.6310997  63.4687138  36.7374444  78.9771461  64.0327597  36.3246155
  80.3375340  63.4104729  36.0941744  99.3751717  25.0681138  15.9613180
  98.7306976  25.4168105  16.5771902  98.8903427  24.9596095  15.1431513
  75.9470099  74.6300216  23.2102942  76.5954989  74.6411152  23.9142537
  76.4346903  74.3385048  22.4399590  92.7876091  20.5948400  28.9081550
  93.7230396  20.7838535  28.8341594  92.7156448  20.0429368  29.6869063
   6.5775256  53.9525795  27.2231841   6.2636905  53.9003563  26.3204026
   5.7899813  53.8474321  27.7569890  92.8523064  36.4506865  66.3099957
  93.5616589  36.5013385  66.9506931  92.8077888  37.3289704  65.9320211
  11.4081816   3.7208799  31.1019421  11.7956786   4.5949233  31.1480308
  11.8363528   3.2317081  31.8045187 112.3214084  63.4783643  75.2577379
 113.2636673  63.5800945  75.3920105 112.2484571  62.8599661  74.5307615
  38.2195252  97.3331351   5.5919117  38.0940121  97.8827627   6.3654673
  38.1961172  96.4372833   5.9282625  76.2341881  42.1022463  35.4074526
  75.7992840  42.4250317  34.6182132  76.6261959  42.8818989  35.8007860
 106.7686939  28.5796213  36.6689610 105.9809494  28.7748742  37.1764684
 106.8023205  29.2679048  36.0046053  77.0521212  31.2042212  54.6647120
  76.7317343  30.5251193  54.0710783  76.4127111  31.2209892  55.3768253
 111.0702133   8.9215332  14.9632323 110.2319908   8.4600806  14.9371290
 110.9001923   9.7523087  14.5192301  56.9426107  29.3363833  53.7654400
  57.2116804  28.8426232  54.5400620  56.4561558  30.0832129  54.1144896
 108.6996174  44.1363239  18.0255473 108.1026649  44.6583319  17.4894655
 108.4768677  43.2289124  17.8176606 113.6588860  41.7067623  28.1371784
 112.7229786  41.9044018  28.1017613 113.8445854  41.5931892  29.0692973
  68.2658863  23.9364624  46.5019274  67.5876427  23.2698250  46.3932562
  68.0556488  24.6011782  45.8460426   4.7145228   3.4750152   6.3980681
   5.0730853   2.8094673   6.9851911   5.4019980   3.6155120   5.7470083
  83.3563614   1.8117566  23.7521982  82.6634979   2.0972151  23.1566453
  83.7913132   1.0963598  23.2882357 107.4891598  73.9309972  92.1187422
 107.7877075  73.1270283  91.6936120 106.6978676  74.1759604  91.6390735
 111.0857105  29.8650408  32.2849154 110.6847763  29.6600223  31.4402533
 111.8401527  29.2785668  32.3405814  28.4311061  21.2172580  36.3769031
  28.3757548  21.6609454  35.5305529  29.2996363  21.4435387  36.7096090
  82.4948788   7.5635391  15.8825278  81.7604256   7.2755170  15.3404379
  82.6664257   8.4607029  15.5963469  69.0512865  90.6838364  45.5317926
  68.4521502  91.0494132  46.1826468  69.2376059  91.4136572  44.9411297
  26.5648764 111.0675556  21.3995719  27.4475640 111.2539710  21.0796642
  26.4157170 111.7193826  22.0844841  66.0685110  26.7886829  20.6407666
  66.8200016  27.1112299  20.1433134  66.2355709  25.8521533  20.7467628
  89.6675587  34.0804982  34.8439312  90.2256489  33.4976149  34.3291354
  89.0092850  33.5026431  35.2299333  77.4743509  33.8891745  33.9323974
  77.4473667  33.4714770  33.0715656  77.7961540  33.2057309  34.5202589
 106.5625954  34.8713088  37.7536082 106.7873955  35.8000255  37.8100109
 106.6832256  34.5411801  38.6439443  96.4558125   2.4852845   6.5629804
  96.0524464   3.2044750   6.0768795  96.3782692   1.7294893   5.9807491
  41.5917969  12.8202748  13.6206782  42.3728085  13.3735049  13.6067951
  41.2609720  12.8503811  12.7229702  44.7351855  97.4798674  57.0903063
  43.9479368  97.6719363  56.5808201  45.3548067  98.1656952  56.8414164
  34.5889222  63.6198705  87.6527092  33.7631833  63.5246390  88.1273761
  34.5674359  62.9264444  86.9932172  73.1766081  55.1389360  29.2379689
  73.3365107  54.2014837  29.3468213  72.2455931  55.1998568  29.0241146
  88.7212372  26.8883538  52.0516634  88.8739491  26.6665435  51.1331272
  88.4922695  26.0555625  52.4642944  87.7081490  35.8343291  49.7141743
  86.9535255  35.5787611  50.2447128  88.0119133  36.6521406  50.1080608
  81.0162163  32.0860887  37.0613790  81.4957905  31.3484216  37.4383235
  81.6643047  32.7880263  37.0022821  77.8548717  37.9395914  39.5843959
  78.2200241  38.7450886  39.2182350  78.2154846  37.8940296  40.4698992
  13.2237677  28.7655163  19.8004234  12.7441268  27.9579663  19.9849010
  14.0751223  28.4700370  19.4777405  82.1055698  25.7084227  45.0664043
  81.6038132  26.5229249  45.0988340  81.6753483  25.1889563  44.3872166
  87.3611641  58.0892420  12.1081817  88.1868458  57.7887011  11.7285049
  87.3466396  59.0305853  11.9352889  99.9217415  44.2458916  70.8864069
 100.7841110  43.9265537  71.1520624  99.7510242  44.9866772  71.4680624
  90.9526539  64.5046091  41.6067457  90.3602219  65.2530909  41.5358019
  90.4875469  63.8832712  42.1669722  95.8054447  32.1787286  17.2315204
  96.7497158  32.1951365  17.0756125  95.5087376  33.0581784  16.9975054
 117.3212433  14.3370092  90.8960533 117.2741032  14.9225712  90.1403236
 118.1441975  13.8621020  90.7801151  17.7461009  53.2626486  30.4941320
  17.5304751  52.5769472  29.8620343  17.2758631  54.0347862  30.1796293
   5.8276706  22.7467060   7.5878096   5.5078463  23.5164928   8.0583149
   5.7193713  22.0251799   8.2074070  15.8861863  89.5401638  86.1639300
  16.7306553  89.9195712  85.9207347  15.8019768  88.7662905  85.6069210
   3.8027243  17.0789921  37.8151774   4.6857123  16.7521977  37.6426268
   3.3166938  16.8912840  37.0122004  24.4498002 106.0141986  84.9303952
  24.4226204 106.8732160  84.5089832  23.6717831 105.5623811  84.6036234
   2.7684247  89.9033659  85.1125267   1.8409001  89.8601859  85.3450587
   2.8682267  90.7526463  84.6824172  15.8124577 110.0238603  93.1107092
  16.0230481 109.4217103  92.3970574  14.8557412 110.0483316  93.1289971
  57.9029036  33.7740064   0.9872442  58.8217735  33.9034200   1.2220997
  57.8515434  32.8571129   0.7172470 110.3647518  26.0922980  15.7640171
 109.9107361  26.7440534  16.2981641 109.6625614  25.5814695  15.3612542
  65.0518626   4.5475767  68.1881836  64.3755072   3.8703297  68.1777957
  65.1229590   4.8009775  69.1084912  99.2908382  31.9390512   6.5812665
 100.2383995  31.8106699   6.6246092  99.1567230  32.4698901   5.7961202
  94.5218849  43.5181236  25.1828814  93.8890839  43.1961632  25.8248615
  94.0057087  44.0663338  24.5919013  15.1702647  78.5573387  58.8350153
  14.3840461  78.5295105  59.3802738  14.8829989  78.2277393  57.9835081
 115.5202991 102.3465293  90.9142467 115.0319464 102.0653051  91.6879770
 114.9202854 102.1947282  90.1840600  99.8583334 104.9859829  16.3374984
  99.7787398 105.8046956  15.8480036  99.1990584 104.4102276  15.9500754
  80.4573441  39.7331929  37.4434114  80.6688786  38.8001800  37.4746752
  81.2835121  40.1585197  37.2136903 101.4673328  55.4575396  51.0443354
 102.2448063  55.0770187  51.4529610 101.0020351  54.7088099  50.6713295
 103.7694263  58.5203505  15.6390011 103.5601234  59.1270161  14.9288070
 104.2903137  59.0394545  16.2517345  35.7484774  34.1067791  20.4688573
  36.1893039  33.8189292  21.2682581  35.3817706  33.3052301  20.0956631
   1.8991999  36.8176031  12.9189825   2.5604396  37.4967217  13.0523682
   2.3702769  35.9951162  13.0525136  91.4789200  51.4140272  18.3230710
  90.6832409  51.7295837  18.7514865  91.4043140  51.7244864  17.4206948
 107.6471329  45.5009270  60.4634762 107.7509975  46.3831949  60.1070452
 106.9620609  45.1043129  59.9253225 108.9520264  62.7844954  10.3972793
 108.0196571  62.8174067  10.6113505 109.1690540  61.8523884  10.4148459
  45.1415192  98.8205379  94.8230710  45.0927102  98.3896630  95.6764168
  44.7599827  98.1887334  94.2135766  93.9426899  69.0490389   1.9944267
  93.0844879  69.4164562   2.2058995  94.0474319  69.2095041   1.0566037
  86.6194248  68.0917692  19.2426085  87.1353054  68.2821751  20.0260901
  85.8640003  68.6762667  19.3053508  18.3855777  54.8577499  42.2043133
  18.8921504  54.0502596  42.2913027  18.6708979  55.2308130  41.3702583
 109.1426563  22.9635668   5.8619487 109.5361614  22.6248097   5.0578171
 108.2120991  23.0503345   5.6551284  10.3067147  99.3538325  79.0924647
   9.9737488  99.0303462  79.9295595  11.2432324  99.1572517  79.1151324
 113.7933922  23.6347699  52.9229593 114.6317577  23.4522414  53.3473063
 113.9111137  24.4950843  52.5201797  52.1072995  95.7599204  96.6225015
  51.2344014  95.5849999  96.2708084  52.5403630  96.2762445  95.9427244
 101.7178822  67.3972321  22.0480490 102.4183273  67.8591681  21.5873671
 101.8558407  66.4752388  21.8309736  70.1757526  63.0530071   2.6602998
  70.3248644  63.6333799   1.9138651  70.0889587  63.6431265   3.4089366
 100.6279755  41.7410135  58.0667639 100.9168720  42.6395273  58.2262802
 101.2190819  41.2024069  58.5928106  11.0026126  28.2690930  15.2309847
  10.2105384  28.7932777  15.3496754  10.7934718  27.6798129  14.5062470
 107.6618862  66.1825228   1.1666717 108.0963421  67.0088577   1.3779818
 106.7484093  66.3214207   1.4166649  90.2883244   3.5002705  32.1392655
  91.2095737   3.7389794  32.0366096  90.2642918   2.9771429  32.9405093
   7.4381022  34.1367269  41.9032669   6.5201621  34.3507195  42.0700741
   7.4958091  33.1936145  42.0563698   2.7207045  22.3547006  10.3754747
   2.1174388  21.9456482  10.9959400   2.1569876  22.8661656   9.7950786
   6.6486125  24.9879503  19.1760957   6.2368636  25.7439470  18.7575746
   6.9103770  24.4242501  18.4481144 102.2196674  55.3573799   5.5530250
 101.3830757  55.2812052   5.0941694 102.0027447  55.7969856   6.3751721
  91.1715794  62.4063110  18.8302946  90.2561760  62.1478271  18.7232471
  91.2797070  62.5192404  19.7746396  14.7717051  41.8286467  68.6457443
  14.1962008  41.0653734  68.5962009  14.1755919  42.5732565  68.7260056
   7.2906928  80.8038044  32.0451736   7.3851161  81.4773083  32.7187538
   6.4143424  80.9446526  31.6868258  96.4438820  56.2506485  37.7848458
  97.1571922  55.7740498  38.2094383  95.8102322  56.4070940  38.4850216
  24.5588641  43.9225388  17.1032369  24.9041705  44.6827269  16.6351438
  25.3334861  43.4061432  17.3258042  22.3822074  44.0788698   8.4903491
  23.2047992  44.0239382   8.9767319  21.7075209  43.8701677   9.1364694
  21.7951922  37.5103617   0.9176609  21.2147670  37.8596020   1.5939473
  21.3794379  36.6927338   0.6440579  16.1630492  45.8588600  45.1105928
  15.6921248  46.6290379  45.4288626  16.9140296  45.7774258  45.6984949
  13.7659507  18.6784482  21.5670013  13.6357360  18.2684886  20.7118940
  13.9642863  17.9492450  22.1545029  45.7517910  48.5911226  33.5975718
  46.1088610  49.1976833  34.2462707  45.1438093  49.1216898  33.0827045
  87.5046062  77.1234035   7.3974603  86.6716385  77.5860023   7.3058313
  88.1379795  77.8098011   7.6070344   6.7216830  27.2121954  10.0296474
   6.1137061  27.2477818  10.7681119   6.3145308  27.7588820   9.3576401
 118.0374813  74.4566059  21.6754222 118.9394379  74.3937826  21.9896793
 117.5016594  74.2733574  22.4471354 102.8363609  59.3575525  38.7054682
 102.9788208  59.9895096  39.4101429 103.4182358  58.6275816  38.9171338
 112.9039764   6.0020989  31.4124775 113.6360264   5.9088731  30.8028579
 112.1326637   6.0779428  30.8507323   8.7806277  81.4064980  10.4273736
   9.3845706  81.0042667  11.0516322   7.9128318  81.2539196  10.8013725
  82.3311156 111.2174514  40.2136993  83.2154864 111.3143508  39.8605323
  81.7552679 111.4260290  39.4780874 101.0585308  85.0646782  51.7211723
 101.8866730  84.9102879  51.2666798 101.1441326  84.5844364  52.5447416
  15.2557425  33.3659196  21.8430853  15.9957843  33.0388689  22.3545647
  15.1157241  32.6989341  21.1709547  65.9598494  71.2135649   5.1414376
  66.3335037  70.7982206   5.9186774  66.1213398  72.1484566   5.2684247
  10.4765944  47.9263735  22.8139949  10.6649546  47.0488787  22.4812078
   9.9361949  47.7773857  23.5898829  72.1521235  47.6277351  32.0110798
  72.0852661  48.1600094  32.8038239  71.4217043  47.9185200  31.4650345
 106.8846035  21.3665199  20.3765893 107.0445919  22.0224214  21.0551357
 107.3473358  21.6995478  19.6076953 101.1397552  51.0128593   4.0582517
 100.5349350  50.2787876   4.1657737 100.5740261  51.7670679   3.8928753
  69.9572945  27.6484108  38.3244872  69.7626972  26.8147349  37.8962946
  69.3013191  27.7204037  39.0178442  87.2264862  28.3728504  46.2674189
  86.8574429  29.0422153  45.6912327  87.0198441  28.6771154  47.1511364
  31.4078574  55.0251675  17.3686171  30.5759387  55.3469658  17.7158833
  31.4824157  55.4353189  16.5069628  94.7779751  60.1170874  21.7192459
  94.6071339  59.3945026  22.3233294  94.0449142  60.0934935  21.1041856
 106.4449120  67.5054264  57.4742937 106.6283703  68.4417629  57.3978376
 105.5799961  67.3977375  57.0786190  84.4301605  12.4086046  31.4397788
  84.9215984  13.2147658  31.2822294  83.8419533  12.3359025  30.6881428
  31.7631470  35.3304928  94.8782679  31.6172444  34.4468420  95.2160553
  32.7151906  35.4100125  94.8188189  97.2077465  58.4694481  10.2854812
  97.2743702  58.6835289   9.3549091  97.3589230  59.3014097  10.7340610
  95.2016449  45.0231934  20.4860711  95.7176590  45.6066799  21.0424042
  95.6321144  45.0638247  19.6320927   8.6357932  49.2359209   3.1992236
   9.2634539  49.9522114   3.1033236   8.7692504  48.9184809   4.0923369
  85.5755633 110.3310132   3.7032542  85.2089327 109.4485265   3.6481994
  84.8560255 110.9059914   3.4426773  21.5219073  66.6878748  36.3357878
  22.4487834  66.8836498  36.4728999  21.0879664  67.0212412  37.1211529
  54.2962027  32.3552060  25.5694818  54.6690130  31.9164038  26.3341355
  53.7568617  31.6858029  25.1484752  36.7699961  28.5280204  10.4150701
  36.9939666  27.8873086   9.7401202  37.6145606  28.8580632  10.7216930
 116.1113071  45.0352764  29.2480087 115.4046345  45.3385639  29.8179746
 115.6715202  44.5079851  28.5810852  12.4825543 102.2695393   1.0574703
  13.3494347 102.1788604   0.6618337  12.3238438 101.4266331   1.4823841
   8.4881817  87.0382660  92.3944041   7.8081547  86.5639990  91.9160029
   8.6315095  87.8335994  91.8814391 107.4438858  10.8814359  29.6995163
 108.3654785  10.6675589  29.8449898 107.3352814  11.7495382  30.0878906
  19.7543656  91.0723108  88.3947828  19.5093953  91.5299218  89.1990319
  20.7049405  91.1718887  88.3425924  19.6118121  50.5993605  26.5212035
  20.4311042  51.0744619  26.3823628  19.4138579  50.7292128  27.4486637
   8.9734988  68.8760138  24.0748429   8.3139567  69.1053486  23.4201336
   8.6582045  68.0563116  24.4555116  77.2693461 107.8012563  27.4130082
  77.5066012 107.5561271  26.5186620  76.9207590 108.6891763  27.3335099
 116.9238949  57.3785591  28.0432153 117.0579815  56.8992376  28.8608360
 117.6312542  57.0798349  27.4716878  76.2532139  29.2463803  39.5001459
  77.1213531  29.5578790  39.7561407  75.9780645  29.8466849  38.8072133
  94.6861839  12.8318226  54.0551043  95.3227711  12.3045456  53.5724401
  93.8348198  12.5039029  53.7654638 118.2485580  45.7663631  22.2737741
 117.7907372  44.9280500  22.3359513 118.5027409  45.9678221  23.1743479
   1.8020301  24.0959334  35.9802437   2.6905494  23.8807774  35.6965685
   1.6399054  24.9675989  35.6194854  30.7655369  51.3023075  92.9674515
  30.1635872  52.0257347  92.7927056  31.0423314  51.4347249  93.8741401
 100.3953535  85.4937785  82.0078745 101.2732822  85.1165240  81.9517425
  99.8421556  84.8873728  81.5154543  16.8869071  48.6447811   7.3312509
  17.5502543  48.1734896   7.8353196  16.3768916  47.9565430   6.9041175
 114.1187572  22.2915721  26.4962959 113.9590931  22.3713708  27.4367046
 113.2488823  22.3441744  26.1003470 100.6873703  34.0087605   9.4412154
 101.4963627  34.1599846   8.9524472 100.7159615  33.0797863   9.6701753
   1.3223605  30.3125572  17.8358281   0.5518489  30.8100677  18.1097496
   1.2962012  30.3378797  16.8793201 109.1007233  71.4037943  35.2671075
 108.7512493  71.3602400  34.3770504 109.9913979  71.7371988  35.1586509
  99.5225048  31.4870000  12.0006382  99.2316151  30.7375526  12.5202000
 100.1589108  31.9332027  12.5593174   9.3166594  55.9031916  18.2750571
   8.8112216  55.7908726  19.0801382   9.0415435  55.1764202  17.7161801
  22.5136142   5.9117222   4.4031012  22.6880603   5.9898096   3.4651768
  23.3317809   5.5789357   4.7720018   8.5989241  50.2371454  51.7859936
   9.4008117  49.7154903  51.7530870   8.3036189  50.2800655  50.8764935
  46.4149510  72.5522464  80.7026186  46.0038411  72.5111967  79.8391750
  45.7169186  72.8492623  81.2863698  72.0585394  26.9592762  10.6802499
  72.1798420  27.0608115   9.7362119  72.9473972  26.9323015  11.0344124
 113.7568760  76.2750959   5.0157678 113.1638527  76.9146156   5.4101890
 114.1503143  75.8216333   5.7612973  80.9664345  18.3404660  30.7707858
  80.5232620  19.1213119  30.4389548  80.3845024  17.6172853  30.5371213
 117.4366856 107.0512486  11.1734545 118.1497669 106.7109299  11.7137516
 117.1604824 107.8524971  11.6183531  16.1497437 100.8644336  75.3050712
  15.5752312 100.7408088  76.0606387  17.0070302 101.0567325  75.6849626
  28.9101445  76.5336865  95.1832849  28.9266621  77.1313661  95.9307732
  29.8014580  76.1883515  95.1330043  10.2972369  56.4808083   5.1618767
  10.9737830  56.7085409   5.7995719   9.5081954  56.3474751   5.6870973
  10.6846766  35.9811974  15.2911985  11.0926108  35.2347231  14.8523283
   9.7640185  35.9370041  15.0330055  80.5648917 107.2732128   3.9852154
  80.4871004 106.3215048   3.9186317  80.5074614 107.4531488   4.9235955
  26.5137534  42.4284649  35.6377673  25.8164935  41.9165611  36.0476685
  26.8830161  42.9462147  36.3531780  95.6278324  58.6498499  33.5109162
  95.0116253  57.9335451  33.3578563  95.0782394  59.3842363  33.7845182
 105.3223515  16.1049414   3.8518697 104.7830582  15.5170047   3.3229780
 106.2178230  15.7948232   3.7170023  98.9398098  32.9152679  23.8211846
  98.8883114  32.0272732  24.1748023  98.7954235  33.4832120  24.5780349
  84.9237364  18.5063790  96.0885154  84.5857828  19.3912886  96.2262217
  85.8753222  18.6096524  96.0953545 109.5452881  43.3639050  47.1209145
 108.7666988  43.0128336  46.6887331 109.9684048  42.5988388  47.5106287
  32.7135598  63.5324066  89.5802191  32.6290070  64.3317478  90.0999644
  31.8842255  63.0727416  89.7111264  75.5272675  58.2472467  52.5993776
  76.2256861  57.6431179  52.8513145  75.2299118  58.6276436  53.4258795
 117.7162361  33.8152313   3.6843339 118.2396126  34.5518923   3.9999974
 117.0823383  34.2107558   3.0860269  16.2295489  80.8811474  31.5783000
  17.0366912  80.7384300  32.0726633  15.7183604  81.4804173  32.1221662
  97.7337646  20.9185052  51.0626411  97.3210621  21.5919065  51.6034174
  97.0437813  20.6380367  50.4613876 111.1046600  38.1099987  47.6165581
 111.7844486  38.7494922  47.8290653 110.8169460  37.7751017  48.4658527
   0.7721858  49.2099619  48.8805389   0.6240039  48.4464884  49.4385576
   1.2519698  48.8663149  48.1269169  91.5973568  53.0921698  40.6055832
  92.3147106  53.7113094  40.7408333  91.8296146  52.6285219  39.8010230
  94.8860741  62.7580738   2.9590330  94.4916439  63.4565067   3.4813818
  95.5432320  63.2018852   2.4229336 102.1942425  31.3373399  41.7344141
 102.1671581  31.6605759  42.6349831 101.8025494  30.4651999  41.7810965
  77.5238371  68.2889414  41.0031080  78.4509802  68.1525946  40.8080387
  77.0652151  67.6800776  40.4241657  92.7360249  38.5071945  33.6860085
  93.1638050  39.2952991  34.0208578  92.4668217  38.0291557  34.4703794
  99.7388172  28.4578967  18.1013584  99.0143013  29.0037584  17.7958453
 100.4428959  28.6211848  17.4737930  96.4936066  35.2298117  19.2375755
  96.0682392  34.7658396  19.9587011  97.4223328  35.2326250  19.4692910
   6.5822654  43.6358690  24.2777705   6.7990165  43.8955259  25.1732206
   7.0819907  42.8322601  24.1338062  79.0132523  43.6992598  24.2153311
  78.9171505  43.3939791  23.3132243  79.8991346  43.4357023  24.4642878
  31.2097792  58.2617140  18.6095893  31.4136176  57.4814892  19.1252732
  30.3010325  58.1372213  18.3358657   4.5465235  79.5746517  13.8595426
   3.7990527  78.9861155  13.9651227   4.2370467  80.4169941  14.1925991
 100.2787113  24.9217606   0.8555017 100.9772682  25.0039792   1.5047225
 100.7062244  25.1057220   0.0190680 107.4149132  39.2621613  10.9170914
 107.2409630  40.1630306  10.6443036 106.6158962  38.9900804  11.3685083
  52.1625566   5.9028500  81.3729954  52.3325491   5.8064681  80.4359627
  52.8790665   6.4520502  81.6911602 118.5174274  20.0641847  28.9437866
 117.8825474  20.3891492  28.3053803 118.3153152  19.1325128  29.0296483
  23.5277228  18.8831127  30.3649092  23.9561991  18.7823391  29.5149159
  23.4382872  17.9892838  30.6955194 106.7017078  45.8597660  63.1262445
 107.2776222  45.5801201  63.8378286 106.8760586  45.2388382  62.4189377
   5.4497580  67.0065928  16.1859429   6.1422496  67.6194906  16.4330125
   4.6377330  67.4541616  16.4237106   6.5097384  58.9724207   6.9194567
   6.4313941  59.5562267   6.1649567   5.7666259  58.3746243   6.8379188
  95.6824398  83.4822559   4.0766513  95.6564617  84.4166183   3.8704512
  95.6670284  83.4475327   5.0330973  28.0006366  47.5458145  32.1859360
  27.8541903  48.1462336  31.4549851  28.4129576  48.0855989  32.8603649
 109.5312881  24.3430018  37.9459143 109.6661472  25.2642179  38.1681871
 108.6930275  24.1192913  38.3502722  93.9828777  67.3512506  22.7865648
  94.4993591  67.0588350  22.0355844  93.8021374  68.2741547  22.6081896
 111.8693256  21.4057922  25.1903439 111.2600231  22.1056437  24.9554348
 111.3379574  20.6098127  25.1731515   9.0491252  53.2492256  11.6897178
   8.3572058  53.3959961  12.3346472   9.5147662  52.4765396  12.0096517
  30.4274880  74.9595481  80.6785002  29.7434842  75.5800312  80.9302190
  30.9862172  74.8918849  81.4527610 109.8407650  77.4560308  29.4101405
 109.3133736  78.0187511  28.8431931 110.4761887  78.0486917  29.8116636
  14.7707515  57.2575903  22.3329830  15.2248626  58.0300045  22.6697302
  13.8458590  57.5041723  22.3338079  83.5403824   6.0340536  20.5089593
  83.6775684   6.4565384  19.6610677  84.3609905   5.5727637  20.6822681
   1.0503344 102.7198029  42.8983784   0.2514033 102.5286484  43.3897114
   1.5070300 103.3729649  43.4284973 104.6817684  75.0193214  10.5620730
 103.8367176  75.2419710  10.1715016 105.1738548  74.6094084   9.8506975
   5.4509501  48.6389494  19.5379126   5.6211142  49.5320845  19.2386007
   6.2456946  48.3887434  20.0090885  53.7346779  99.1408199  87.9653624
  53.8345563  99.1081136  87.0139494  52.7920090  99.0593475  88.1101683
  82.0316505  49.2236090  49.2801619  81.6086388  49.7620010  48.6112642
  82.2535992  48.4098911  48.8275766  55.8120762  90.4553288  89.8449519
  56.0622536  89.5885890  89.5249489  56.6198002  90.8191198  90.2075359
 109.2747021  53.2812977  10.7738030 109.5329475  53.9045906  11.4528096
 108.3497620  53.4696865  10.6150091  82.9828835  47.5549412   9.8882902
  82.6918125  48.4612322   9.9890423  82.2561264  47.1179247   9.4443476
 104.5883274  45.6045818  33.5088181 103.8450909  45.5153990  34.1053700
 104.1903114  45.7372046  32.6484537  23.1922011  68.7554884  47.3771811
  22.9524951  68.9413977  46.4693213  23.4278350  67.8277445  47.3775196
  21.5505366  53.8134098  14.0050673  21.2309985  53.1262970  14.5898783
  22.3769526  53.4719849  13.6634564  27.6662974  27.4538088  36.5445733
  26.8103747  27.6839614  36.1831093  28.2860713  27.9957557  36.0563087
  35.7776391  95.7444852  81.7672494  35.0560700  96.3731616  81.7857697
  36.2696778  95.9209388  82.5691154  57.7679574 101.9956964  83.5459450
  58.3519494 101.4974063  84.1176930  57.7376687 101.4890712  82.7343765
 113.5009193  47.8754807   9.3779147 113.8563156  47.2625017  10.0214875
 112.6123524  48.0562162   9.6845180   9.4382434  51.3384724  57.3658752
   8.6874728  51.7085648  57.8302097   9.4180159  51.7574501  56.5054798
 112.6105499  23.6839080  20.0151944 112.2852421  24.5830059  20.0602531
 113.4900188  23.7656140  19.6462810 102.9105759  44.7498083  44.1182137
 103.2184124  45.5912542  44.4550180 103.6688519  44.1703463  44.1921425
 114.7701263  45.8897209  21.4203286 115.6054306  46.2663984  21.1435151
 115.0119019  45.0974941  21.9000673  12.1422152  41.8733406  31.3252115
  12.4364333  41.5840101  30.4615211  11.3171439  41.4087152  31.4652419
  84.5816803  49.1676760  30.5476689  83.8212585  48.9825535  29.9965692
  85.1562405  48.4120321  30.4247117 102.5720501   8.2140738   6.4575684
 102.0120144   7.5016063   6.1493844 101.9606209   8.8903511   6.7491603
  79.7505587  22.5809763  93.2132664  79.6784800  21.6387080  93.0610406
  79.2867106  22.9787873  92.4765038  72.7633715  72.7689552   1.5449283
  72.0063829  72.7655840   0.9591019  72.4196863  72.4572659   2.3821646
 113.7526894  42.8476334  59.1075945 113.9603329  42.0585537  58.6071301
 112.9925060  43.2210159  58.6615753 114.6935177  57.6130486  49.1174603
 113.9161015  58.0479288  48.7671089 114.7498226  56.7923069  48.6281300
   4.8467021  70.9061146  34.7719955   4.0130000  71.3273239  34.5628095
   5.1413302  70.5324936  33.9414310 109.9576664  26.6755104  51.9439650
 110.1719856  26.9872117  52.8232479 109.3752956  25.9299207  52.0894861
 112.1403408  38.2168174   9.8774701 112.4105549  39.1127515   9.6761763
 112.4655342  38.0621099  10.7643461  13.8429408  59.6905708  41.0004091
  14.1290526  60.3937435  41.5834427  14.5570617  59.0536547  41.0249138
  93.6905384  70.4698515  29.6985817  93.6808014  69.8883533  30.4588413
  94.0397739  69.9305868  28.9890337  91.0877323  36.1265278  50.3678703
  90.8716488  35.3190279  50.8342218  90.2544880  36.5922046  50.2965212
  13.5058169  73.4925556  14.6102619  12.9341941  72.7618933  14.8460674
  13.3474688  74.1491175  15.2885580  17.1854644  82.8797436   3.3115956
  17.3501448  83.2560253   2.4469995  16.3587050  83.2732868   3.5905558
   3.8446843 108.0314248  88.5544768   3.6120354 107.4965184  89.3134138
   3.3315026 108.8325446  88.6597159  71.1218786  52.9500341  29.6206260
  70.4616547  52.7870178  28.9470053  70.6338787  52.9309702  30.4438686
 111.6348553  60.0796556  42.5860834 111.4447117  60.9803104  42.8485727
 111.9580650  60.1550055  41.6882563   3.1540732  65.3474236  12.9945278
   3.2019381  64.7713661  12.2315729   3.5107569  64.8242760  13.7123871
  92.2380447  80.9432507  55.8924675  91.6168499  80.2712154  56.1730242
  91.9734669  81.7288017  56.3711452 105.6842058 105.1983095  46.8972492
 104.9525851 105.8001555  47.0341206 105.2700823 104.3648339  46.6735268
 101.6287994  50.9295654  38.0514050 102.3833656  51.4877987  38.2391000
 101.5860081  50.3270483  38.7939525  97.3081875  80.4096603  45.5164480
  98.2098866  80.5316257  45.2193117  96.7820072  80.9196281  44.9005699
  93.1298256  77.4964428  14.7779179  93.8190079  77.2221708  14.1729093
  93.2950211  78.4280968  14.9226928  10.0822310  77.8520632  42.7992868
  10.6719928  77.8423452  43.5531616   9.5458369  77.0663166  42.9046726
  19.5729689  33.4862256  14.6848392  20.3124289  33.8212228  15.1919889
  18.8047843  33.8971615  15.0814033   7.8530078  43.0491638  35.4873109
   7.6609378  42.5324726  34.7047710   6.9965892  43.3476305  35.7934189
  86.5787315  57.3478270  42.2592640  86.4993191  58.1285906  42.8072929
  87.2166157  56.7989206  42.7153730  63.8722246  15.0606726  60.3704670
  64.0756243  15.2441834  59.4533089  64.6948450  15.2171896  60.8341887
  68.1492632  30.0142859  95.5830487  67.8296870  29.4010542  96.2449077
  67.3816889  30.5364989  95.3498927  29.9447779  93.2405186  32.3854327
  30.6263213  93.1855679  33.0552888  29.2178111  92.7292538  32.7408957
  44.4999634  91.5202802  82.4810019  43.9222180  90.9474414  81.9767216
  45.0531422  91.9416373  81.8232182  63.8376539   6.9293497  94.2790913
  63.4376925   6.6357134  95.0976543  64.1874712   6.1309717  93.8835496
  13.0402236  58.2334232  30.5086756  13.3957724  57.6804972  31.2044430
  12.8607421  57.6277304  29.7895432  11.2126117  55.2390814  25.1342273
  11.4820437  55.0338554  24.2389512  11.2213282  54.3954134  25.5863190
   3.9045672  59.9127007  27.8254509   2.9971461  59.6279383  27.7171350
   3.8459067  60.8612394  27.9397511  22.2095065  30.0028563  40.4926920
  23.1181483  29.7942901  40.2756405  22.1536975  30.9540462  40.4012871
  56.4719694   4.2214917  88.7294265  56.6440409   4.7860478  89.4830182
  55.5713480   3.9225148  88.8548270  16.4337878  31.4733529  33.7834048
  16.5755324  32.4198198  33.7649775  17.0760493  31.1229205  33.1662083
 116.4682770  70.8705568  16.1850142 116.3281631  70.6007910  15.2773666
 116.0417747  71.7250586  16.2494683  20.6669955  75.5993176  49.0303040
  20.0441127  75.7703161  48.3239079  20.5680613  76.3447618  49.6225500
  11.2726359  68.6842108  15.5723453  11.2168555  68.0656433  14.8439944
  10.9676223  68.1879711  16.3319135  36.9380604 103.9924615  76.6476503
  37.4576317 103.2541030  76.3296750  37.4661862 104.3721669  77.3498919
  79.1351843  27.9842162  24.1318035  78.3949947  27.7006817  24.6684241
  79.8495579  28.1099463  24.7563767  58.8968008  11.8306635  84.4431463
  59.1052931  12.1871470  85.3066745  58.5014170  12.5632523  83.9706841
 100.7971191  64.3716955  17.1517909 101.1374664  63.5370398  16.8296897
 100.5692196  64.2007875  18.0656207   5.6621127  63.0208683  22.2640514
   5.2166228  63.6990166  22.7718735   5.5836539  62.2308397  22.7987719
   0.9430079  15.3720748  63.8972902   1.3051276  15.6212699  64.7475863
   1.6911654  15.3999364  63.3008766 101.7060280  50.4655600  49.1381788
 102.3910236  49.9709415  49.5880222 101.2077332  49.8033571  48.6591911
  24.5630221  41.2358522  40.3108501  23.8223510  40.6396294  40.2005863
  25.2312426  40.7091618  40.7493639  93.4398651  49.7144318  27.0301175
  93.6707592  50.3912544  27.6663756  93.3100510  48.9253950  27.5562429
  10.0233702  61.5808964  37.8351212  10.4949145  61.4894629  37.0071602
   9.5786814  60.7412910  37.9514790 101.9069290  62.1444607  15.5065274
 101.3062191  61.4901114  15.1498687 102.4785900  62.3700190  14.7726643
 117.3224068  33.8442516  23.3955145 117.0948505  34.7152925  23.7206936
 116.4791870  33.4223509  23.2305503  15.9134536 108.6699009  38.2867074
  15.7777457 108.7234116  39.2327285  15.1633315 108.1698132  37.9650474
   7.4990325  45.0361967  22.2943902   8.4383063  45.1485252  22.1481633
   7.4420314  44.5102835  23.0921340 103.7792969  93.7585354  22.1475768
 104.0611553  92.9260540  21.7684102 104.2759895  93.8308716  22.9626179
  88.3195686  68.5886908   7.0450020  88.7237358  68.1944466   7.8179502
  88.0104542  69.4431877   7.3458672 108.3836079  46.6507578  72.4708414
 107.5080204  47.0373678  72.4818850 108.3165550  45.9235716  71.8520260
 110.2836895  69.7876215   7.8840148 110.3163338  69.0851736   8.5334229
 110.7644463  69.4413137   7.1322292  11.6998153  83.4496593  19.8067522
  12.4573664  83.8434410  19.3739772  10.9442954  83.8147736  19.3462026
  44.3589358  53.5645914  23.4772658  45.2633052  53.3322477  23.2665896
  43.8305049  53.0393028  22.8763866  75.6061125  66.5412760  40.0481939
  75.6444120  65.5923128  40.1675081  74.9871445  66.8415642  40.7137251
   0.9226565  27.7787542  15.2633107   0.6381087  27.4450517  16.1141372
   0.3048186  27.3992825  14.6383965  17.4597316  72.9163170  26.8873215
  17.7870040  72.0170593  26.9087791  17.4385791  73.1413698  25.9571958
  10.3340487  65.9583950  24.8777366  10.1291423  65.9997320  23.9436412
  11.2043528  65.5616093  24.9146986  59.8845577  68.3425045  23.7754488
  59.1471291  68.8312387  24.1409183  59.9385881  68.6352301  22.8657103
  87.3922062  94.4047260   8.4913677  86.7107773  93.7490177   8.3433115
  87.3656750  94.5691013   9.4339740  16.6106562  57.9201651  58.5714769
  15.8803611  57.7629757  59.1699696  17.3139720  58.2470655  59.1324759
   0.8245044  73.6187315  15.5431855   1.1408477  74.0997887  14.7785008
   0.1071982  73.0808830  15.2078938  13.6590438  57.7852726  19.6171379
  13.3119445  58.6740923  19.6929801  14.2543463  57.6962996  20.3614020
 112.4937248  43.8801336  30.1558375 111.7099380  43.5188341  30.5698156
 113.2216835  43.4879875  30.6380391   9.6649604  98.0990982   8.8453048
  10.3262191  98.7502003   8.6107165   9.6349005  97.5068092   8.0939591
 100.5660629  41.8320131  21.4739728 100.7454967  41.2925148  20.7039237
  99.7989750  42.3500061  21.2300467   8.2232337  36.4334726  40.2695417
   7.9743819  35.7313871  40.8706903   9.1626220  36.5492725  40.4122877
 100.8337879  72.2407675  21.4337659 100.1622868  71.5964413  21.6577554
 101.3712692  72.3107052  22.2227240  29.5781474  40.3753757  11.3071990
  29.0086512  41.1443377  11.2827551  29.9633937  40.3347254  10.4318905
   9.9092822  46.8799210  44.8701572  10.3224520  46.2729502  44.2560673
   9.3895011  46.3201904  45.4470110  21.0610347  77.9273605  64.5827675
  21.4697985  78.7308550  64.9045467  21.5639262  77.2226667  64.9911118
 114.8642731  41.9316387  39.9622035 113.9348125  42.1296835  39.8476577
 114.8757458  41.0763216  40.3917789 114.0231609  32.2937179  36.6352582
 114.5672512  32.4456429  35.8625245 114.4593239  31.5785670  37.0984530
 106.4870644  81.2584114  37.2791219 106.1603069  81.6957283  38.0653858
 105.8387280  80.5783463  37.0963573  52.6163518 110.5568355  93.5772073
  52.7660691 110.6011956  92.6328304  53.2070767 111.2143748  93.9445129
  37.7047515  24.4932675  76.9089508  37.0874071  23.7941313  76.6937160
  37.5243568  24.6980286  77.8264284 116.9470012  39.4147086  80.3383350
 116.5175247  40.1551199  80.7667923 116.2617154  39.0193629  79.7995281
   2.4768485  34.0308547  95.7357502   3.1534263  33.5325074  95.2773571
   1.6681127  33.5469937  95.5682564  35.8588425  94.6708872   6.7472527
  36.8071974  94.5483948   6.7042419  35.4983256  93.9129354   6.2870762
  87.7831168  37.5170285  16.5765163  86.8889488  37.4960381  16.9174740
  88.3239222  37.7345044  17.3357746 115.0937869  95.3837730   9.0539906
 115.0504472  96.3237383   8.8784287 114.6033694  95.2692939   9.8679993
  95.3242107  94.9771404  67.3225594  94.4282241  95.3054047  67.3979044
  95.6399722  95.3313923  66.4912796  67.1695078   3.9973361  34.5423386
  67.5768615   3.2705933  35.0136539  67.7719713   4.7307832  34.6661350
  93.8028134  16.0317857  15.4651234  94.4363762  15.4851491  15.9298965
  94.0282882  16.9271476  15.7175610   1.2098265  68.9819670  75.8918524
   0.3388780  69.2883444  75.6392384   1.0605442  68.4584761  76.6791916
  75.0136865  20.3653056   0.1227734  75.5654473  19.7108466  -0.3055599
  74.1606451  19.9397904   0.2093193  45.6316675  19.7652442   4.0898487
  46.3373126  19.1805035   3.8134834  46.0390318  20.3445393   4.7338268
 110.6783188  21.7349107  20.6813404 110.1046718  21.7823417  21.4461395
 111.2404669  22.5061042  20.7553932  12.1253467  88.1252193  91.2763309
  12.0093930  89.0276718  90.9790611  11.8780732  87.5908279  90.5216694
  90.8498354  98.4169197  71.1994267  90.1288648  98.1190395  70.6447172
  91.5458269  98.6477470  70.5841684  12.9091442  36.4860344  70.3277588
  13.2434666  36.9161654  71.1148071  13.5592544  36.6821575  69.6531296
  40.5672229  90.2967598   7.7444622  39.8510029  90.9092070   7.9122994
  41.3361446  90.8542659   7.6253769   8.8394332  71.3610983  84.4059372
   9.0141928  70.4349518  84.2387867   8.6468005  71.4032364  85.3426075
 103.6330862  59.2422056  86.8025017 103.9917608  59.0894985  85.9282780
 104.2542322  58.8170958  87.3938465  58.1490559  97.1159889  30.0572273
  58.3987946  96.8232824  30.9336922  58.9616770  97.4468614  29.6746037
  94.0799732  78.9876604  95.7104111  94.4179149  79.8770332  95.6053352
  93.1523056  79.0556812  95.4845047  28.1439442 105.3190805   3.0284664
  28.8919598 105.8872940   3.2124111  27.4261827 105.6956627   3.5376141
  95.6041444  28.4422070  31.6908142  95.3613580  27.5563580  31.4214298
  96.1394978  28.7735326  30.9698174 106.7447264  75.2372217  66.5399551
 106.1783667  74.7647381  65.9298515 107.0326669  74.5711946  67.1642351
 104.3443573   5.3455598  25.3656742 103.4434713   5.5239159  25.6355354
 104.2950738   5.2503640  24.4144985 105.5335630   9.6289641   1.5200779
 105.6895412   8.9300782   0.8848927 106.4029587   9.9857957   1.7018864
  46.9882685 102.4039270   4.6007225  47.4007351 102.8678896   5.3293106
  47.1283287 102.9733421   3.8441631  24.6692294 101.9765999  15.0023434
  24.3923933 101.0615446  14.9547455  25.6256444 101.9378616  15.0010178
  65.2132417  36.2103803  13.0820248  64.2832197  36.4352376  13.1090710
  65.6587554  36.9950730  13.4014294  83.5485689  13.7541873  17.9801151
  84.1797228  13.9174039  17.2792313  82.9242028  14.4766290  17.9132053
  68.5309917 105.7380296   7.5361702  68.1791932 106.6242172   7.6206657
  69.3964559 105.7841589   7.9424641 116.1292232  11.5554530  33.4726498
 116.1062015  10.6240422  33.2531616 115.2245654  11.8492419  33.3653423
  46.4412827 110.1198484  13.4271214  47.1134031 109.7338392  13.9888069
  45.8111823 110.5038358  14.0368435  72.9447313  86.5859699  83.4138584
  73.3612819  85.7869625  83.7368298  72.1932931  86.2766743  82.9079819
  60.0683648 105.4365970  13.1556007  59.6405346 104.6420623  13.4748337
  59.9881250 106.0588123  13.8785431  47.4698151 106.1818697  14.7317860
  47.6400280 105.6123640  15.4820606  46.5549332 106.4444687  14.8330948
  96.7476959  85.1286125  92.1113777  96.8538232  86.0521698  92.3394108
  97.5724430  84.7205162  92.3749828 102.1400840  58.1962156  72.8097868
 101.6523047  58.7976313  73.3724642 101.5716274  57.4304438  72.7280474
   5.5482215  35.2245879  73.3420229   6.4367950  35.5803990  73.3503437
   5.1878053  35.5000353  72.4991369  12.1055388 104.8145771  52.5396490
  12.5537789 104.6855736  53.3755112  12.7427840 104.5382977  51.8809986
  53.6218847   4.9128920   0.4825661  54.1642941   5.5589301   0.9349606
  53.9669813   4.0674025   0.7694313 113.4475149   1.8511445  37.2179100
 114.2270220   1.4829356  37.6338646 113.7519587   2.6651913  36.8168137
  33.0341077  51.2849426  69.7893524  32.3904514  51.9035196  70.1347542
  33.6208963  51.8221283  69.2570496 107.3901380  33.0011994  24.3599102
 106.4718593  32.9568726  24.6264336 107.4593366  33.8235146  23.8749001
  84.5339246  79.3210697  55.7675028  83.6812396  79.3841839  55.3371811
  84.9306317  78.5319805  55.3984594  84.8434896  46.4188248  13.1742832
  85.5226786  46.6090924  12.5271866  84.8832191  47.1536881  13.7863514
  14.4402957  70.3090858  86.3938618  14.6295118  70.1425457  85.4704475
  14.9140620  71.1164808  86.5935993 102.3294218  86.1996555  75.2834606
 101.5120406  86.2484550  74.7877407 102.1867581  85.4914951  75.9114647
 103.0025805  25.6746346   2.2283432 103.9191616  25.8216340   1.9948742
 102.9945196  25.6853635   3.1854412   5.1291435  17.7997596   8.3296940
   5.6980532  18.5153682   8.0460045   5.3543537  17.6652915   9.2502567
  31.5666903  94.0021421  25.4874680  31.4834857  93.1518890  25.0557587
  31.9619382  93.8022448  26.3360283 116.5575562 105.7475090  67.2959852
 115.7981633 105.2424049  67.5865507 116.5272762 105.6973171  66.3405848
  32.7444577 103.7101936  76.7607260  32.8908634 104.4186592  76.1339235
  32.3095775 103.0260944  76.2516880  86.1475916  42.5353867  12.1947643
  86.7374969  43.2125813  12.5258896  85.4575426  43.0196339  11.7413685
  53.0303348  13.4684998  19.8596832  53.5874809  14.2291600  20.0246594
  52.4607218  13.4178359  20.6272766   4.2984226 101.9385052  78.2963419
   3.4229487 102.0542526  78.6656332   4.8297232 102.6096630  78.7246990
  25.2352619  75.5654192  91.8911171  25.4646301  75.3071642  90.9984016
  26.0628963  75.5303574  92.3707199  54.8011142  96.4331056  11.6720554
  55.6678623  96.0824587  11.4670536  54.9707181  97.1463634  12.2874710
  35.8878422  93.9948750  94.9835777  35.2950835  93.8640308  94.2434692
  35.4719162  93.5288239  95.7088566  16.3577479  33.8909585  12.5590393
  16.0756129  33.4052998  13.3341286  17.0637863  34.4554002  12.8739235
  18.6287362 106.7959787  21.6790936  18.1527979 106.3226988  20.9966538
  19.3392331 106.2053062  21.9291660   8.6734397  90.2864410  46.4963314
   8.6198646  89.3960549  46.1490891   9.4350130  90.2720358  47.0760128
  70.5255456  72.9872131  80.6840038  70.1682754  72.8729582  79.8033571
  69.7998471  72.7655745  81.2674999 114.2616342  84.5330906  61.1034822
 114.5604841  83.9788628  61.8244171 113.8512440  83.9252949  60.4883432
 104.0383632  49.4621849  77.7028799 104.6829100  49.8078156  78.3203983
 103.9514168  50.1465559  77.0393229  36.9800591  57.5212145  85.2078819
  36.9032001  57.7052689  86.1440659  36.2071562  56.9950247  85.0029945
 110.5961216   2.4536044   8.4795639 110.8021272   2.5442082   7.5491974
 109.7170509   2.8220898   8.5672257  13.0095458  57.5109959  95.3848839
  13.3213639  57.1796465  96.2270260  13.8076949  57.6978254  94.8906231
  15.1236176  89.7699261  95.8225727  14.9442935  88.8583565  96.0530472
  16.0381782  89.7700882  95.5400658 112.2631300  15.3396613  27.7773640
 113.1108392  14.9052293  27.8716538 112.3374856  16.1289126  28.3138153
  13.2031524  97.6498795  90.3774929  12.7120590  98.4530354  90.5507088
  13.3115995  97.2451305  91.2380981  18.3321190  61.5733337  96.7487812
  18.6611176  62.0670319  95.9976101  18.4133935  60.6562614  96.4868450
  19.2591643  78.6296511  92.3029804  19.1586590  78.4597540  91.3663483
  18.4812033  79.1346312  92.5396347 104.5041867  57.4301577  78.0612469
 104.1853924  58.0468464  77.4022341 104.7470374  57.9799986  78.8061810
  31.5315866  91.0344601  74.0952015  31.9119596  90.3938293  73.4942532
  32.2677517  91.5909290  74.3494415  95.3085102  34.3983514  39.5673630
  95.2907814  33.4559876  39.4004318  95.1635195  34.7964150  38.7090179
  22.0414764  81.2279631  11.4333603  22.1167869  81.3732173  12.3764774
  22.9444975  81.1201264  11.1347744  50.9402961 110.7049467  13.5413811
  51.1838717 109.8151638  13.2860634  50.0173980 110.7796146  13.2986614
  53.8483066 104.5801403   0.7715961  53.0459577 104.6936228   1.2810967
  53.5714466 104.0964748  -0.0066402  75.7949931  94.7066523  38.7409851
  76.2386352  95.5196215  38.9828465  76.4088208  94.0156366  38.9898655
   0.1271675  57.9273891  96.0327911   0.5765441  58.6892319  96.3986874
  -0.4259238  58.2860422  95.3387451 117.6445427  20.0613809  95.6089878
 118.2664595  19.3794596  95.8628178 117.3328318  20.4222417  96.4389515
  28.2619673 102.0293380   7.6158783  28.0768770 101.1967470   7.1814034
  28.3540148 102.6578809   6.8998501   1.3348673  57.2286987  87.8306866
   1.5928191  56.4135122  87.4003887   1.8579882  57.2525215  88.6319447
  85.8726198 109.4273044  40.6210110  85.8368189 109.8786356  41.4643738
  86.7965013 109.4571020  40.3724453 110.8373256  67.9099464  91.8607616
 110.0690229  67.5895500  91.3882256 111.0014053  67.2453308  92.5297928
  17.7529716  87.8208160  60.3471231  17.6282036  87.2453403  59.5924759
  17.9099727  87.2247982  61.0794783  80.2270960  18.2774932   6.2671539
  81.0292161  17.7659423   6.1615536  80.5299538  19.1455418   6.5336105
 117.9840725  98.0119038  78.8944817 117.4526572  97.2811985  79.2105532
 117.3463213  98.6723995  78.6238194  17.7740932  79.4377851  85.7625294
  18.5447121  78.9721775  86.0874653  18.0238330  80.3614712  85.7882690
 115.5380873  50.2588940  94.4928837 115.7782023  49.7839975  93.6972427
 114.6927012  49.8886967  94.7468662  88.0282433  48.8066346  31.2791130
  87.4701227  49.3789250  31.8056271  88.0292071  47.9734475  31.7503235
   8.0719113  65.4333782  88.4185791   8.4739804  65.1309013  89.2328739
   8.7828130  65.8680058  87.9474640  58.4644169 111.1752178   5.0664684
  58.9085383 111.0513736   4.2276260  57.8326899 111.8752815   4.9019596
  26.4351768  88.5538985  15.4332993  26.3835043  89.3480994  14.9015114
  25.5411333  88.2120468  15.4407475   5.2426511  85.8538723  69.1783285
   4.4389868  85.6372166  69.6509981   5.7674986  85.0544357  69.2192411
 116.2557019  28.6498982  11.2552902 115.5815066  28.0990083  10.8575222
 116.3869894  29.3594796  10.6264088 113.7448557  47.8482389  94.2150211
 113.1350906  47.5325060  94.8819065 113.1839444  48.1377983  93.4954643
  89.2224611   0.1649529  28.8595459  88.8107682   0.8639676  28.3514950
  89.6660937   0.6189782  29.5759842 113.4838499  19.0853364  16.0153553
 113.1396235  18.7007958  15.2092144 113.9542545  18.3684594  16.4408466
 104.8072131  49.9773932  71.9732761 104.2603405  50.5310535  72.5306129
 104.9538167  50.5010653  71.1855555   3.5124183  92.0216942  91.8877888
   3.5578752  92.8462029  92.3719025   2.7378809  91.5810966  92.2373581
  89.2867137   4.2129762   6.7529461  89.0998269   5.1349027   6.5758774
  88.4365077   3.8351781   6.9779942  87.1766520  58.2352025  39.7417614
  87.3151923  58.1245858  40.6823990  86.3342125  57.8134400  39.5725033
  35.2203140  96.6212846  18.0388042  34.9291012  97.3975422  17.5604221
  35.8905012  96.9474746  18.6393711  90.0089551  11.3993270  51.6533253
  89.7382868  10.9025294  52.4254391  90.2122475  10.7317645  50.9981415
  72.8210873   5.5852753   8.1762955  72.9579760   4.6391494   8.2247135
  71.9316287   5.6814820   7.8359482  20.3816962 105.9184074  82.3897362
  20.0940228 105.0637436  82.0687580  21.3104773 105.7994366  82.5883484
  72.9613090  64.9080426  14.4984505  72.2890426  65.0393063  13.8298199
  72.4766315  64.8815114  15.3234360  48.8511229  69.9860525  62.6363325
  49.7021818  69.9503994  63.0729818  49.0209055  69.6573305  61.7535257
  94.2538471  95.9993172  87.8919697  93.5401936  95.7850266  88.4928131
  93.8791032  96.6486931  87.2968960  96.9350530  63.3371884  13.5294697
  97.5232364  62.8547150  14.1104099  97.3515786  63.2844025  12.6692650
  77.4471957  87.5992800  28.2073662  77.4160701  88.3646156  27.6333210
  78.3075268  87.2125723  28.0445168  64.8030264  17.2992282  95.7275772
  64.9642688  16.5829997  96.3417912  64.1219455  16.9653087  95.1437473
 106.8681200 102.0549870  81.6552448 106.8242355 102.9659939  81.3647747
 107.8006728 101.8405342  81.6310310  73.7912489  40.0343663  26.9162151
  74.4975300  40.4971368  26.4653942  72.9929681  40.3326566  26.4803288
  53.3923912  82.1362877  74.7301435  52.8509998  82.7471256  74.2301464
  54.0876293  82.6801872  75.1003504   1.9542043  90.4934883  50.4823732
   1.8830432  90.0956059  51.3500452   2.7234668  90.0793076  50.0913143
  99.5301546  50.4037244  12.9559395 100.1536334  51.1211259  12.8425667
  99.9214471  49.6693284  12.4828884  24.4096041  56.8742609  70.5152750
  24.2842650  57.1644783  71.4187670  23.6060143  56.3997173  70.3024769
 102.1097751  73.2928944  61.3218212 101.2157519  73.0221796  61.5307856
 102.0198770  74.1912889  61.0039568  40.8687166   8.7688403  88.2346821
  40.3795787   8.1730228  87.6672459  40.6169619   8.5147338  89.1225338
  83.0331750  83.2414913  90.6081009  83.7272806  82.7515602  90.1671791
  82.4444170  82.5682831  90.9492588   1.9994515   1.5709311  23.6722157
   2.4078863   0.7922084  23.2940552   2.7350968   2.1104628  23.9619801
 117.0873839 106.4161110  44.5894480 116.1444519 106.5687084  44.5276022
 117.3840447 106.3783169  43.6801672  24.8439455  74.1152477  66.4844656
  24.3266964  73.5851765  65.8780766  25.5691957  74.4461727  65.9546280
  91.7530662 109.1390373  17.3273632  92.2900850 109.2680694  18.1091568
  90.9188444 108.8094475  17.6615498  58.4826261   1.5689616  52.6801682
  57.9709703   1.6481452  53.4852600  58.5960705   0.6261115  52.5602293
  28.9118266  52.3496485  95.9037876  28.6821699  53.2752419  95.8215523
  29.8407197  52.3121738  95.6757832  73.4027148  12.2479588   3.9957306
  73.7631268  12.6648671   3.2130882  73.6751951  12.8157145   4.7165844
  54.2773832  21.1544425  16.7380783  53.3366288  21.3085229  16.8245194
  54.6819867  21.9680888  17.0389339  28.7747025  82.0211124  92.1072102
  28.9476180  81.2387753  92.6309299  29.5892191  82.5221539  92.1489906
  93.9592601  35.0767190  10.8560154  93.5440637  35.3211076  10.0289032
  94.7633422  35.5953461  10.8827946  81.2409622   8.6875159   9.5924160
  81.3274483   9.6402747   9.6241257  80.3467433   8.5181910   9.8889515
  12.3362732  53.4070730  88.0634308  12.3072231  53.0367279  87.1812534
  12.2048903  52.6564932  88.6427402 102.9637857  88.0812645  87.0368958
 103.6723299  88.1043148  87.6800632 102.2910507  88.6567116  87.4009323
  61.9165493  47.8226811   5.9954807  61.2492085  48.2667023   6.5186760
  62.7238441  48.3029801   6.1793873 104.3386431  60.3108931  59.8554039
 104.5548434  60.6475115  60.7249880 104.2361326  61.0937309  59.3142080
 101.4053334  22.2953994  17.7126476 102.0186461  21.6693265  17.3278019
 100.5761660  22.1236951  17.2662994 111.8172623  57.5190020  92.0947552
 111.5292795  57.3410606  91.1994171 112.3342033  56.7507458  92.3372269
 110.5602468  30.1385266  34.8556301 110.9601892  29.4061047  35.3244946
 110.6143201  29.8903043  33.9327595 101.5972031  34.4556672   5.9309074
 102.1423043  34.7489697   6.6610214 100.7628621  34.9071557   6.0584423
  36.4376376   6.4548926  82.4217796  36.9024414   5.7714992  82.9046631
  36.2900129   7.1460776  83.0673027  18.5781705 106.2892056  67.4651909
  18.1613195 105.6001949  66.9477654  18.2617712 106.1437893  68.3568048
  53.1918318 109.7782518   4.1698143  52.5345320 110.4711916   4.1063473
  52.8063769 109.1363813   4.7661755  97.8014017   6.7141587  12.1700832
  98.6821748   6.3630301  12.0390293  97.4817921   6.2718541  12.9564926
  88.5355605  11.1090094   6.3496468  88.9402033  10.3929383   6.8392727
  89.0282632  11.1470467   5.5298683 103.6112936  83.8523293  57.0492792
 104.5075436  83.6307430  57.3019981 103.6683889  84.0522861  56.1149406
  67.1500171   9.8404509   4.4572899  67.8342093  10.4778916   4.2528793
  67.5533200   8.9908130   4.2792580  41.1559356  58.2747990   9.6518585
  41.3768829  57.3453576   9.7113869  40.8977569  58.5170419  10.5411789
  48.4013129 109.6174146  30.4320595  48.7693620 110.4198410  30.0620720
  48.2857901 109.8133995  31.3618347  22.4047089  81.0215950  94.8288631
  21.9947886  81.5867805  94.1740608  22.5912952  80.2081776  94.3600750
  19.6692884  77.6065779  73.0675411  18.7226593  77.4668932  73.0427504
  20.0331497  76.7454624  73.2732582  62.0603181  11.3608701  25.8199474
  62.5815512  11.6767127  26.5580532  61.7378164  12.1564967  25.3966305
 101.8115366  32.5681741  19.5055458 102.5643457  33.1080109  19.7465584
 101.8580807  31.8154294  20.0949833  29.7735000  53.4499931  69.5938444
  29.7874451  54.3297195  69.9708319  30.0583458  53.5729122  68.6883163
  13.4684622  36.6824079  86.1825848  14.1287971  37.2304535  86.6066551
  12.6853704  37.2319627  86.1511326  81.9765640  36.8830640  42.0402882
  81.0458825  37.0686585  42.1652576  82.3456098  36.9038541  42.9232380
  85.0146337  59.6860695  48.9479494  84.0647407  59.6454477  49.0587854
  85.3170581  58.7998819  49.1465521  66.3888861  44.3852288   0.6836292
  66.7132605  43.7947900   0.0036308  65.9084452  45.0607640   0.2050373
  78.3472197  17.1262843  30.2868626  77.9741781  17.6520736  29.5793221
  78.9134347  16.4948375  29.8431179  79.5910826  55.9878308   4.3551037
  80.3551827  55.4926163   4.6503136  78.8802223  55.6933743   4.9244949
  61.9145311  27.3230321  10.1694843  61.2715317  26.7198521   9.7967121
  61.6991628  27.3566872  11.1015293  10.8848917  81.8246651  95.8456421
  11.2539756  82.6947880  95.6943417  10.3765464  81.6394997  95.0559998
  46.1115665 110.3319503  25.5262920  46.6498924 109.6439745  25.1349804
  46.7277444 110.8565666  26.0375092 106.4622105  55.9059960   9.8216984
 106.4987601  55.1770455   9.2024014 105.5588211  56.2183244   9.7709534
   9.2451215  67.7453804  81.3909435   9.0186024  66.8331194  81.2101173
   9.7077763  68.0374861  80.6055355   7.7266115 103.2512379  50.6311893
   8.2440346 104.0165901  50.8816767   7.5179756 103.3948517  49.7081089
  42.4575896  93.9306927  84.9754810  42.1206947  93.7422085  84.0995789
  42.0341392  94.7525978  85.2232265 107.7016433  82.5269413  70.1214600
 107.3673613  83.0532360  69.3951702 107.5995393  81.6215611  69.8280430
  19.2927134  64.8453712  77.2983360  18.6730778  64.1176748  77.3507023
  18.8349748  65.5134678  76.7880917   0.7208721 100.5324268  68.8790369
   0.3222056 101.3185310  68.5057449   1.4345819 100.8620548  69.4251156
  91.2885011  29.5134026  18.5121510  90.5217291  29.3190247  19.0511391
  91.0326315  30.2800328  17.9992744 116.0021184  85.2132988  80.6780434
 116.4385991  86.0462475  80.8567142 116.7035828  84.5629597  80.7131004
  19.2136157  84.4512177  92.9634476  19.3393254  84.7735786  93.8559246
  19.0429354  85.2383900  92.4462795  70.1433641 102.6232197  19.2642662
  70.3941972 103.3463957  19.8390076  70.7146794 101.9008257  19.5249912
 112.8390743  79.6231604  74.9437475 113.2077821  78.7452555  74.8459339
 111.9064958  79.4751549  75.1006699  21.5891075  98.2015228  78.9555454
  21.3928866  98.3889771  79.8734713  21.4206171  97.2640038  78.8612270
  86.3550330  16.7799050  19.2270824  85.5898924  16.3936002  19.6531841
  86.1936606  17.7230079  19.2542908  87.4545927  74.8116636  92.3991966
  88.0687018  75.1626921  93.0440903  86.8672724  74.2522573  92.9074764
  31.5563107  91.1239147  93.2586193  31.9353914  91.9991398  93.3392334
  30.6527901  91.2257481  93.5578060   5.4755419  15.6137807   6.5543243
   6.3218325  15.8775288   6.1931393   5.2818936  16.2753636   7.2184345
  97.8074165  88.5968113  85.9435177  97.5937553  87.8778172  85.3488541
  98.4419830  88.2219601  86.5542889 117.2154654  12.3285157  29.3670151
 116.6520632  13.1014830  29.3305370 117.5464738  12.3155648  30.2650616
  20.6021786  70.5326366  63.1190920  20.8790612  70.6903887  64.0216875
  20.8711243  69.6316099  62.9400682  47.4087954 100.1718426  93.5595417
  46.6428709  99.7889042  93.9872551  47.7741718  99.4572067  93.0379868
 113.5741747  17.1393019   6.9636986 113.9182270  16.7075879   7.7456734
 112.6531995  16.8803078   6.9327423 100.9167064  58.7651116  11.2859318
 100.8853520  59.6453626  10.9112141 100.3702296  58.2373292  10.7036659
  10.7884789  40.4263592  73.1192064  10.4156649  39.6425533  73.5228014
  11.2852502  40.0969267  72.3702621  18.3432305  60.4784107  93.6778641
  18.5403705  61.4118433  93.7557507  19.0873837  60.0411034  94.0916634
 106.1901868  11.9235236   8.6449406 105.8083166  11.2197882   8.1203815
 106.2423767  12.6678759   8.0454037  91.1512280  38.6006886   4.2170116
  90.2174021  38.8108022   4.2097446  91.1813379  37.6446778   4.2540905
  30.5676103  88.9709473  83.2002163  30.6639838  88.1116009  83.6106586
  29.9581861  89.4411469  83.7691975  77.4392840  25.6219823  35.5351231
  77.3015007  25.7390649  36.4750931  76.5917409  25.3249032  35.2039883
  18.7579525  71.0801411  86.5028763  18.4050095  71.1536694  87.3895836
  18.3893025  71.8296957  86.0354328  73.1897045   1.2551600  15.0683186
  72.6149053   0.6425435  15.5271599  73.3974946   1.9235045  15.7212898
 102.0149048  79.0063667  70.7385874 102.7478833  78.3921766  70.7803726
 102.3046930  79.7604084  71.2520790 108.1651462  35.6448323   7.8502056
 109.0725053  35.9437520   7.9100201 107.6454462  36.4006287   8.1239101
   9.7826689  21.3973052  11.3133022  10.3096550  21.6337306  12.0765945
   8.9137572  21.2128789  11.6699764  16.8108237 107.2389793  83.4889507
  16.7582786 106.6471100  84.2393875  16.4578974 108.0678463  83.8124561
  63.9051367  84.6306855   7.9260895  63.9836598  85.4444463   7.4282333
  63.3609189  84.0658242   7.3774597   6.0913038  63.0244112  86.5998936
   6.7290288  63.1509876  87.3024082   5.3698343  63.6127758  86.8224812
 102.2693361  39.4828469   3.4155342 102.6272214  40.3188283   3.7143395
 102.9699577  38.8509518   3.5770008  95.6409646  27.1074158  24.5110104
  96.0752440  26.2706334  24.3453953  94.7390367  26.9706876  24.2210743
 103.5453911  46.5114164  77.7900362 103.5020955  46.0854864  78.6461544
 103.6901434  47.4362993  77.9897070  74.9534590   4.1777282  70.3252935
  74.7446520   4.3104129  71.2499666  75.8365685   3.8085036  70.3297567
  86.8460901  21.0713441  14.0632412  87.6298947  21.2555892  14.5808670
  86.3251317  20.4892213  14.6163914  91.0191346  12.7967936  13.6097500
  91.3525952  13.1041629  12.7668068  90.7740928  13.5959298  14.0761921
  60.7888115  20.7815368  31.6885254  60.5421484  20.9075314  30.7722733
  61.6868795  20.4523713  31.6517136  12.2935808  99.8812103  67.0987082
  11.6890013 100.2071381  66.4320135  11.7821395  99.8841476  67.9078150
  20.3849220  42.6366234  91.9703007  20.7108378  43.5313749  91.8731976
  20.5270171  42.2355843  91.1128521  54.6979684  16.9389205  65.5545044
  55.1975853  17.0470862  66.3637686  53.7866885  17.0704608  65.8162260
  90.5005456  49.4305379  30.1639816  89.5727278  49.3510300  30.3854820
  90.5258573  50.0917870  29.4723484 100.7977076  48.7682724  67.1969986
 100.8444865  47.8673124  67.5168705 101.6779680  48.9519596  66.8689251
  11.5920305  33.5739946  80.8446598  11.3528955  34.2616630  80.2232456
  11.1009574  32.8059912  80.5526829  37.7785886  50.5365903   2.8467629
  38.2717718  50.0207192   2.2088882  37.7493680  51.4167840   2.4717400
  12.3934960  88.5964966  78.9449024  12.0895457  88.8686657  78.0790091
  13.2430041  88.1863594  78.7825537  91.0709048  26.0326535  57.3685905
  90.7275845  25.2909428  56.8703625  91.9577313  25.7674748  57.6124165
 112.8872605  71.5893602  75.8117580 113.4458007  71.5205574  76.5860558
 112.1221615  71.0531521  76.0199261  17.1306813  74.4493437  44.5567131
  16.7562985  74.6333027  45.4182386  16.5653849  74.9202394  43.9443970
  10.8347862  10.3984839  18.5616848  10.3965348  11.1105305  18.0956814
  11.7614668  10.5068785  18.3477852  80.5504394  27.8196484  45.4588673
  80.6164996  28.6923940  45.0713131  79.6567220  27.5379044  45.2636215
  14.4933683 104.6764995  29.0195343  15.3642232 104.9534084  29.3044350
  13.9372236 105.4404356  29.1722939  20.3714085 102.6116657  74.6893167
  21.2647533 102.2687817  74.6647596  19.8732972 101.9482899  75.1668739
  64.8680747  75.1384980  16.8089363  65.7717825  75.0047166  16.5231964
  64.9213053  75.8508069  17.4461243 103.4836853  33.4552152  22.8936646
 104.1203965  33.7174661  22.2287914 103.3116163  32.5317914  22.7094719
  57.2000355 100.7041313  13.4864971  57.0367223 100.2423574  12.6641056
  57.8485185 101.3713838  13.2618305  79.3826419  37.5685937   5.0881455
  79.3009356  37.4512917   6.0346100  79.8964299  36.8153054   4.7969124
  75.6767310  23.9964158  10.1008865  74.8282791  23.5811240   9.9463150
  75.4662470  24.9139458  10.2742836  42.2281599  58.4574509  87.0959187
  41.4625740  58.9253998  86.7625618  42.1609640  58.5355234  88.0475616
 111.0894121  58.8924081  14.1255924 111.5765632  58.9432866  14.9479839
 111.2468804  58.0030686  13.8085625  83.9502920  25.7050855  21.4740154
  83.0436052  26.0112244  21.4947578  84.4410784  26.4353139  21.0970089
   4.5537269  62.7109766  82.3956490   3.9466670  61.9714499  82.4241161
   5.2750045  62.4509668  82.9686928  12.7530253  81.1460018  59.4590473
  12.8553963  82.0902061  59.5783806  13.2391119  80.7585049  60.1869154
 114.4198359  10.5948598   7.3232529 115.0447429   9.8698003   7.3262569
 114.6752299  11.1280495   6.5704414 100.5457939  14.9372250   9.6526691
 100.5158056  15.8346755   9.9842045 101.3708080  14.8877055   9.1698334
 110.9992291 101.8376923  74.1315746 111.9530322 101.8416786  74.2120504
 110.8155550 101.1478329  73.4939194  87.7704872  51.9192559  32.7700111
  87.0033450  51.3691193  32.9283783  87.4860693  52.5393159  32.0985481
  89.9094332  55.5285794  24.0723583  89.7707427  56.0016114  23.2518456
  90.8318151  55.6764561  24.2811081  16.2836885  93.7956905  66.8098688
  15.5851102  93.4638786  67.3738861  16.0050607  93.5662746  65.9233236
 107.5405634  77.6215512  15.0223038 108.4375370  77.4096066  15.2806637
 107.0805324  77.7646119  15.8494255  54.7326040 109.1478443  70.2964735
  55.2580547 108.7943363  69.5787191  54.0412188 108.4993076  70.4291630
  45.1372545  23.9936787  23.2196781  45.0931471  24.1202647  22.2719166
  45.1282042  23.0435044  23.3350918  52.2307665  93.8700058   1.5611336
  51.9583625  94.7826745   1.6563389  53.0897898  93.8313367   1.9816277
  74.9058873 110.4558899  11.9937202  74.0617902 110.0742151  11.7527744
  75.4963643 109.7058679  12.0647022 106.4381851  25.7053239   6.7971012
 106.1817349  24.8498208   6.4527294 107.3443211  25.5870110   7.0819637
  25.5405092  49.9967337  84.8863506  26.0290694  49.5895720  84.1709709
  25.2610850  50.8420801  84.5348644  60.1879049  33.8343865   2.4959633
  61.0184003  33.7317330   2.0312378  60.4266060  33.8045937   3.4224484
  86.1340321  46.3849313  23.2994148  85.7769001  47.0476300  23.8906166
  86.8434114  45.9777219  23.7966129  66.1697483  75.3797340  86.0144901
  66.9068432  74.7692537  86.0299778  66.4152861  76.0674381  86.6333675
  23.2512546  80.8787441  82.3793411  23.5798621  80.2657223  83.0369473
  23.8528943  81.6219616  82.4228954  43.0194134 108.9499380  24.2493507
  43.2170907 108.3001377  24.9238274  43.1502754 109.7930147  24.6833298
  95.8863367  38.2390172  20.0052616  95.6835390  37.3041303  19.9722549
  96.8040336  38.2756574  20.2749321  34.1238523  77.4344873  71.1795664
  34.3254566  76.6627407  71.7087126  34.4171453  78.1735563  71.7124701
  92.3270369  24.2327697  12.0858357  91.9190575  23.6985738  12.7673218
  91.7191399  24.1849334  11.3479969  34.4763497  19.9482875  63.1345272
  35.0232804  19.3192344  63.6050558  33.9294792  20.3446250  63.8128233
  30.3590178  74.1911697  76.7029762  29.6777964  74.5659876  77.2612619
  31.1710453  74.3288851  77.1907043   6.8789166   9.8533351  23.3244488
   6.5765827  10.3909928  22.5924942   6.1689871   9.8995358  23.9648411
  13.7994742  96.8450928  63.5062790  14.2465794  97.6893616  63.4467936
  14.1399050  96.4498043  64.3088245 102.9029293  51.5213013  91.5584850
 102.2475095  52.1690798  91.8173981 103.4822269  51.4502716  92.3171711
  88.0718626  42.8809506  26.0830757  87.1381749  42.7305085  26.2308094
  88.3852769  42.0688206  25.6850121  99.1063512  26.7500550  28.4046337
  99.9487771  26.3833386  28.6730930  99.0623511  26.5846974  27.4628517
  95.0188697  22.2913558   4.2974445  94.6655489  23.1690175   4.1521618
  94.6153952  21.7547757   3.6151573  21.1289144  87.0733738  80.6969070
  20.4600596  86.5857601  80.2161789  21.2180352  86.6037273  81.5261936
  22.1829963  90.9463692  87.2575665  22.4785376  91.7455482  86.8214417
  22.1296740  90.2967072  86.5566254  78.0370076  55.2716405   6.4516708
  78.4700199  55.0009877   7.2612927  78.1751680  54.5400769   5.8500454
  94.0696765  64.4428307  46.2702820  95.0100184  64.2732865  46.2133286
  93.6885930  63.9179093  45.5663940  10.4835057  77.5223875  64.9415350
  10.8483887  76.6435432  64.8379850  10.0001919  77.6781893  64.1301346
  10.5762165  26.8345124  23.0974361  11.2437361  26.3573129  23.5903141
  10.8255928  26.7170102  22.1807835  12.6562994  86.8151337  58.4357044
  12.8376406  87.2528416  57.6039860  13.5208863  86.6244752  58.7995216
 113.0158318  76.0439832  18.9608070 113.6973060  76.2867410  19.5876190
 113.2613457  75.1663453  18.6680386  75.2505092  40.3956181  21.1515877
  75.9793193  40.6340272  21.7244980  75.0242714  41.2090928  20.7007000
  18.4599936  90.7230282  85.8467102  19.0682924  90.2456570  85.2825165
  19.0024090  91.0419369  86.5680408  83.3612422  57.3184449  30.9755585
  83.4876342  57.1639878  31.9117233  83.6237613  58.2297189  30.8455727
 113.4169377  48.5748727   6.5468380 113.6066378  48.0376584   7.3160240
 113.0747188  49.3938500   6.9051621  83.9898784  52.0475632  45.7084152
  84.8345048  51.5994031  45.7529804  83.8751728  52.2506291  44.7800610
  98.1360711  69.2360265  13.0070469  99.0734113  69.4292123  13.0245182
  97.8289796  69.6138532  12.1829197  24.5646071 108.4680748  76.4907646
  25.2092505 109.0206146  76.9327545  24.1848588 109.0339088  75.8185577
  37.4199065  20.5792956  58.0310535  36.6176349  21.1008887  58.0540371
  37.5131354  20.3235965  57.1133614 100.6825603  33.8120801  50.2847645
 100.2337206  33.1067521  50.7509014 101.0767783  34.3434197  50.9765026
 114.9980892  25.3365285  13.6843655 114.5919908  24.5518166  13.3162090
 114.2779864  25.8014542  14.1104290  60.8240175 105.6172657  94.2797947
  60.7596350 106.4459705  94.7545052  61.6087103 105.1987743  94.6338463
  65.3844458 109.3605663  17.3305008  65.6569082 110.1589300  16.8781635
  65.7419473 108.6498357  16.7982552  85.8902008  86.9134671  16.9541428
  84.9871934  86.6343839  17.1055386  86.3518156  86.1104161  16.7127964
  88.0605204  60.7602555  11.4834854  88.8429571  61.0680825  11.0260269
  88.2525272  60.9044320  12.4100849  82.3358251  20.7845218   3.8776753
  82.4910007  21.4416701   3.1992123  82.6797337  19.9717671   3.5070202
  43.5076094  76.4813757  77.1201277  44.1325951  76.5502357  76.3984013
  44.0456343  76.2725115  77.8837585 103.3900912  85.0343895  70.9115219
 103.2674952  84.0861130  70.9560966 104.3360622  85.1575565  70.9902620
  53.8233012  18.8346152  94.6831989  53.8863796  18.3453040  93.8629436
  52.8942830  19.0512900  94.7620010  89.9639047  97.5330312   4.2250607
  89.9926175  97.6060635   3.2710907  89.5667268  96.6774804   4.3879387
  29.3372536  95.1710796  90.5198860  29.4557023  95.3917122  89.5960236
  29.6533036  95.9411526  90.9924698  36.7663622  94.4295788  58.3990097
  37.3488903  94.4529343  59.1581821  36.4768219  93.5186958  58.3472109
  60.4935295  12.1449046  94.9502087  61.4121515  11.9535117  95.1392365
  60.0052292  11.4842563  95.4414654  32.3617172  50.9468079  86.7068100
  31.7137551  51.0533571  87.4032497  33.1731105  50.7295084  87.1657848
  43.9648676 101.1519623  40.8172131  44.0634394 101.1668873  41.7692089
  43.0405569 101.3517094  40.6689692  69.8365075   4.2788940  58.9592695
  70.4377681   3.7538295  58.4310389  69.3144018   4.7620158  58.3187771
  98.9591754  52.9640061   5.0820133  98.3607412  52.3923451   4.6010563
  99.2846859  53.5780484   4.4238064  93.0310131  51.2119824   5.0491688
  93.5187937  52.0149285   5.2324173  92.3088587  51.4933545   4.4874260
 106.1100186   1.3034827  31.3686058 106.8477453   1.6523034  31.8689224
 105.9630574   1.9488437  30.6771252 116.4770568  43.2932526   7.5056240
 116.1695946  42.4713380   7.8879139 115.8577050  43.4751374   6.7988369
  94.7190077   2.0732932  79.7729921  94.1929561   1.5122466  80.3428459
  94.1146642   2.7584033  79.4872999 106.7325653  37.6478440   8.6406109
 106.6004718  38.2926614   7.9456398 107.0028628  38.1652695   9.3992016
 108.6041136  66.7529249  90.6779957 107.9584403  67.0951509  90.0597572
 108.5242559  65.8018017  90.6057358  76.5264183  39.7261483   4.0759155
  77.3401699  39.7612817   4.5787117  76.4612634  40.5882699   3.6651585
 106.7375053  43.8926083   7.2785446 106.8178452  42.9450757   7.3878834
 106.3415230  44.0012223   6.4138863  27.8626699  14.5696311  73.8083124
  27.0341069  14.1591983  73.5608006  28.2690829  14.8099094  72.9756498
  17.7579653  89.8703671  94.8173904  18.1037760  88.9787006  94.7777176
  18.5347688  90.4294395  94.8017597   3.5593575  64.7765023   0.4878208
   2.7215832  64.3308408   0.3623268   3.5015553  65.1522214   1.3662979
  72.4579055   0.8970885  93.7927818  72.9293067   1.7075591  93.9854908
  72.9531295   0.4959922  93.0785561  25.6544089  78.0921412  72.9831648
  25.5820394  77.2725582  72.4940109  26.4353108  78.5156584  72.6267147
  88.0155451  70.6027753  25.6951878  87.4807901  71.3238103  26.0274288
  88.6263705  70.4100758  26.4065239  14.1075397  82.2402859  80.1040745
  14.4529772  81.4476013  79.6935129  13.6567354  82.6999187  79.3957329
  63.8226563   0.1159434  92.7299976  63.1246502   0.7705932  92.7087688
  64.5575840   0.5629497  93.1498718  62.8035957  15.6610637  93.8013458
  61.9949371  15.3007751  94.1653442  62.5309998  16.0894351  92.9899120
 112.8465808  38.6351926  12.6403496 112.7990020  39.5771272  12.8038666
 112.2677721  38.2485062  13.2973835  70.2363540  56.2988335  16.8886444
  70.3671778  55.4963548  17.3937771  71.0237397  56.8172509  17.0544407
   3.9308327  33.1782777  18.6051914   4.5787447  33.3790833  17.9298279
   3.0879276  33.3631093  18.1909725 100.2635373  45.3041035  10.7890102
 101.0394729  44.7692639  10.6214020  99.6509922  44.7087437  11.2209389
  83.9187414 109.2310144  18.3133289  84.8260195 109.2126371  18.6178658
  83.6682922 108.3092596  18.2510349 104.3417085  51.3616235  27.8979179
 104.6174968  52.0538384  27.2970840 103.5616888  50.9864384  27.4892113
  16.3969660  76.6711712  83.6664009  16.0677373  75.8555603  84.0440464
  17.3454404  76.5495586  83.6235428  74.9096493  61.2989671  21.2195084
  75.1650531  61.6528947  22.0714066  74.9512536  62.0490414  20.6262943
  15.4079741  37.1247536   7.5986645  15.8947628  36.3306767   7.8193543
  15.6490868  37.3089845   6.6908333   9.4712370  76.5738255   9.5378658
  10.0841826  76.7478711   8.8235638   9.9503201  75.9922749  10.1282188
  76.6384959  58.7705380  12.2363731  77.3569814  59.3420178  12.5073311
  76.3154502  59.1606194  11.4241478  76.1127121  24.5005756  95.3812218
  76.8626434  24.0186553  95.7299042  75.4419190  24.4233470  96.0596752
  87.3814417  42.9005868  15.5005524  87.9686863  42.5034863  14.8573658
  86.8411309  42.1744305  15.8120033  93.3057035  54.1435105   9.5113442
  92.7796246  53.3581120   9.6617291  92.7259899  54.7308690   9.0263912
  95.6054080  47.8932339   1.8285820  94.8292650  47.9639489   1.2728569
  95.8736087  48.7992150   1.9818375  81.2228368  54.5921380   6.0866043
  81.0056617  53.6780888   5.9033558  82.1179850  54.5625645   6.4243385
 116.1583866  61.1891324  22.9066917 116.2625922  62.0462949  22.4936077
 116.2573183  61.3609464  23.8431427  72.5784332  42.5690324  23.4461567
  73.1751950  41.8221337  23.4935543  72.3583616  42.7580411  24.3583366
  32.5160217  94.2192364  83.9871788  33.4596395  94.3288803  84.1046333
  32.3925519  93.2731342  83.9104557   6.2163466  46.8146474   5.1984093
   5.3486078  46.7899091   5.6017086   6.4897745  47.7288205   5.2743218
   2.4091788  96.4511776  71.2786388   1.8361595  96.4062977  70.5132198
   1.9018716  96.0455608  71.9817305  76.3731080  50.1290280   0.5522606
  76.3802155  51.0190636   0.9044430  77.0881940  49.6852834   1.0082981
 108.6150588  69.6279961   5.4171536 109.3768776  70.2075345   5.4176209
 107.8713025  70.2099664   5.5732605  72.8515226   4.6601634  78.7848139
  72.2538406   5.2789741  78.3651924  72.2838551   4.1012244  79.3154478
  91.4316828   0.6232028  90.7977676  91.0933143   0.1779132  90.0209522
  91.2220508   1.5462070  90.6551170  80.0066072  38.4473759   8.2234451
  79.7058478  37.7971417   8.8582489  80.8525420  38.1152589   7.9228947
  87.5897695  55.0028092  60.9248802  87.9910893  55.7381589  61.3879463
  86.7875750  54.8206384  61.4142963  57.4439515  67.1967561  27.2383472
  57.4959434  66.2417561  27.1994278  57.5801075  67.4065835  28.1622860
  68.2230247  30.5347783  25.3476688  67.2658564  30.5396802  25.3538391
  68.4681774  31.4482266  25.4951260  93.3371301 103.7183475  92.9248619
  92.8063770 104.3733120  92.4714851  93.8435908 104.2205906  93.5632038
  81.2940333  29.6892697  17.7056000  80.6177236  29.6146447  17.0323536
  81.7956806  28.8773591  17.6321957  80.0331527   0.6633144  93.2479382
  80.3457147  -0.2218861  93.4348869  79.9562914   1.0767703  94.1078091
  54.5873451 107.1969795  93.3330631  54.7232962 106.4898396  92.7024269
  55.4700661 107.4947643  93.5529804  65.8995301  13.5959201  82.2338104
  65.2199084  13.5336166  82.9049778  66.3580305  12.7568679  82.2786140
 110.8868826  73.3442456  35.5709145 111.6901530  73.0656106  36.0106442
 110.6744398  74.1871316  35.9717152   3.1694287  11.0064227   4.6041081
   3.1375187  11.3859326   3.7259361   4.0737742  11.1376340   4.8890183
 113.4851922  53.1480462  10.9687111 112.9670919  53.8865716  10.6487438
 114.0013588  53.5114533  11.6882393  67.5462497  14.0962560   9.8019573
  66.8079830  13.6136395  10.1738045  67.7982140  13.5905415   9.0292999
  23.9880378   0.2577644  73.4135485  24.0110141   1.2139182  73.3750057
  24.4075221  -0.0248475  72.6008987   2.9351133  79.8898458  75.8317232
   2.3078343  79.5913839  75.1731825   2.6971996  79.4089556  76.6244268
 112.0484532  79.5241696  58.7111351 112.6061166  79.8202283  59.4305679
 111.2904490  79.1296059  59.1423962  92.6997043  52.2738511  -0.1487472
  92.0659865  52.9120690   0.1788303  93.5469581  52.6004655   0.1541016
  12.3134678  33.9303929  14.5535538  11.7334812  33.3157689  15.0030872
  12.1724003  33.7559373  13.6230156  87.8747220  96.5119553  82.0193958
  87.5056358  96.3551903  81.1502361  88.5372944  97.1885204  81.8797779
   7.9790324  67.9400253  84.8976612   7.1724868  67.4255514  84.8655128
   8.4399545  67.7135229  84.0898991  69.8573638  42.8865392  25.9147331
  69.8057623  43.7069947  26.4050648  69.4831861  42.2314793  26.5038940
   0.5287498  50.8487183   3.2175419   1.4708489  50.8701188   3.3855507
   0.1454347  50.5463559   4.0408775  16.1101645  63.9511353   4.9674484
  15.2945870  64.1527135   4.5087311  15.8478468  63.8287408   5.8798286
   3.8598740  57.7869081  75.2447891   3.7639302  58.2748795  74.4269180
   4.1827813  58.4331226  75.8727789 112.5133742  23.0346543  12.6495144
 111.9918169  23.5527665  12.0365116 113.3852519  23.0038649  12.2556660
   8.2660317  84.1716957  95.5636787   8.4121889  83.2813835  95.8833981
   8.6777925  84.7327900  96.2208366 109.7805680  50.7178361   6.9090530
 109.9727381  49.8182732   6.6442940 109.8745979  51.2293011   6.1054394
  37.9121064  25.2653747  83.7772274  37.7757751  25.6010680  84.6632099
  38.2070452  26.0255389  83.2758236 101.4972986  66.1623818  29.3684361
 100.7637871  65.5478532  29.3917534 101.4418448  66.5688187  28.5035774
   6.4475125  50.6168706  30.2672550   7.1377676  50.8145196  29.6342442
   6.4371889  51.3729054  30.8542320  97.4996532  50.8917958  47.3022434
  96.5635229  50.7261617  47.4138615  97.6347614  51.7632157  47.6745388
  17.5183314  38.1299168  21.2836620  18.2680529  37.5975758  21.0176346
  17.9013460  38.9635808  21.5566704  10.3075922 109.9840450  89.3336010
   9.3982434 110.0438404  89.6264172  10.2861226 110.2799702  88.4235477
  23.2561844  26.9397218   7.8735230  23.7760990  26.8219811   8.6685440
  23.2320612  27.8874356   7.7412769  48.2938123  15.1757865  73.5676670
  47.5816304  14.9465613  74.1647291  47.8553766  15.5580001  72.8074598
  51.6689301 104.9618244  68.8562059  51.3854694 105.5867290  68.1888485
  51.3359833 104.1179180  68.5509300  18.2018965  47.0903165  27.0626900
  17.9089373  47.5164754  26.2572071  18.8839167  46.4822251  26.7775414
  98.8929356  57.7070576  63.5311100  98.7523259  56.7604691  63.5101673
  99.4553102  57.8488690  64.2925999  41.8564584   4.1484313  74.8711538
  42.3285941   3.7535529  75.6042194  42.5219071   4.2661815  74.1932535
  77.1588630  55.3053052  19.4379303  77.4667999  54.9931199  18.5870716
  77.7525275  54.9009377  20.0705978  65.6843866  27.8550107  27.4966023
  65.3954650  27.6610524  28.3883068  66.6316892  27.7192265  27.5168964
  13.6465651  13.5473209  95.6481647  14.2603475  14.0060001  95.0744724
  14.0958053  13.5019832  96.4921761 116.5646494  70.4268891   7.0608589
 116.5096296  69.4810349   7.1971390 116.9767178  70.7601506   7.8579590
  61.1480839   9.4889598  90.2976990  61.3019878   8.7661319  90.9060287
  61.3190157   9.1150432  89.4332886 116.7876447  69.1667611  11.7185280
 116.9086946  69.6581322  10.9060452 117.6605762  69.1319234  12.1096870
   8.6784387  71.3874769  70.0620317   9.0924418  70.7778931  69.4510984
   7.7710307  71.0884857  70.1207209  38.8982749  89.7721100  94.1221333
  38.9050627  89.8529148  95.0758934  39.1144538  88.8542080  93.9579868
 110.8151926  18.6514003  14.3434975 110.4789175  18.0470187  15.0052235
 110.4808153  18.3091075  13.5144875  85.9757365  46.0821873   4.5130035
  86.9041003  45.8508260   4.4839546  85.9095515  46.8744523   3.9799282
  94.5397831  29.8990304  48.9072010  93.7753774  29.7092110  48.3632443
  94.8604561  30.7410962  48.5841820  60.3422291   1.8945365  96.2166214
  59.9336488   1.7187266  95.3690529  61.0075123   2.5566917  96.0290527
  57.7039069  15.3739791  69.1859818  58.3316261  15.9223418  68.7153482
  58.0146057  14.4795852  69.0454054   4.8117334 102.4664593  81.9736004
   4.9762303 102.0457172  82.8174877   3.8697195 102.6362610  81.9702053
 114.4249214  70.2670342   5.5832073 115.2569593  70.3063065   6.0547993
 114.0937460  71.1648137   5.6066105  57.2162766   4.9249892  55.4127741
  57.8066999   5.6319099  55.1521873  56.3736302   5.1616149  55.0252295
   0.9036701  20.9305817   6.8188736   1.6128271  21.2194640   6.2445232
   1.2936609  20.2367455   7.3505852  85.1135946  77.6940877   0.0865433
  85.9635998  77.2602040   0.0126049  84.7839058  77.4302060   0.9455559
  20.4103869  52.9895360  10.6201527  20.9734123  52.2240025  10.5052635
  20.4702299  53.1929356  11.5535805  74.7670848  15.9876781  85.6156826
  74.9215442  16.9204764  85.7649231  75.0913793  15.8300738  84.7289848
   9.4490546  57.6169348  48.7863541   9.1182089  57.5300837  47.8923559
  10.0590503  58.3534575  48.7455034  73.2156295  37.4909455  28.5782311
  74.1534830  37.3472745  28.7048122  73.1539787  38.3827359  28.2359860
  10.1376045 110.6497574  86.7738724  10.0408757 111.5695095  86.5270329
   9.7970366 110.1632118  86.0231876   6.7042345  85.8087540  94.0332222
   7.1928608  85.1144314  94.4752502   7.3768711  86.3452816  93.6137772
  88.6502571  42.2799641  37.9306767  89.3304528  42.0213849  38.5525295
  88.4569252  43.1908757  38.1522438 113.2162751  74.5960481  25.0802872
 113.7560094  73.8594968  25.3673718 112.9127110  75.0014359  25.8925316
  15.8462780  54.8801476  14.5343182  16.2244957  55.6498677  14.1092178
  15.4929894  54.3580777  13.8140080  18.7840450  82.4727821  78.3136940
  18.1210828  82.1314907  77.7134943  19.4475460  82.8599358  77.7426386
  34.6040964 102.2783375  95.9081459  33.8206124 101.9838715  96.3725567
  34.5655155 101.8284416  95.0641441  61.7303324  70.6727076  84.5956612
  61.4415693  70.8278704  83.6963463  61.2412977  69.8983717  84.8740101
 103.2690443  43.8594205   1.2517902 102.9600752  44.7330815   1.0120365
 103.2334770  43.8469083   2.2082493 111.7212690  53.5613972  37.5692818
 111.7105974  54.2082078  36.8637631 110.8032978  53.3146626  37.6819202
  40.9101295  87.1129704  67.7901268  40.7767963  87.5096035  68.6510181
  40.0625563  86.7259693  67.5708437  88.5417968  21.9827800  88.7172031
  88.6060364  21.2687736  88.0829334  89.0036279  22.7123695  88.3041191
  29.0835398  63.3403546  17.0016930  29.4224947  62.4717385  16.7852375
  28.8145798  63.7090070  16.1602661  45.7492471   4.5637279  81.8031502
  45.8221335   5.2983718  81.1938763  45.0554038   4.0159946  81.4359856
  55.2562428 104.1023254  91.0753536  55.9247065 103.6311436  90.5779839
  54.4534683 103.6010075  90.9323025 114.6578754  58.8366467  22.5191948
 114.6910633  58.3527715  21.6939709 114.9917949  59.7066075  22.3003361
  72.3919231  26.1184554  95.3632355  72.9130966  26.5065246  94.6603775
  71.5916592  25.8198981  94.9311733 105.5940897  28.3733993  95.9717751
 106.5325243  28.5388808  95.8813095 105.4524166  28.3076530  96.9161415
  84.9372239  77.5389058   6.9060585  85.0633473  77.9409081   6.0465691
  84.0726937  77.1311814   6.8552372  10.6878536  83.0610329   9.2761490
   9.9168175  82.5745065   9.5677254  10.9562939  83.5666138  10.0433323
 103.3078326  55.2991921  10.3770992 103.5471285  54.4027573  10.1417896
 103.1336130  55.2615697  11.3175556   9.2572611  59.8329026  57.9695770
   8.8084763  60.2908570  57.2588703   8.5667103  59.6394593  58.6035702
  13.0516182  21.0413699  90.7100105  13.2973038  21.5385108  89.9298096
  13.5979687  20.2561622  90.6755733  54.4766569 109.2341805  91.2089825
  54.8639727 108.5443878  90.6700897  54.9805593 109.2138863  92.0225525
  76.1180408  49.0294797  15.3781864  76.7798188  49.1007287  14.6902916
  76.6205783  49.0064198  16.1925289  69.3202311   7.2389083  93.7042809
  69.3169600   7.5404887  92.7958298  68.7995130   7.8899341  94.1746426
 104.8840083  26.3882214  26.1148521 105.3978957  26.4059026  26.9222233
 104.1057838  25.8772809  26.3374207  66.7891169 102.7603436  92.5920582
  66.5571213 103.4951115  92.0241451  67.6983452 102.9273224  92.8403568
  16.9480293  66.0803468  19.4084713  17.1671408  65.3240830  18.8641617
  16.0171908  65.9730393  19.6040508  32.8380697  57.9382188   0.7660458
  32.0296639  58.0363137   0.2629635  33.2333439  58.8099438   0.7565567
  98.7510044   0.4097705  91.3753033  99.5522196   0.1045184  90.9497356
  98.4573299  -0.3371758  91.8968964  92.9655028  80.5974633  18.8148567
  93.8638736  80.7004124  19.1288063  93.0071355  79.8585755  18.2077763
  66.1670214  21.5351539  62.4110842  65.7016474  21.5437942  63.2474947
  65.8553297  22.3171382  61.9554806  78.3184172  21.3052613  12.3070213
  78.3684219  21.3103062  13.2628986  79.2166194  21.4686591  12.0193264
  85.3758175   9.2384868  86.8448257  85.1273424   8.7084060  87.6021290
  86.2735016   8.9701896  86.6488266 109.2299713  59.0961320   4.5869324
 108.2824410  59.1414315   4.4590160 109.5858015  58.9874608   3.7050030
  37.6410025  53.1841332  19.3628857  37.5881451  53.8284070  18.6569569
  38.1973189  53.5973889  20.0231621  76.9893503 108.7127686  89.0805912
  77.3152065 108.7094498  89.9806118  76.6231680 109.5891285  88.9616776
  23.9555550  92.3536968  75.2098656  24.0479708  93.0620003  74.5726824
  24.5738959  92.5756073  75.9060287  22.9556530  56.8409879   8.2594559
  23.8249129  56.4403493   8.2693741  22.6541441  56.7815072   9.1659805
  21.1882990  33.6750371  33.3216259  20.8611744  34.5502717  33.5294411
  21.0626286  33.1746823  34.1279003  10.8448618  48.3169705  26.8940804
  10.5270403  47.6751572  27.5291225  11.1741179  49.0397507  27.4283287
  97.5316144  66.6078240  18.8491127  97.4452949  66.0634667  18.0665180
  98.3401454  66.3057763  19.2629692  48.8907146  95.8526421  86.9474697
  48.0952120  95.7651234  86.4223480  48.8935328  96.7680454  87.2272205
  15.8369654  61.2994439   4.4037125  14.9109143  61.5163953   4.5114109
  16.2621134  62.1405370   4.2362759   2.2932738  75.2475316   4.4732735
   2.1848934  74.6110589   5.1799461   2.8012913  74.7828633   3.8082573
  77.1079851  25.0169427  44.1536877  76.4970554  24.9330384  44.8857758
  77.1829661  24.1300732  43.8014576   0.7208842  58.9757115  13.6153957
   0.8033245  59.9056584  13.8266346   1.4065808  58.8156850  12.9669830
  64.1218979  19.7325950  77.0574856  64.9957544  20.0458102  76.8240356
  64.0442616  18.8874011  76.6149282 100.2973474  57.3657185  44.9185822
 100.8003820  57.6447541  44.1535160 100.9105075  57.4428899  45.6495544
  28.5250443  99.4881779   6.5154621  29.3328207  99.2578370   6.9744465
  27.9534024  98.7309129   6.6419766  91.6627849  60.6688649   9.5701096
  91.1930705  59.8448426   9.6989128  92.1515859  60.7955605  10.3832790
  95.3323306  52.4985749   0.5821583  95.7255519  52.5634343  -0.2881268
  95.8131183  53.1358487   1.1103222  62.9627020   8.0455451  86.5763950
  63.9001137   8.0040221  86.3872814  62.6560218   7.1455340  86.4661407
  83.7927649  29.1184480  40.5234119  84.2187656  28.6230523  39.8238823
  84.1565044  30.0006158  40.4479191  24.2743087 107.1090984  95.0870037
  24.1485882 106.1925125  94.8414326  24.5502591 107.0759583  96.0029697
   7.5059193  48.4455544   0.8453629   8.1410473  48.7112958   1.5103695
   7.4418848  47.4953420   0.9414932  48.2669837   2.8793483  55.9540892
  48.9272625   2.5992351  55.3202105  48.5356200   3.7631374  56.2050533
 104.2682589  48.8920457   0.6082699 104.2373527  48.7378079  -0.3359154
 104.3705643  48.0202920   0.9901306  21.2546795  80.6661374  32.8777763
  20.9601229  81.3935715  33.4257862  20.4596251  80.1642186  32.6983330
  90.0544036  58.5607011  27.2329113  90.6944920  58.9396531  27.8353283
  90.2297533  57.6200253  27.2577736  83.6085100 105.3486347  86.9365311
  83.4605165 104.4126987  86.8010616  82.9709859 105.5975246  87.6057434
  30.6151312 108.7449891  35.0250980  29.7388046 109.0181405  35.2965328
  30.6820410 107.8344971  35.3127644  10.5638664  54.8177964  30.5406067
   9.7247618  55.2774960  30.5690453  11.2121075  55.5102784  30.4122040
  36.1567855  97.6518822  79.5874357  35.2908897  97.4273300  79.2467976
  35.9796286  98.1080341  80.4100990  12.0664423  66.8425900   5.7074616
  11.6650170  67.3025758   4.9702427  12.0884674  67.4911458   6.4111111
  82.9160816   8.3291679  82.7294254  82.6010401   9.0686183  82.2096252
  82.5626404   8.4842734  83.6053562  57.6711178 107.8573418  95.0567722
  58.6273623 107.8146172  95.0552940  57.3904562 106.9429779  95.0194931
  41.7901819  42.4672181   2.6521847  41.6809481  43.3512360   2.3017284
  42.2697657  41.9968278   1.9703075 116.4332366 104.6565437  87.0367622
 117.1708487 104.4255829  86.4721298 115.8177732 105.1037407  86.4558601
   0.9572237  50.6580216  11.5052673   1.2991970  49.8378426  11.8610737
   0.7179707  50.4463441  10.6029484  72.0798553  60.3838116  42.9744503
  72.5808592  60.0319630  42.2386334  72.2004844  59.7425610  43.6747906
  92.7145744  60.8363969  12.0802853  92.8925599  61.7769009  12.0797321
  93.2501913  60.4916913  12.7947971  46.2755442 107.7784061  49.1360188
  46.9721365 108.4227943  49.0104866  46.1456347 107.7477074  50.0838661
  10.7696271  83.8961411  85.6535149  10.8377910  84.6884727  86.1862469
  11.4895058  83.3420467  85.9551525  22.3516440 100.3054047  70.6445312
  23.1392407 100.3885460  70.1069307  21.8482924 101.0974598  70.4560661
  72.9916925  57.5238759  16.5284893  72.9524399  58.4067876  16.1608479
  73.8749737  57.4543149  16.8907234 110.9076775  41.2695748  10.8296654
 111.8369568  41.1974007  10.6117985 110.5503620  41.8566377  10.1633904
  76.2075359  19.3975406  66.8838882  75.3375656  19.7696834  67.0284510
  76.4209229  19.6312480  65.9805202  24.9572229 110.9420776  74.1729021
  25.4012680 111.6670036  74.6128368  25.6495333 110.3020668  74.0076065
  98.5750164  61.2403638   5.9609577  99.2746819  61.8264252   5.6724617
  98.2060898  61.6696126   6.7328903  30.7150698  91.3197899  77.4374056
  30.1862788  90.6368160  77.8499126  30.9885430  91.8816757  78.1624746
 108.7205661  69.0421349  41.1973545 108.6789812  68.2177884  40.7126400
 109.3601669  68.8802201  41.8908379 110.2714337  41.5104157   1.7009804
 111.0349763  41.5594632   2.2761604 109.6752227  40.9076077   2.1452591
   1.5600079  77.6133878   6.3860008   2.0020693  76.8825299   5.9539578
   0.6376713  77.3580987   6.4047787  14.3216961  74.7697789  21.3689968
  14.4953936  75.6109959  20.9466145  14.3734377  74.9571568  22.3062489
  98.1470264  84.8084122  28.0121014  98.6949671  84.2566926  27.4538967
  98.4276665  85.7020814  27.8150055  72.6683218  57.0988709  13.2241699
  72.4008764  57.2882134  14.1235325  72.7200998  57.9573304  12.8039238
  57.3708481  35.9439235  95.3766537  57.6487619  35.9483867  94.4606972
  56.5441841  36.4264732  95.3784847  41.7770403  82.1374661  22.1758339
  40.9738653  81.6741330  22.4134419  41.8822592  82.8000218  22.8586075
  94.7870244  53.2051617  23.5574982  93.9427484  53.6372907  23.6867210
  94.6866060  52.3521001  23.9799187  81.0664543  69.2027051  18.2615540
  81.2527130  70.0050599  17.7739403  81.2061129  69.4414574  19.1779205
 102.5209535  60.4576070  17.8096077 101.8418516  60.7754571  18.4046051
 102.5331343  61.0964734  17.0969173  32.5236797  90.7489014  82.7026272
  33.0410528  90.4359436  81.9605923  31.7742991  90.1545238  82.7397728
   0.1311177  46.7159039  16.2820694   0.1592248  47.6694543  16.3606998
   0.0181597  46.5560681  15.3450939  67.2515423   7.4366527  87.3123932
  67.8737814   6.9781070  87.8770065  67.7469141   8.1766944  86.9614220
   7.6682866 107.0897102  56.8442059   6.7207927 107.0061779  56.9514894
   7.8044569 108.0121899  56.6280794  37.6254368  96.8908691  51.3266277
  37.0551682  96.5907383  50.6188488  37.7976656  97.8099537  51.1220455
  15.2950358 103.6793137  87.0363331  15.5540681 104.6007824  87.0411396
  14.9353933 103.5361862  86.1608887  44.8136854  88.6884022  96.1201000
  45.0351000  88.0345917  95.4569626  44.2738819  89.3277359  95.6552505
  25.9403664  28.5067039  45.2031565  26.4362091  27.7171188  45.4198122
  25.1871711  28.1876521  44.7060251  59.3564177 110.6157494  61.6869402
  60.2889633 110.7886600  61.8161583  58.9855957 110.6304073  62.5692701
  37.5573802 101.3324070  52.9666471  36.7518330 101.4734364  52.4692202
  37.2590923 101.0365009  53.8267040  14.7137582  84.0452576  94.0064907
  15.2079463  83.6735725  94.7371483  15.3475285  84.5920944  93.5422325
 111.3464821  35.8873421  16.3076088 110.5942930  36.4107949  16.5840885
 111.7833675  36.4257390  15.6476852  38.2266998  77.1843004  92.2957897
  39.1164398  77.4463987  92.0593548  37.6698828  77.6143169  91.6467381
  71.4977128  16.1891418  79.4968987  71.6064793  15.8434825  80.3828621
  71.5339953  17.1395831  79.6044922 114.6220959  55.8717210  10.0576851
 114.7563518  56.7894799  10.2941486 113.6738742  55.7861096   9.9587795
  96.0392083  46.5142686   7.3495171  95.6088091  46.7243821   6.5207550
  95.6394876  47.1086842   7.9844353  89.2982412  42.6545102   4.1717884
  88.6968357  41.9190938   4.0546772  89.9087180  42.5838811   3.4379170
  71.3842184  12.3083835  82.2893906  71.1059863  12.1754985  83.1955624
  71.0768301  11.5283160  81.8276119 111.8078936  33.5862595   7.1322987
 112.3089755  33.9718396   6.4136383 111.3907827  34.3333680   7.5613281
  15.2513474  77.1484143   5.7646248  15.3030031  78.1021935   5.8268806
  14.3154066  76.9552094   5.8186695  20.2923649  48.7880284  11.4236805
  21.2415570  48.9095456  11.4012501  20.1560848  48.0826527  12.0562145
  82.4690325  10.1608043  94.7762108  82.3728592   9.6563583  95.5839920
  83.3023388  10.6205135  94.8786831   6.6597784 110.0451088  70.5279255
   5.8102971 110.0194836  70.9683323   6.4493293 110.2268600  69.6120071
  97.7800668  20.7441480  35.3239033  97.5068713  20.5207545  36.2136719
  98.0199171  19.9056727  34.9293682  75.1929266   4.5195918  77.4004269
  74.2535812   4.5004230  77.5834417  75.4687959   5.3998618  77.6558685
  12.2879523  26.2743432   8.7659618  11.5683478  26.6387517   8.2505867
  13.0434817  26.8165833   8.5392639 109.2247570  90.4787118  15.8922836
 109.3104447  91.2896401  15.3910038 109.1762651  89.7907788  15.2284786
  53.0892294  83.9232213   7.8472111  52.5425165  84.3681485   7.1996185
  52.6282423  83.1039483   8.0275318  37.1305102  90.8277280  30.2027008
  36.4857834  91.1404473  30.8373425  36.7381733  90.0369794  29.8325321
   5.5847621  13.1169856  57.3910475   4.9570620  12.4570203  57.6854420
   6.0590750  13.3669639  58.1839943 113.2224895  78.5093212  71.6685820
 113.8494469  78.3261395  72.3682928 112.9062124  79.3931675  71.8557072
  28.5402393  38.6666059  77.5488234  28.4045029  38.9465022  76.6435766
  27.9835916  39.2490768  78.0656433  37.9861866 108.0556490  20.3660080
  38.6989219 107.5812151  19.9380467  38.3690750 108.9003183  20.6029961
  61.1504180 101.2517215   4.9099133  60.6624324 100.9313394   4.1513321
  62.0255000 100.8776762   4.8071835 113.1201918   0.8079981  70.4269123
 113.7126817   1.5353745  70.2368832 112.5474305   0.7593967  69.6615267
  17.0003087  87.1393778   1.0031960  16.8215281  87.7102210   0.2559349
  16.9063241  87.7083875   1.7671558  47.1316386  90.6013633   2.4826214
  46.5843404  90.2095987   1.8020222  46.7979575  91.4938451   2.5740692
  15.3524244  57.4247169  77.8038979  14.6422756  57.8515863  78.2831669
  15.0058997  56.5605259  77.5817919 106.7350550  60.5145741  54.3999767
 107.2870012  61.0265732  54.9911165 107.2289772  60.4801607  53.5807753
  68.5175670  21.3778455   6.5263626  68.5868312  20.5642850   6.0268089
  69.3269021  21.8494708   6.3294289 107.4235053  72.6977968  87.9351711
 107.6797815  72.3234081  88.7780094 107.2671421  73.6234903  88.1218910
  73.9674697   3.0759484   8.3271763  74.1325391   2.6211316   9.1530869
  73.9041484   2.3763282   7.6769802 103.5070296  68.7492561  60.7045174
 103.9146836  69.5131826  61.1125278 104.2013903  68.0907917  60.6817198
   9.0229923  42.9235506  55.5763578   8.4966290  42.3525953  56.1359835
   9.2107874  43.6870527  56.1222839  34.9788213  79.5382929  72.5014114
  34.8046398  80.4763889  72.4248314  35.3959155  79.4412327  73.3574772
  64.8123986  79.2880751  11.9310257  65.2143556  80.1387765  12.1070072
  64.9246437  78.7971474  12.7450344  14.6015668  27.6316881  33.8514614
  13.8800514  27.0044446  33.8043952  14.2686749  28.3386350  34.4043112
  15.0721979  45.3492641  93.1758499  14.9004197  46.2541628  93.4363842
  15.9050035  45.1332140  93.5953617  47.2283203  83.5312511  15.0071308
  48.1496567  83.2781102  15.0644943  46.7526269  82.7909257  15.3837845
 108.3213772  29.9444127  75.0477028 107.5530894  30.4768825  74.8416853
 108.1480618  29.6032453  75.9250832 116.6836698  46.1662054  90.8685493
 115.8174105  45.7591057  90.8587074 116.6543783  46.8088150  90.1597309
  81.0495674   4.3707282   4.4406578  80.2167783   3.9426905   4.6393463
  81.0210427   4.5234067   3.4961388   5.6113082  20.6620240  93.5519981
   6.3236386  20.1017904  93.2438469   5.0092912  20.7141137  92.8096390
 110.9743167  25.3859949  84.2432880 111.8448694  25.3127980  83.8521194
 110.5282743  24.5785260  83.9877987 105.9779628  25.3130412  66.6277790
 106.3264544  24.5742464  67.1267462 106.6054352  26.0202718  66.7772293
  34.2418790  45.5998373  94.9021530  33.4943509  46.1976814  94.9063969
  34.9795961  46.1407852  94.6204090  16.9191158  61.5481710  64.3372583
  16.0332823  61.5394688  64.6998262  17.2882164  60.7008648  64.5863914
   0.4632486  40.3813171  69.6245098   0.9426416  39.5991087  69.8975706
   0.1395725  40.7611799  70.4413128 117.4065188  56.1575508  85.4434681
 117.9661721  56.2230921  86.2172413 117.2148758  57.0655584  85.2088833
 112.8813799  70.1844025  73.1381989 113.4996341  70.3315353  73.8539791
 112.1901746  70.8307505  73.2820654  82.8317161  36.3529658  56.1285830
  82.2524209  36.7480278  55.4769850  82.4076553  35.5254245  56.3556957
  94.5073815  70.2305126  81.3740349  93.6949725  69.7246075  81.3571930
  94.2996140  71.0332394  80.8958149  57.0334191  56.9362839  14.1988537
  56.5214104  56.4787544  13.5319588  57.0400411  57.8492196  13.9112160
  82.2206239   6.3576514  39.3723366  82.1889375   5.4795653  38.9926121
  82.0398883   6.9432456  38.6370537  13.5508204  53.2947016  80.7351589
  13.8409162  52.4070454  80.5250549  13.1254911  53.2119513  81.5886688
   1.1743972  28.2767034  70.8038568   0.9567872  29.2086792  70.8211851
   0.7054037  27.9353619  70.0424337  14.5974523  94.9206783   9.4515869
  15.0250346  95.5195142   8.8393757  14.2776543  94.2048170   8.9024899
 116.9917123  58.7553644  93.7418365 116.1550175  58.4748316  93.3710575
 117.5959875  58.7514734  92.9994965  15.4215133  39.6969223  59.4045687
  15.4341042  40.1227665  58.5474014  15.6949985  38.7966251  59.2287779
  92.3364372  59.3170691  89.2472076  91.8320890  59.9125338  89.8015404
  92.1021743  59.5659733  88.3531189   3.8931665  42.8769732  64.4254065
   3.4406137  42.0424080  64.5475769   3.4070164  43.4951782  64.9710417
  17.7002251  19.0591633  80.0802708  16.9779146  18.5633326  80.4658222
  18.4885728  18.6547029  80.4424095 114.0453221  31.1796308  54.4820881
 113.1583752  31.5346479  54.5414209 113.9637221  30.2780271  54.7930336
   4.6017027  63.0409813  76.3443756   4.5956251  63.2817173  77.2707891
   5.1855183  63.6794567  75.9348202  38.9759445  39.1675329  75.8455801
  39.9122190  39.3422675  75.7502413  38.6317086  39.2133236  74.9535942
 117.2807573  63.5812187  92.1180058 117.7127346  64.4315720  92.0372200
 117.9729398  62.9434347  91.9438076  20.8276987  38.9880919  51.3437033
  20.9162760  38.4804082  50.5370808  19.9287415  39.3162155  51.3226891
  18.8510734  83.7681510   5.5311653  19.6330578  83.2595374   5.3165886
  18.1719286  83.4179618   4.9546597   6.2541932  52.8866673  82.6585484
   5.6993407  52.4248552  83.2871246   6.9975513  52.3000097  82.5189781
  87.0923258  16.4240653  13.6730454  87.1001322  15.5445105  13.2954857
  87.2677411  17.0042855  12.9322311  49.9678898  62.9830122  88.1768513
  49.5333290  63.1085682  87.3332691  50.7067442  62.4064398  87.9821873
  15.8630300  73.9711523  81.1752987  15.2595925  74.6528387  81.4709377
  15.5483449  73.7346649  80.3027916  39.7487861 101.9396116   9.5276997
  40.3544240 101.6046383  10.1889298  38.8926675 101.9204141   9.9553940
  24.7542262  17.6902127  74.5820045  25.2976394  18.4426391  74.8160744
  24.0695405  18.0545247  74.0210104  94.2893119   0.7413714  47.6476908
  95.0944324   0.7596236  48.1650686  93.8633151   1.5771581  47.8380013
  24.2523837   2.5321609  87.2141552  24.3374681   1.6797590  87.6412392
  25.0632262   2.9915339  87.4326515  43.8757518 104.7980024  11.9395325
  43.4717793 104.5771267  11.1003277  44.3096871 103.9909317  12.2162506
  59.1491181  98.6504366  16.0226605  59.6815187  99.1163255  15.3778908
  58.4430927  99.2605259  16.2360737 101.6110690  26.3956857  66.5080070
 102.1329375  25.8519936  67.0981598 101.4932449  27.2188520  66.9820833
 108.9882828  52.5902891  59.3665838 109.0860017  52.2491884  58.4775782
 109.5265932  52.0109940  59.9059057   2.4100631  66.4837694  84.5062828
   3.0236277  66.0944843  83.8832092   2.9396188  67.1026945  85.0090122
  22.3513126  54.7635889  87.0971203  22.2945070  53.8719749  87.4406719
  21.7252541  55.2627182  87.6216698  16.7580199   9.8726982  86.8820763
  17.0819068   9.5979899  86.0242462  15.8318794   9.6308923  86.8770885
  41.0607910  32.1657133  52.1066332  41.1863136  31.2467313  51.8700981
  40.1107073  32.2750878  52.1467590  36.1494470  34.1444921  71.3134909
  35.5932331  34.7905588  71.7487526  35.5414581  33.6111021  70.8015537
   2.1157598  75.7137346  72.9498482   2.8205845  76.3056898  72.6870871
   2.0362295  75.8407831  73.8952398   2.2430947  80.9779930  62.9512787
   1.5345594  80.3580189  63.1240320   3.0290374  80.5409336  63.2791567
  16.6956222  42.9337168  71.2127686  16.3400745  42.0452023  71.2316608
  16.1234283  43.4331036  71.7953825  19.3562853  14.7707951  81.7560577
  19.1901040  15.3995550  82.4584007  19.4075775  13.9241672  82.1997070
  50.3248204  15.9492213  16.2131760  50.2996553  15.8709723  17.1668407
  49.7415794  16.6825635  16.0175583  31.8233252 111.4424993   8.4516308
  31.5485335 110.5851032   8.7765858  31.3786036 111.5330078   7.6088593
   3.2326090  62.7229118  51.6679668   2.6292339  62.3950481  52.3348045
   4.0723473  62.7984762  52.1211338   7.3739654  85.3633404  86.6044426
   6.7975539  86.0779762  86.3337612   7.8423709  85.1181030  85.8065128
  28.2888079  40.5744696  64.9131680  27.8832221  39.7834730  65.2682114
  28.3035374  41.1868906  65.6486654 114.2374916  48.3858395  58.7278557
 113.3319704  48.6558008  58.5749388 114.2762075  47.4847984  58.4071350
 108.7206884  69.3678951  59.4853354 109.2035694  69.6361113  58.7035942
 108.2874437  70.1670361  59.7851753  18.5102057  41.5616369  96.1302185
  19.1329837  41.4680862  95.4093647  18.6748314  40.8021450  96.6890526
  43.8274187  95.6771852  15.6408188  43.5170299  94.9525954  16.1838314
  44.7799600  95.5829264  15.6373188  83.6930040  10.0337083  24.4059059
  84.3816311  10.6693036  24.6009419  84.0233226   9.5468098  23.6508915
 115.4490419  51.2013340  53.9740038 115.5597250  50.7131815  54.7899008
 116.2602800  51.0462666  53.4901857  78.7207106  11.9284207  17.1744129
  79.4063071  11.9446236  17.8421852  77.9048612  11.8602282  17.6703713
 110.2946098  27.4354577  68.1295729 110.7253148  26.8949080  68.7917900
 110.9300621  28.1233859  67.9316092   4.5200920  75.7173920  77.2551203
   3.7238657  75.2344131  77.4764490   5.2089983  75.2892923  77.7634239
 108.8572742  41.8472433  37.4240708 109.4981874  42.2171354  36.8169117
 109.3606509  41.6530609  38.2147264  39.7526588  97.2569753   3.1304237
  39.6350431  96.3099624   3.0557987  39.6244069  97.4416734   4.0608284
  42.1487474 106.7935085  74.0931702  41.7901707 107.5148678  74.6101809
  42.5286293 106.2001324  74.7411108  21.0883427  65.7094860  74.3435001
  20.1968503  66.0474634  74.4286203  20.9973836  64.7631550  74.4549561
  96.7526479  40.6201744  79.3067217  96.7598815  39.7627521  78.8812733
  96.9441266  40.4331636  80.2257347 111.3475700  33.1218719  75.7861328
 110.9083696  32.3377633  76.1155462 111.7817403  32.8337407  74.9831963
  34.6158123  38.5641289  73.5279131  34.7276902  39.1955948  72.8173018
  34.5530987  39.1010976  74.3178272  44.1483831  46.6408300  85.7213116
  43.7402296  45.7750559  85.7125092  43.4912872  47.2193432  85.3343010
  62.1067530 102.3854591   1.4574501  61.4738137 101.8177273   1.8971130
  61.8185622 102.4038412   0.5448505   5.0927460  16.8405378  91.1912537
   4.1931173  16.5587020  91.0255146   5.0893253  17.7781594  90.9986782
   9.2913920  26.4350796  68.0869293   9.8339015  27.1680450  68.3779240
   9.7315073  26.1080217  67.3023510   8.6401123  44.9746370  79.9590015
   8.8097256  45.6681919  79.3214703   8.3801615  44.2208481  79.4294167
  30.4428148  95.3901291  64.4175005  29.6981835  95.9836578  64.3200970
  30.1057935  94.6680737  64.9478579  31.0721207 102.9650594   3.5672733
  30.5441827 102.3263408   3.0881569  31.2192542 102.5609256   4.4224140
  21.3117027  48.9378738  94.0349483  22.0705152  49.0091038  93.4558487
  20.5694914  49.2006779  93.4906292   7.5971216  20.0471115  90.3386211
   8.4374487  20.0681353  89.8807621   7.8305387  20.0223613  91.2665939
  20.0425911  30.1485515  71.5856695  19.5510113  29.3444014  71.4185715
  19.4042015  30.7415509  71.9819546  10.1623666  54.2695332  57.0461559
   9.7584587  53.4536076  56.7505932   9.8527092  54.9287844  56.4250851
  80.0452061  40.5132675  52.7820063  80.3170223  39.8609996  52.1363354
  79.3664260  41.0214806  52.3379183  30.7548422  77.3551823  11.1119339
  29.8096627  77.5060202  11.1226532  31.0646439  77.8312709  10.3414890
  37.2955465  27.2994113  80.5174255  37.6386714  28.1329513  80.1953888
  36.5692139  27.5447822  81.0905457   7.5908691  26.9475150  76.4217138
   7.5916094  27.7588940  76.9295502   7.7171373  26.2573266  77.0728064
  35.3759813  58.8182640  75.8038187  34.9449587  59.6708202  75.7438087
  35.9088278  58.8745737  76.5969992  58.3377833  80.5447532  21.6105244
  57.7528376  81.0408522  21.0378525  58.3424539  79.6617152  21.2411282
 116.7447789  57.5453043  63.8179159 117.2509502  56.8939257  63.3323956
 116.3230172  57.0474863  64.5182896  10.6209183  31.6625881  87.9283142
  10.9542465  31.2660742  87.1233940   9.8525643  31.1379838  88.1533813
 117.5176521  27.5779939  63.8752127 116.8472239  26.9252181  64.0768099
 117.0243424  28.3706474  63.6640739 103.5828800  48.4917307  54.9853611
 104.2962260  49.0770674  54.7309065 102.7900322  49.0147781  54.8668671
  37.3543859  46.0697985  80.4296303  37.6948094  45.2255201  80.1337624
  37.6828003  46.1602783  81.3241673  22.4551344  31.1028481  84.4450474
  21.7624664  31.6975904  84.7326660  22.7720928  31.4827800  83.6256409
  24.7189767 100.0993683   6.4542362  24.3990881 100.8506395   5.9547493
  24.3678064  99.3378402   5.9927342  19.1639454 110.0076153   6.7590973
  18.5554821 110.3679516   7.4042007  19.1997439 110.6689884   6.0680553
  18.6359918  62.0411873  61.9305372  19.4613528  61.5756702  62.0658398
  17.9610670  61.3753843  62.0624876   8.2181090  48.3053303  92.2270489
   8.9079028  48.2483864  91.5658569   8.4806752  49.0377140  92.7846336
 117.7437811  40.7201433  88.4848881 118.4103193  41.3971376  88.3681107
 118.0793587  40.1736832  89.1955185 117.2104909  34.2809319  75.5920649
 117.8239955  34.1093230  76.3064814 116.6405632  33.5120678  75.5758905
  27.9594928  83.2561518  11.7907879  28.2938463  82.4885489  12.2547123
  27.2930700  82.9069139  11.1990521  37.1789383  79.2879750   1.9881699
  37.6282955  79.6385194   2.7572128  36.3828075  79.8143746   1.9152901
 114.5196603  33.3676791  77.7548552 115.1026039  33.6432815  78.4622812
 113.9702888  34.1329813  77.5853300 108.3056081  33.3135659   6.4866802
 108.2120455  32.6617390   7.1813652 108.3152188  34.1533429   6.9459221
  51.5893859 105.2506115  31.6577122  51.9599253 105.6664468  32.4361870
  51.6683668 104.3118335  31.8270847  86.7481834  89.4842626  11.9705841
  86.5972645  89.2137243  12.8762695  87.6061136  89.1205312  11.7517540
   6.3457948  74.2185211  78.5302210   7.2423691  74.5279598  78.4012508
   6.3937861  73.2748365  78.3772755 108.1443043  34.1171265  78.0898857
 108.1607647  34.8778319  78.6706495 108.1310053  33.3645606  78.6812353
  11.6464591  94.1572475  71.3529491  11.6993952  93.8920403  70.4347467
  12.5398278  94.4157124  71.5794849  60.2391768  84.4608784  69.8417377
  60.5808783  84.6382141  68.9653683  60.9305096  83.9567852  70.2708960
  26.4405513  75.5367756  68.5083771  25.7591391  75.5949068  67.8386545
  27.1818972  75.1287460  68.0609989 114.5460619  27.6906991  68.7109470
 115.0309582  27.0775151  68.1585741 114.0329967  28.2137442  68.0949783
   4.4036412  15.6750536  59.0847921   5.1368052  16.2712991  59.2370844
   4.7399941  14.8137450  59.3322706  24.1018057  81.2654305  86.6335297
  23.8062072  82.1131420  86.3015079  24.6533585  81.4817715  87.3853397
  23.6527896  21.4860463  90.2895737  23.1792283  22.1970010  89.8577023
  22.9723072  20.9799957  90.7335186 111.4217432  43.6995792  45.2780914
 110.6201060  43.5032797  45.7629395 111.2381132  44.5293093  44.8375607
  26.4785480  56.1571121  78.8706160  26.8900204  56.6420507  78.1552458
  26.2237930  55.3219414  78.4784126  71.4646990 107.0427419  17.1542046
  72.0910150 106.5771677  17.7084610  70.6091649 106.8239977  17.5235817
 111.4348115  43.5026884  93.7337875 110.6237341  43.9804125  93.9074612
 111.2459893  42.9872894  92.9496098  68.3852077  17.1564776   1.7213699
  68.8306082  17.8834159   1.2861511  67.4570383  17.2984845   1.5354511
  48.3471036  97.8410246   5.3574631  48.9989889  97.5288440   4.7299072
  48.8563842  98.3097412   6.0186455  22.0033813  50.3927231  55.6076908
  21.2447810  50.9619284  55.7371426  21.7333388  49.5480871  55.9681082
  16.9486547  69.5838499  75.6785679  16.4379251  69.2459536  74.9428940
  16.8817806  68.9038801  76.3489389   2.5398245  72.6249886  92.2968578
   2.1171048  72.0424557  91.6658306   3.3282146  72.1540260  92.5668049
 116.7353404  25.3214890  27.0154736 116.5984596  26.2603909  27.1418354
 116.7638076  24.9621255  27.9021999  51.5622425  85.5440807  54.6427155
  51.2712383  86.2390614  55.2331066  51.9619799  84.8923397  55.2186203
  48.5179520  77.8531313  88.8714790  47.5645304  77.7923059  88.8121510
  48.6810637  78.7322235  89.2132759  40.3425026  39.6700358  63.7010717
  41.2731552  39.7337127  63.4864473  40.3154612  39.6891618  64.6576977
  10.9271932  42.9043818  84.0093803  10.4202318  43.4051704  84.6484661
  10.4505336  43.0140686  83.1865788   4.9706939  54.8218536  90.4358959
   5.2406651  53.9447355  90.7079506   5.7870722  55.3191519  90.3863907
  22.2267485  48.2932234  86.5080452  22.2924519  48.3047676  85.5531788
  21.7805743  49.1111946  86.7273331  33.3738071 102.8972151   2.3293945
  32.6778377 103.2336952   2.8938744  33.5116989 101.9986011   2.6289150
 103.4812744  77.4320984  41.8362665 103.0675121  78.2886648  41.7298651
 104.2102857  77.5910711  42.4358511 113.6659129  57.8731155  51.7461634
 114.3166090  57.7999926  51.0479689 113.5990845  56.9882059  52.1049213
  37.2004778 108.7641479  26.2504551  36.7678315 109.2168857  26.9743893
  37.2674402 109.4245388  25.5607960  24.2404342  56.5608072  54.0086222
  25.1661158  56.4627266  53.7856340  24.1837382  56.2839508  54.9231529
  85.5747617  38.3256776  24.6950695  84.6219856  38.3440835  24.7851250
  85.8701451  37.7418095  25.3936932  55.7993502  98.0620434   2.7302429
  56.2538761  98.0381252   1.8881771  56.4094526  97.6522114   3.3434650
   5.7882553  81.4889336  65.6415272   6.3094366  80.9264851  66.2144566
   6.2769413  82.3111343  65.6039906  97.4567617  27.0631177  12.9640743
  97.9048503  26.2968976  13.3223602  96.6581953  27.1394975  13.4862778
  91.6316308  34.6414048  40.2954838  92.1873296  34.0640885  39.7719070
  92.2323943  35.2991921  40.6456730 101.7978085  33.2317693  -0.0796917
 102.0959342  33.5820062   0.7597611 101.7512001  33.9954621  -0.6548717
 116.6606304  39.0021610  56.1781883 117.2867132  38.3223510  56.4274073
 116.7554471  39.0786672  55.2287722   7.0610166  23.7731504  81.0762405
   7.4700838  22.9857373  80.7172489   6.2837899  23.4520698  81.5334702
  43.0863277 108.4343197  29.1330025  44.0051985 108.2958938  29.3626663
  43.1114030 109.0692379  28.4171269  20.3092670  33.9501977  95.1112556
  21.1575341  33.6317563  94.8025990  19.6803975  33.6137271  94.4728661
  23.8297176  58.7693930  68.4984016  23.8012290  58.5408831  67.5693130
  24.0902710  57.9591703  68.9364433  96.5839578  19.3197161  20.7278988
  96.3918448  20.2119119  21.0165283  95.7246042  18.9104373  20.6267426
   6.7114401  66.6777658  77.7010536   7.3619401  67.2553539  78.1003952
   7.1087027  66.4053106  76.8739033 100.2980073  47.1521139  96.0629368
  99.4867702  46.6447067  96.0371590 100.0420387  48.0278826  95.7735443
  23.4063745  66.1449480  94.3779373  23.5062170  65.6848240  93.5445404
  22.7449441  66.8146515  94.2040443  84.6073562  55.6022808  21.8091080
  84.7540552  56.4947810  22.1223995  85.2431471  55.0721861  22.2897312
 105.3351302 102.5600338  78.5951710 105.2408393 103.2642269  79.2366219
 105.1746137 102.9818821  77.7510643 100.2064312  10.2985150   1.1724827
 100.6428016  10.1287562   2.0073387  99.2774285  10.1571709   1.3547108
  14.7979045  78.6868858  74.1083050  14.1674054  78.2195139  73.5603428
  14.3309641  79.4719934  74.3943262 100.7452382  16.3347537   4.8904869
  99.9124206  16.2602526   4.4245407 101.1090005  17.1706683   4.5986721
  18.7380767  90.2098083  76.8260670  18.2692099  90.5811977  76.0787630
  19.1651225  89.4278145  76.4762878 109.8762251  92.3332596  63.0621815
 110.2584220  91.5012455  63.3412933 110.5403145  92.7231598  62.4936724
 106.4817281  78.4279299  64.7668457 105.7503147  78.0832386  64.2545414
 107.1066697  77.7041245  64.8091173  22.5910211  76.5084839  91.8000221
  22.2606850  76.9922638  91.0430145  23.4056902  76.1105728  91.4930916
  77.3787839 108.7608053   1.5327332  77.2787434 107.8404381   1.7759487
  77.8713114 109.1476537   2.2566101 108.1030305  55.3515959  52.9134655
 109.0189882  55.3860521  52.6376629 108.0104990  56.0793495  53.5283232
  18.2939594  20.4276807   8.3244297  17.7244585  20.4913480   7.5577232
  18.1930607  21.2697131   8.7683174   6.9683635  36.7571235  94.7051430
   6.0313481  36.5990305  94.5900726   7.0152539  37.5972724  95.1614094
  91.0073663  58.5717637  15.7777092  91.0522951  59.4472367  15.3933212
  91.8869544  58.2130391  15.6599304 110.0104465  59.6431732  92.6411819
 110.3866060  58.8403702  92.2802830 110.1097937  59.5493984  93.5885811
  39.0773518 104.2369653   4.9182007  38.7141643 104.0136625   4.0611908
  40.0018612 104.4165422   4.7471211   7.9530120  88.5293770  60.6725407
   8.5410362  88.5268784  61.4278221   7.1063125  88.2583046  61.0272932
  70.4581250 103.9165128  79.4717550  71.3315428 103.6863155  79.1549206
  70.4014678 104.8643143  79.3505335  26.3600159  44.5685053  88.1599045
  27.0088458  44.4228506  88.8484097  26.7850161  45.1765871  87.5550556
   7.4407184   4.5759156  59.7434473   8.1650949   4.8579121  59.1848898
   7.5302172   3.6240166  59.7893858 104.2860688   8.1435258   9.1472981
 104.0346874   7.3180682   9.5616219 103.4972967   8.4305341   8.6871979
  11.6309273  48.2535601  91.0356617  11.6818953  47.3328161  91.2923050
  11.8725681  48.7362623  91.8261337  34.7198319  85.9583950  78.2792997
  35.0195646  85.1478195  78.6908388  33.8959622  86.1614895  78.7222767
 110.0842161  27.1452594  62.0534229 110.1480420  28.0524898  62.3518991
 110.8194627  26.7016816  62.4763680  36.0794210  61.0856295  65.7510376
  35.3918791  60.8604431  66.3777876  35.6067133  61.3571882  64.9642515
  31.3181639  36.3744402  91.6944218  31.7613244  35.7425523  92.2605991
  30.3934884  36.1317348  91.7423916  33.7628508  42.7725458  48.8184881
  33.6686325  41.9391203  48.3572388  32.8849936  42.9642916  49.1483927
   7.2421861  32.2877336  46.7570639   7.9171646  31.6498184  46.5253258
   7.2711116  32.9340124  46.0515690  31.7767847  88.3735968   5.3736469
  31.0432667  88.5626270   4.7884533  32.5550545  88.5863306   4.8585960
 109.4841607  34.4237804  91.5935135 108.8015039  33.8317442  91.2777519
 109.1431166  34.7628665  92.4211216 109.5569052  47.8323698  91.7416763
 109.8394574  48.4006834  91.0251522 109.6349515  48.3773851  92.5246906
  58.2228888   5.3382022  10.4788467  59.0816177   5.4096753  10.8956310
  58.0454815   4.3978745  10.4555580  63.3616549  63.5719438   8.8864491
  62.7029497  62.9738136   9.2394039  62.9788977  63.8955440   8.0709621
  18.8549144 110.9022094  15.2330467  18.6809761 110.0149967  15.5474255
  19.1446954 111.3793232  16.0106251  25.1693678  52.4327040  80.0359058
  24.6899223  53.2184172  80.2986240  24.5746946  51.7104197  80.2381420
   1.8784665  59.6134949  86.8189716   1.5603891  58.8179302  87.2457409
   2.5933659  59.3144274  86.2570953   9.0967172  83.0150890  80.6012535
   9.2847234  83.1926250  81.5228558   9.8713970  83.3280468  80.1341724
  20.0089717  56.8708563  72.2578001  19.4637263  56.0852861  72.3004818
  20.2792311  57.0243025  73.1631422  59.9984455  85.1727390  83.8492680
  60.7681227  85.0701046  84.4089985  59.4380999  84.4299507  84.0740013
  17.9606366  54.3431664  27.1492505  18.9069581  54.2117643  27.2079277
  17.7903879  54.4435930  26.2126827 114.9792124  79.1114616  89.2776966
 114.2146780  79.4830656  89.7177315 115.6149341  79.8267746  89.2571545
  20.2395034  33.2819271  81.3780785  20.5175805  33.6195064  82.2295189
  20.9539080  33.5123420  80.7841396  10.0061625  23.1588752   4.9639008
   9.2176693  22.9648597   5.4707214  10.5715197  23.6338956   5.5729649
  73.2192487  12.1130235  25.3031513  73.1881184  11.6057975  26.1143181
  73.0468918  13.0138213  25.5771801   1.6836688  92.8608131  63.7925243
   1.6101150  91.9084930  63.7299585   2.2398272  93.0083370  64.5574808
  49.0529395 110.4740717  17.9141018  48.8679862 111.2762691  17.4257252
  48.1946791 110.0720169  18.0481598  36.4581752  76.7142296  60.4515934
  35.8541512  75.9721947  60.4793644  37.1328688  76.4505720  59.8258877
  18.9905798  36.3365698  95.5278587  19.7673702  35.7799077  95.5822086
  18.2647216  35.7239509  95.4092884   4.0632883  66.7200089  89.6469975
   4.0732104  66.3689232  90.5374336   4.7952932  67.3363590  89.6243858
  82.5972397 100.1218893   7.4246189  81.7025453 100.3536131   7.6737377
  82.6948292 100.4644491   6.5361664 117.3908446  73.7897158  82.0493031
 116.7689557  73.8963413  82.7691078 118.2503293  73.8122606  82.4700260
  45.3834105  71.5031433  92.5096893  46.1415863  71.4272547  91.9303513
  44.7816229  70.8231211  92.2069454 113.6264433  89.7728634  72.7485228
 113.6390977  90.7276726  72.8149033 113.1530483  89.4847584  73.5289860
   2.1396257  84.7355270  93.7068844   2.6693645  84.7280121  92.9096699
   2.4384555  85.5085945  94.1857433  26.2796736  58.5308695  91.3157558
  26.5203428  57.6118946  91.1983109  26.6565204  58.7708473  92.1622944
   8.1029713  41.3655996  52.3489571   7.8469604  42.2699165  52.1675777
   7.3283350  40.9736443  52.7521229   8.5552519   3.3227546   7.8224537
   8.5001677   4.1073949   7.2769901   8.9450186   3.6275632   8.6418507
  59.6213318  45.4133183  27.6870892  59.1152192  45.5928094  26.8947098
  59.2260195  44.6203763  28.0493042  15.4705405  83.6865425  69.6596432
  15.3423953  83.1324291  68.8897276  14.6792722  84.2234516  69.7027016
  27.3001003  86.0015392  85.0764084  26.4198112  86.3386917  84.9101162
  27.5420523  86.3719273  85.9252262  96.4988643  91.4310815  12.4500725
  95.6556541  91.7336823  12.1129295  96.5267593  91.7544510  13.3505604
  79.9563390 106.1128236  27.1337864  79.5924694 105.2472498  26.9477531
  80.2707798 106.4276506  26.2862942  95.1173259   2.3837668   9.4560310
  95.4695297   1.9838387   8.6608955  94.3889380   2.9241282   9.1499397
 106.7737831  12.9130370  18.8631508 106.1053289  12.9459197  18.1788036
 107.3690904  12.2176940  18.5832569   1.1298197  45.7202721  79.9594498
   0.6750553  44.9153566  79.7113991   0.9197447  45.8383131  80.8858204
  15.8185756  49.9526501  45.3970957  16.6447723  49.9364710  45.8801794
  15.4133618  49.1065454  45.5871964  41.5731439 109.9961950  38.3439419
  41.7777145 109.2763807  38.9408180  41.7091267 110.7865955  38.8664410
 100.0639904   2.9202325   2.5662777 100.2602447   3.3958632   3.3734295
 100.5926407   3.3552939   1.8973324  36.8967676  75.0203657  93.6613083
  37.4633551  75.6865788  93.2722378  37.4544644  74.5740557  94.2984962
  18.2312739  71.3984823  65.5888033  17.4748242  70.9976053  66.0169554
  17.9182684  71.6259384  64.7132921   5.7794863  99.9962044  91.1304760
   5.9235221 100.9158707  90.9075642   5.3120542  99.6372986  90.3762054
  52.3812784  24.1657216   6.6964409  52.8489865  23.9019877   5.9040234
  52.8483904  24.9430329   7.0027611  84.6564514 106.7995264  23.7660667
  83.7136537 106.9332458  23.6686966  84.9835283 106.7375900  22.8686211
 112.2683640  41.3123512  60.9074640 111.9611259  41.0940933  61.7873526
 112.7696915  42.1196508  61.0222149  42.3031092  95.6026173  89.8738861
  41.8579102  96.0266972  89.1402721  41.6238785  95.0743961  90.2932453
  76.5769521  34.0110833  14.3243477  75.9760375  34.2051846  13.6050007
  76.2012524  34.4642121  15.0791618   4.0116746 100.3044178   9.4589397
   4.1375310 100.2869798   8.5102150   4.7388274  99.7880317   9.8065445
  70.6736387  23.0502278   6.3604996  70.7172425  23.8873250   6.8226692
  71.5201623  22.6376159   6.5319130  12.0686245  89.9006462  47.0400190
  12.9230535  89.5124531  47.2284031  11.8041575  89.5058823  46.2090826
 107.2474702  72.6549482  77.4176788 106.3238747  72.8206539  77.6067448
 107.5166173  72.0172167  78.0787992  24.2852092  17.2113228  80.5954838
  25.1366305  17.1898520  80.1586151  24.4280720  17.7523184  81.3721085
  56.3040823 110.5610038  18.0121491  56.7825944 110.1152851  17.3131535
  55.4279227 110.6991007  17.6522800  35.8003822  82.1348550   6.7536995
  36.1580572  81.2472083   6.7341015  36.4181489  82.6301934   7.2915051
  22.9927325  49.2711878  92.0260239  22.7659774  48.9910841  91.1392498
  23.2237601  50.1954746  91.9335270  13.9151621  76.0820436  66.0481358
  13.8819528  76.8658638  65.4997253  14.7854042  75.7159901  65.8902931
  86.1098070  26.4734513   0.9228870  86.6817237  26.6984326   1.6567299
  85.2432437  26.7777306   1.1925480 105.7055481  44.5804930  58.8106441
 105.0106533  44.2256308  59.3651056 105.5175407  44.2326593  57.9389238
  38.5965824  57.0234203  73.3066559  38.7363505  57.0107365  72.3598003
  39.4778037  57.0625353  73.6783409  70.5508316  14.0476424   3.6233971
  71.3283879  14.2367226   3.0981514  70.1617158  14.9056346   3.7927124
   3.0515468  70.2492952  57.2729826   3.9232835  69.8545599  57.2508335
   2.4547924  69.5221567  57.0958281 116.0276855  10.3600842   4.0246460
 116.8109859   9.9109561   3.7069008 116.3077439  11.2658936   4.1562054
   5.0855637  19.6512139  79.4902802   5.6734020  19.0145409  79.8968840
   4.8629025  19.2648172  78.6433125  40.2025732 104.2145445  19.4605038
  39.6185643 104.1673853  18.7035725  40.5540088 105.1045801  19.4367859
 117.8482366  63.5589170  65.0591183 118.1563252  62.9893970  64.3541622
 117.9051777  64.4424868  64.6953964  80.3050167  93.4248783   6.9794628
  80.3852016  93.3822276   6.0265896  80.5674106  94.3180682   7.2021648
  41.6008674  96.3707496  -0.0249222  40.7462925  96.1739494  -0.4085949
  41.3995232  96.8820717   0.7588169  99.6571286  43.2930994  93.0416870
  99.7860821  42.3679018  92.8328514 100.3031309  43.4769917  93.7236691
 113.7038796  78.1988621  83.5991192 114.5367248  78.6118031  83.3709049
 113.6729680  78.2343864  84.5551586 110.9632088  48.0590057  84.3993092
 110.7662333  47.6165819  85.2249527 111.0864945  48.9765024  84.6426773
   7.7116728  61.4143085  75.8352089   8.0823773  60.7123232  75.3003931
   8.4034395  61.6296053  76.4607763  65.4107839 110.5860664  21.3080093
  66.0650832 110.5050852  20.6140587  64.9360377 109.7551443  21.2877247
  94.1755224  36.9785744   6.3382313  93.8505829  36.0873658   6.4662716
  93.4676398  37.5394685   6.6552898  45.2440101   7.1751552  58.5328102
  45.9782643   6.9913631  59.1187477  44.6801371   7.7650027  59.0331650
  89.9717636  89.4703484  90.2826786  90.7599564  89.9136925  90.5964184
  89.4210263  89.3818760  91.0605526  92.3342193  13.4394938   2.8191349
  93.2324828  13.5007912   2.4941799  91.7945612  13.4180743   2.0288631
 105.2733238  60.4731560  51.6271973 106.1787064  60.3360271  51.9059563
 105.0547619  61.3490248  51.9455004  79.5268886  48.0033929   5.1148006
  80.0686207  47.8843457   4.3346855  80.0409453  48.5827405   5.6772396
  12.5835091 111.1159755  13.3089802  11.6629869 110.8742429  13.4111378
  12.6570398 111.3992311  12.3976109 106.6519685  34.4456005  86.9903088
 105.8147557  34.5874619  87.4320984 106.7641397  33.4949946  86.9891930
  41.0071754  55.5776024  84.1778946  40.3946590  56.2916946  84.0014648
  41.0982752  55.5701017  85.1307201  68.5110998  81.0098553  86.9897556
  68.5563421  81.8947029  86.6275024  69.3015814  80.5778408  86.6661263
  88.0368669  19.6050746   2.6122734  88.1617690  19.0589387   3.3884022
  88.3051909  19.0479237   1.8816540  28.9708161  58.8918686  63.8761330
  28.9855051  59.8457956  63.7984228  29.2912650  58.7187099  64.7613239
  73.1057025   3.8844353  30.5433151  73.5048980   3.9592845  29.6765492
  73.7502039   3.4042413  31.0631821  31.7754048  32.7442128  26.6979858
  31.2946289  33.3749539  27.2339508  32.3311156  32.2753197  27.3205349
  35.8813742   1.9788699  47.7233553  35.4161990   2.3502593  46.9737482
  35.7835001   2.6338725  48.4144545  45.1806402  99.0846729  51.3139343
  45.4387522  98.2636547  51.7328978  44.9942350  98.8424301  50.4068518
  93.3189650  68.6180449  61.0519886  93.8655539  68.7095690  60.2715445
  93.1416912  67.6792908  61.1115026   9.8854578  33.1837821  94.3356133
  10.5781770  33.8115120  94.1298866   9.2298853  33.6968470  94.8080730
  39.1830944 109.1666938   9.7986004  38.6938881 109.3460752   8.9956448
  39.8658958 108.5516693   9.5307133  84.8968847  14.6723182   3.0605003
  85.0573123  15.5319459   2.6712200  84.7141088  14.8569257   3.9817783
  93.3318413  49.8177010  19.8974583  92.8402675  49.9202020  20.7123634
  92.8279758  50.3109795  19.2501328  10.3601313  34.6776390  87.5704288
  10.2762043  33.7708855  87.8653622  10.0580764  34.6630383  86.6622543
   9.5895529  72.9995155  90.4808426  10.3872848  72.7253294  90.9332561
   9.8981065  73.5644054  89.7723770  77.7004142  77.9251242  80.3341866
  77.5287624  77.4675703  79.5111370  77.4950023  77.2822428  81.0129738
   1.8650946  74.9844313  90.9212208   1.9890667  74.1857386  91.4340115
   2.6507837  75.5035639  91.0927677  40.6481457  92.5629139  92.9695606
  41.0644150  92.7150440  93.8179684  41.2762690  92.0249271  92.4876213
  92.2669757   3.5818869   1.2673828  91.9367672   4.1695744   0.5878136
  93.1203330   3.9451081   1.5042088 107.3188270  11.4404685   5.8302280
 107.9119504  10.6935555   5.9112141 106.4453114  11.0503346   5.7986519
  56.9544548  90.4509570   2.9317925  57.5719506  89.7631647   2.6830551
  56.2204069  90.3440477   2.3268292  36.7177439  65.3906584  80.0558662
  37.6445818  65.3315115  79.8241282  36.6335821  64.8556519  80.8451176
  15.9179943  29.0669114  28.9069626  15.1336497  28.8606602  29.4153854
  16.5038174  28.3253247  29.0589592 108.3866681  30.0999696  14.1547272
 108.2155860  30.2005917  15.0911305 109.2362297  29.6610219  14.1122791
  22.2191572  52.2505713  88.3186722  23.1185055  51.9230843  88.3312702
  21.7463636  51.6308737  87.7630997  13.7953341  44.2631483  53.5825872
  14.3536317  43.9353418  54.2876244  14.1241181  45.1447868  53.4069729
  20.4170537  56.4660454  49.6587276  19.8083866  56.5114307  48.9213705
  20.8450317  55.6151104  49.5639896 103.7716682  37.4388909  81.3403320
 103.7483676  37.6082301  82.2821426 103.7411530  38.3077812  80.9399223
   7.0695776  29.3006587  94.1432095   7.7020603  28.6023903  93.9740467
   6.2212676  28.8574529  94.1561985  29.1728234  70.9618187  87.4850845
  29.8849463  70.3357077  87.6158524  29.1593385  71.1153316  86.5403652
   1.8289672  53.1755066  25.7510114   2.0368347  54.0954924  25.5877709
   1.7942756  53.1033897  26.7048597  78.5575723   7.8402907   3.9668152
  77.6968701   7.4223286   3.9398167  78.9602589   7.6137263   3.1285164
   7.9594314  77.2832012  91.8512344   8.1595057  77.9266787  91.1714268
   8.6679077  77.3790455  92.4877167  30.4288894  87.3701193  11.7675755
  31.0057027  86.9049312  12.3734734  29.6963484  87.6616313  12.3103783
  37.2171355  99.9211694  36.2891743  37.9850242  99.7125532  36.8212006
  36.5830502  99.2374803  36.5053627  32.7092338  61.0952759  93.1677246
  33.1640601  61.9064903  93.3942223  33.3707976  60.5661774  92.7220631
  26.5161395  65.3677511  76.1052132  27.1848345  65.8119822  75.5839300
  26.9980264  64.7018147  76.5956688  24.7367072  46.0516596  75.2379608
  23.8718343  45.6633234  75.3699350  24.7248220  46.3606453  74.3320847
  29.4253588  41.7442560  76.7239952  29.2896008  41.9174576  77.6555538
  28.5634017  41.8733501  76.3282728  16.2490225  54.9745750  83.4256744
  15.9650052  55.5506420  84.1353989  15.5787396  55.0782681  82.7502441
  98.9409603  12.8090865   9.9731133  99.1553558  13.7143332   9.7477314
  99.6339334  12.5420672  10.5770275   4.0057072 102.9135513  88.2902527
   4.3073362 103.2104015  87.4316883   4.7701281 103.0081272  88.8585377
  82.8702874  66.9658232  71.4876986  83.2757659  66.0987711  71.4945316
  82.1602769  66.8931675  70.8498573   3.8959283  48.2599115  96.2521172
   4.4267032  47.6585197  96.7744541   4.0854213  48.0204391  95.3449345
 102.7248109  14.5682294   2.4025318 102.1728099  14.1211278   3.0441162
 103.4346879  13.9509255   2.2257778  37.5176096  91.7066956  55.4565907
  37.0860195  91.5735912  56.3005400  37.2888899  90.9303284  54.9455309
  82.4521993  42.7217538   8.1446716  82.1811728  43.3128125   8.8471100
  82.5511096  41.8710858   8.5722324   1.8389405  87.8888416  73.3260441
   1.4648801  87.1787357  72.8044558   1.8156603  88.6499691  72.7460623
  11.1842382  66.8095398  62.4504757  11.9918454  66.8329430  62.9637575
  10.8014786  67.6791859  62.5664139   2.1242772  54.1957188  81.6478062
   1.9242732  53.2834768  81.4379311   2.7097780  54.4801235  80.9459972
  69.1555775  11.7351300   3.9789936  69.6911199  12.5255496   3.9107296
  69.7881938  11.0167891   3.9828178  62.4374325 108.8748647  14.5787499
  63.0414588 108.3471538  15.1011440  63.0044991 109.4513370  14.0665504
  34.4462252  56.4266348  89.0279484  34.0038037  56.8463850  89.7657204
  33.7404442  56.0195398  88.5255814  32.0038486  75.6804276  87.5895977
  31.2327123  75.8280468  88.1371212  32.7107358  76.1402559  88.0424786
 107.7479286  15.7416439  72.2203541 107.5350912  16.6705036  72.1300697
 107.2356386  15.3109241  71.5360546   5.1025217  25.6281716   8.0430862
   4.4399660  26.0521371   8.5885212   5.1862305  26.1999566   7.2800037
  12.0663822  80.8893299  77.8658962  12.3809707  80.3253078  78.5723972
  11.1148334  80.8949661  77.9695988  61.9490099  46.5540266  95.9648991
  61.2978649  46.8993139  95.3541470  61.5066957  46.5574121  96.8137646
  49.8417730 109.4217445  27.0984909  50.1955003 109.9832012  26.4086506
  49.6737022 110.0169279  27.8290722  87.8238440  36.7764336  21.8777153
  87.3406596  37.5917870  21.7437145  87.8506828  36.6673905  22.8283093
 105.6850274  89.8075485  73.1722927 106.3945563  89.6573830  72.5475883
 105.5417819  88.9542675  73.5817003 108.0273981 110.3050232  63.3971691
 107.4798484 110.8676052  62.8495169 108.8647385 110.7655907  63.4517241
 105.9789570  70.7855606  42.0170641 105.9552355  70.2368975  42.8010559
 105.2284987  70.4951525  41.4986944  13.9096344  37.0093274  93.6788559
  13.6616898  37.1422315  92.7639294  13.9304364  37.8906322  94.0518188
  85.2527429  60.2743775  22.5515530  86.0703851  59.7921616  22.4284145
  84.8325790  60.2569634  21.6916725  20.2539134  60.6783152  56.5663385
  20.5276942  61.5911674  56.6556501  20.3715992  60.4828262  55.6367302
  43.5405016  78.7720966  66.2248755  42.7686930  78.6395407  65.6744480
  43.2128620  79.2527390  66.9850540  69.9825222   4.8819213  86.4318085
  69.6330387   4.0202575  86.2045860  70.6781036   4.6992831  87.0635128
  32.7544594  74.6607351  54.1315556  33.3487296  75.3427601  54.4444752
  33.3282948  73.9296055  53.9026546  23.4199452  87.4532127  79.4531488
  22.5920939  87.2839451  79.9028635  23.2244110  88.1743336  78.8548326
  30.0144219  84.7250938  91.1792374  29.7590375  84.4593239  90.2958584
  29.6822476  85.6186104  91.2659740  95.6808580  11.0188491   3.5344288
  95.5992127  11.8411166   3.0512688  94.8101676  10.6243283   3.4846470
   1.0162682  76.1770964  82.7426434   1.3551104  75.3747129  83.1396294
   0.0874908  75.9980059  82.5959015  28.9633965  60.1723862  38.9021540
  29.2081594  60.2881145  39.8202658  28.0454302  59.9027014  38.9311624
  19.5865679  64.4557285  51.5765667  19.7511041  63.5217857  51.4465380
  18.9245808  64.6758318  50.9211588  30.8022070  82.9309273  73.4778357
  31.5718985  83.0458546  74.0351486  30.1013970  82.6905537  74.0839052
  33.0628443  86.2715626  93.6586285  32.6859069  87.0685196  94.0314770
  32.8360462  85.5837917  94.2845345  12.9728317  85.2383995  76.7398691
  13.2015896  84.3216038  76.5869570  12.0553446  85.3037262  76.4749527
  69.8276788   3.6645274  68.4386206  70.1572139   3.2500320  69.2360115
  69.4649536   4.4993072  68.7349415  47.3804808  96.6568279  73.1987143
  47.3437977  96.0555267  73.9425659  47.2071266  96.1051083  72.4359655
 114.2302001   2.9250247  19.9143288 114.7996582   2.9212243  19.1449520
 113.7192882   3.7300832  19.8301765  29.5273662  59.1195869  77.6054859
  30.4124475  58.9012575  77.3136044  28.9533520  58.6949587  76.9679689
  59.2787076  39.1112286   6.1875221  58.8827074  39.9373872   5.9102509
  59.6393348  38.7368352   5.3837750  10.9607065  69.6510506  64.0070677
  10.3836465  69.9354124  64.7158480  11.7390895  70.2008772  64.0967464
  93.8895632  27.3001534  22.1617863  93.4637786  28.1572205  22.1423218
  94.5733822  27.3572213  21.4944241 103.3313139  68.0179691  75.1187468
 102.9431565  67.7567673  75.9538174 102.6717825  67.7858067  74.4650269
  46.6731787  59.3355227  76.8895769  46.7818737  60.2817249  76.7940950
  45.7594252  59.1744518  76.6543388  98.8266607  75.3661346  76.3674736
  99.6047492  75.9228468  76.3971710  99.0498502  74.6756792  75.7432175
  87.3350078   3.0639987  84.6366692  87.5012380   2.3267322  84.0492725
  88.1572563   3.1812625  85.1124668  47.4828196  92.7354813  47.0633602
  48.1884432  93.3368969  46.8254042  47.4157619  92.1382046  46.3183832
  39.8194051  98.5824585  53.3490992  39.5863652  98.5688972  52.4208021
  40.5500507  97.9683495  53.4216166  24.4245934 106.1697102  91.7510700
  23.6836362 105.6866646  92.1169758  24.6441889 105.6986237  90.9472752
  28.8627100  96.8966579  49.0342236  28.6473227  97.0288563  48.1109905
  28.0525661  96.5687752  49.4246054  40.2744246  66.3642454  84.6221161
  41.0076094  65.9803820  85.1030731  39.5177937  65.8366203  84.8777580
 107.9346378  42.7150011  63.1235075 107.3413820  42.0040083  63.3659267
 108.1040318  43.1762028  63.9449883   6.6603010  32.5939614  19.6338913
   5.7539767  32.7406461  19.3631622   6.5903872  32.0617635  20.4264233
  19.2976868  69.3207693  89.8122025  18.8350654  69.7411728  89.0873146
  18.6085308  68.8920689  90.3196621  64.3723858  27.3717553  14.5506546
  64.6306468  26.6037995  15.0603363  65.1961757  27.7230412  14.2127201
  66.0635651  19.6880252  14.6508381  66.2426353  19.6873862  13.7105343
  65.8661688  18.7745244  14.8576805  54.5820088  89.8395087   1.3382504
  53.7860591  90.1984526   0.9460041  54.3045527  89.0096881   1.7263767
   4.3416655  74.1512156  84.4428062   3.8291246  74.9596214  84.4464588
   3.9722571  73.6301947  85.1557636  91.2320841  18.8958604   2.6439259
  90.7055999  18.8534123   1.8456432  91.9470573  18.2777173   2.4924442
  42.8346777  73.1178856  88.3436489  42.7009201  73.7167597  89.0782928
  43.7772989  72.9515362  88.3388138   3.5926732  60.7306671  49.6178150
   4.3376079  61.2082767  49.2528582   3.4011167  61.1789036  50.4416037
  36.5974704 104.7582914  15.1753017  36.5037945 103.8075496  15.1158211
  35.9262765 105.1024343  14.5859787  12.8479648  93.5089016  76.3506460
  12.1237564  93.5931683  76.9708490  13.5942650  93.9075089  76.7982769
   1.4334579  94.3689632  90.5233288   1.1125052  95.0900936  91.0647964
   1.6921745  93.6945820  91.1514378  16.5935946  74.1281796  92.2969341
  16.9816351  73.2558489  92.2284222  17.3370254  74.7089815  92.4588394
  70.0052411  23.7305884  91.4472771  70.4365784  23.9047008  90.6106949
  69.0803558  23.9142375  91.2826729 106.6290987  31.0965592   4.3015072
 106.4081419  31.7255074   4.9884102 105.8048452  30.6476075   4.1136906
  41.7634392  85.3166199  88.8898659  40.9688711  85.0748825  88.4139919
  41.5717411  86.1815357  89.2523479   6.5620703  40.2252007  70.6199789
   7.1653050  40.5481577  71.2893343   6.5951294  40.8864117  69.9286461
  29.9472666  48.8063669  67.0936346  29.1807747  49.0929413  66.5970469
  30.5710006  48.5191202  66.4267921  28.0594516  89.9120235  84.4239521
  28.5484886  89.9706364  85.2447128  27.2021341  89.5717239  84.6797562
  35.8867383  50.4338455  66.7842627  35.3196049  49.9653149  66.1718321
  35.9997034  51.2995195  66.3917303  88.3301956  39.2617852   3.3022186
  88.6241854  39.5764310   2.4473450  87.6861990  39.9099500   3.5874912
  19.0223444  94.8735905  61.9158745  18.0797899  94.7068024  61.9175959
  19.4123197  94.0415955  61.6476727   0.5081552  39.2768437   0.2177879
   0.1746243  38.4314687  -0.0827816  -0.2548844  39.8545701   0.2023670
  13.3660829  44.5413160  73.6511564  13.0037439  45.2620506  74.1664124
  12.7106535  43.8468075  73.7167692  37.3679328  24.4955540  55.2157021
  37.6851392  24.1159654  56.0351706  36.5684390  24.0072536  55.0192213
   7.6309866 102.4707794  85.0653744   6.9564658 101.9032383  85.4384041
   7.2809368 102.7306652  84.2132282  79.6140987  93.0837108   3.8958618
  80.1337702  93.8844372   3.8250992  79.8499328  92.5757362   3.1195995
 116.6940880  87.4262142  83.6559963 115.9804033  86.8233395  83.8643742
 117.4856433  86.8919563  83.7210941  58.6302150  40.0582272  11.0643932
  58.6742176  39.1534097  11.3735840  59.4982065  40.2288682  10.6987354
  18.7058353  52.8864908  67.0242357  18.1615067  53.3135414  67.6857281
  18.1398737  52.8194857  66.2551928  12.7606320  81.0507679  65.8056498
  12.7297211  81.7480564  66.4606762  12.1224499  81.3158703  65.1433229
  80.8213499   0.7043368   3.6533234  80.1858775   0.0598580   3.9648506
  81.5652073   0.6145531   4.2490170  31.5387034  91.1705971  96.4315033
  31.6465664  92.0949554  96.2075615  30.6254935  91.0962486  96.7085361
   6.1780899  33.3235604  10.9200260   6.6645926  33.8848645  10.3162930
   6.6656845  33.3766324  11.7420170  12.9412818  66.6180706  73.6523962
  12.8924775  65.7625103  73.2259417  12.8497827  66.4260626  74.5856667
   9.3787217  88.2551765  69.3982506  10.0092912  88.0483246  68.7084484
   9.8753440  88.7778664  70.0278473   4.8501393  98.1506443  95.2028370
   5.2213538  98.8608265  95.7263470   5.4462850  98.0646038  94.4589043
  99.5541728   4.0947396  15.0643799  99.7435630   3.5671956  15.8402988
 100.3611792   4.5840747  14.9046299 108.4634127  54.0408325  31.2035418
 109.2549123  53.5050440  31.2554455 107.7662177  53.4186792  30.9959912
 104.4201441  55.6293774  31.7839932 104.4788511  56.2484074  31.0562658
 103.4819968  55.4704237  31.8881369  82.2764138  13.9776904   4.4086048
  82.0327760  13.1404073   4.8033592  82.7504090  13.7381226   3.6122582
  20.4098392  65.9452295  62.3433781  21.1114073  66.5960836  62.3640203
  20.4234099  65.6067514  61.4481258  27.1159959  52.4110603  69.1093969
  27.8687096  52.9885817  69.2363930  27.4564004  51.5328789  69.2801285
  54.2804081  90.4239394   4.0908310  55.1769060  90.0900699   4.1233036
  54.0969247  90.7051231   4.9872086  29.4253182  66.1808920  95.6871796
  29.5366669  65.4306602  95.1032352  28.5842156  66.0268259  96.1173439
  20.1181221  64.6390629  54.3977118  20.2384949  65.5630207  54.6168900
  19.7923243  64.6468782  53.4976959  44.8030567 104.3215561  62.8205204
  44.3799925 103.7042332  63.4173203  44.2387390 104.3322945  62.0474339
  23.8617373 105.1122284  80.3811932  23.9966321 105.3539753  79.4648981
  24.7297883 105.1840305  80.7781315 103.0886782  12.3207337  10.9985897
 103.5575355  12.0577676  11.7905876 103.4936536  13.1500632  10.7447407
 109.8644818  43.0023629   8.9490387 109.8657669  43.3674771   8.0642101
 110.1622332  43.7220055   9.5055363  11.1217129  76.5314770  68.8846397
  10.9159899  75.6516695  68.5686493  12.0214057  76.4666510  69.2049265
  87.8836007   2.5790078   9.3588039  87.4034215   2.9989011   8.6451122
  87.2774447   1.9221932   9.7014401  24.5521975  48.5428190  60.8492947
  23.7821031  48.5059023  60.2819967  25.2780080  48.7351656  60.2556324
   1.3959854  25.0664098   2.3936150   0.7794398  25.7766110   2.2155258
   2.2572249  25.4827649   2.3597118  13.7146163  90.7489395  37.3976278
  13.2077932  89.9612236  37.2004890  13.3765352  91.0460854  38.2423949
   5.2431929  76.5058708  74.6447420   5.0306946  75.6485510  74.2758608
   5.0754291  76.4114285  75.5823851  49.0103674  68.5773182  60.3248692
  48.9449787  67.9019690  61.0000467  49.9387455  68.5944510  60.0923681
 117.9612844  52.4663687  68.5547543 118.1919833  51.5480423  68.6950731
 117.5551706  52.7396822  69.3773174  80.9404213 106.9711639  35.5653927
  80.3418333 106.2853481  35.8613274  81.8133194 106.6155912  35.7322762
 118.3375181  19.2781789   0.5451843 117.4335683  19.5833546   0.6224892
 118.6772669  19.3067319   1.4396069  20.0182271  84.2308235  89.9666595
  20.8665276  84.3086147  89.5301151  19.5023537  84.9583149  89.6189976
  95.6370301  63.3232069  94.8115158  96.3279577  62.7187729  95.0826454
  95.4314394  63.8221264  95.6021118  25.9314609  82.5492954  91.6790199
  26.8139911  82.6682663  92.0300484  25.6198001  83.4380817  91.5082455
   6.2336379  60.9112883  71.7476225   6.2398571  61.6913366  72.3023462
   5.9267008  61.2248135  70.8969021  44.5589924 101.8614197  60.3452826
  45.4678679 102.0528030  60.5766773  44.0515757 102.5459576  60.7813597
   1.2376166  55.4504490  72.6620579   1.4928649  55.5202675  71.7421627
   0.6794754  56.2130308  72.8142929  20.6444836  85.1110935  47.9750681
  20.1181507  84.7969627  48.7102747  20.1117206  85.7987309  47.5756407
  25.6296730  51.2118053  93.9694023  25.1547623  51.3836718  93.1562901
  26.1662817  51.9930935  94.1030788 112.6540752 101.6363811  78.7668180
 112.6698060 102.3953247  79.3498993 112.9146124 101.9841480  77.9139376
 109.1436686  98.0784988  68.1833839 108.4127720  98.3358574  67.6214314
 108.7444533  97.9229069  69.0393305 103.9363969  25.6772382   4.8308441
 104.7874034  25.9688432   4.5037529 103.5926760  26.4313657   5.3097889
  29.1925764  81.8015099  58.1943607  28.4981012  82.3968697  57.9124355
  29.9977851  82.1983624  57.8621292  91.7188800   4.7267968  17.0082352
  92.6651121   4.8686702  17.0356152  91.3647927   5.3500230  17.6426193
  95.6597806   7.8610474   4.3055031  94.8375357   8.3510930   4.3045971
  95.7551969   7.5549800   5.2074120  21.2429094  65.7178020  84.2205524
  21.8748426  66.0372686  84.8646259  21.7422295  65.1083279  83.6769962
 117.3177662  75.7217026  85.3687286 116.6705841  75.0519133  85.1478958
 116.9604562  76.1533785  86.1447620  21.4799898   1.6295201  14.8680946
  22.0089167   1.2082154  15.5455753  22.0442742   1.6389043  14.0949699
 109.4404901  75.6478691  92.7677727 108.9323558  76.2633514  93.2961845
 108.8192601  74.9550438  92.5434971   3.2790452  76.0245371  63.6300802
   3.6421621  75.1390600  63.6125183   2.4200884  75.9230757  64.0401173
 102.1354211  15.3343255  13.6669514 101.5955080  16.1244828  13.6476204
 101.5235318  14.6215827  13.4830448  35.6405163  64.2054176  77.4927950
  34.7639441  64.2547941  77.1114588  35.5570602  64.6391296  78.3420038
  28.4096313  66.7066908  74.5794678  28.4469080  66.9596338  73.6570454
  28.8921523  67.3956013  75.0364208  24.4017458  75.2145958  94.7729588
  23.4682775  75.0028753  94.7661591  24.7066045  74.9814892  93.8960552
  39.2643452  64.9988508  79.5186996  39.7566748  64.7352028  80.2960873
  39.8855710  64.9007988  78.7971067   3.8760680  59.7749329  79.4423628
   4.2352381  58.8894367  79.4983292   3.6429903  59.8810053  78.5200500
  25.3300309  86.3549328  68.8270378  24.6233559  86.9570923  68.5941124
  26.1218238  86.7721081  68.4875345  38.9206576  41.9359016  86.5174389
  37.9781485  42.0976496  86.5592194  39.0851998  41.7140722  85.6009483
  65.2995062  77.8652334  90.2687550  64.4559002  78.2712555  90.0695133
  65.9300756  78.3489084  89.7352028  20.1080012  82.8780365  65.7979012
  20.3313541  83.5276222  65.1312876  19.6425712  83.3753014  66.4704514
 117.9495920   2.1101052   5.3853199 117.7511729   1.1924989   5.1986191
 117.6415504   2.2441918   6.2816307   4.7353953  48.6224229  10.6965897
   5.4941290  48.4525353  11.2548897   4.9255484  48.1526334   9.8845741
   9.2709982  65.3897190  90.8320904  10.0464666  65.9500360  90.8625031
   8.6424905  65.8188868  91.4126301  11.7979896  75.4852581  96.3147831
  12.0818889  74.5851707  96.1551666  12.3407173  76.0147572  95.7305622
 109.8728789  52.6442200   0.2209351 109.2423786  51.9292695   0.1340935
 109.4864620  53.2261712   0.8753464  22.4327540  90.4781723  66.9416904
  23.2392836  90.8939457  67.2464371  21.7712379  90.7408810  67.5817013
  12.1875310  95.8329487  55.4354477  11.6741407  96.2447834  54.7404289
  11.5597498  95.6885147  56.1434460  85.3491200  52.4619920  15.8155701
  85.0941540  52.5134618  14.8943874  86.2883533  52.2786385  15.7942459
  10.4516387 105.0703526  84.4210625   9.5296288 104.8755169  84.2532349
  10.7814991 105.4045391  83.5869503  10.0336635 100.4738331  65.7264996
  10.4422081 100.3500366  64.8697615   9.1084301 100.2759933  65.5814743
  69.6273518 103.6318970  75.6707573  70.5669641 103.4822464  75.7754564
  69.2213774 102.8122425  75.9528732   0.2082723  28.1795651   5.0751087
   1.0614556  28.0630071   4.6571037   0.0179380  29.1122968   4.9750111
  29.1295242  58.4539843  82.6089764  29.6279240  57.6938391  82.9089928
  28.6441207  58.1367540  81.8474102 109.9046703  60.6671095  61.5098906
 110.3841646  61.3025522  60.9783554 110.5808230  60.0823355  61.8520737
  37.6556301  80.4420757  64.5904827  37.4065781  79.8016453  65.2568626
  36.8488359  80.6055641  64.1020346  26.6131830  61.3946629  69.6447372
  27.2588348  61.3870001  70.3513527  25.8634329  60.9174156  70.0001764
 103.4654577  87.2010708  81.0061073 102.6097174  87.4411297  80.6507015
 103.3366556  86.3249683  81.3695431   7.8467530  14.5406539   9.8249695
   7.2993677  14.7578389  10.5795738   8.7377184  14.5176131  10.1740810
  26.2863326  84.4234467  77.8507710  26.5072131  83.4923744  77.8273010
  27.1078587  84.8697472  77.6454735   6.9063878  94.6994972  75.0492477
   6.1657387  94.1657257  75.3369236   6.6253287  95.6015873  75.2024794
 109.5707191  27.4949128   1.1211941 109.1204394  27.4192387   0.2799198
 109.0477098  26.9635064   1.7214462  36.6125250  70.9384012  75.3930092
  36.1122799  70.4365778  76.0365629  37.3893595  71.2315989  75.8692408
  35.6842113  46.5559340  84.0584373  35.9619021  45.7416821  84.4781017
  35.0868249  46.2762547  83.3647919   6.9543856  74.9857330  47.1417475
   7.2291082  75.8861160  46.9683504   7.6493573  74.6251059  47.6923800
  82.3884339   0.1731164   0.2631352  81.4579684   0.1142270   0.0463459
  82.4257244   0.7918412   0.9925339  49.8990059  83.9167976  90.2002907
  50.1332712  84.1819096  89.3108654  50.7371998  83.7303257  90.6232452
  31.2747877   8.2608611  18.0689690  31.2290352   9.1471774  17.7103779
  31.0252970   8.3609969  18.9876434  25.4776692  81.6272449  95.1909542
  24.9923658  80.8462906  94.9248314  24.8096776  82.2165108  95.5413628
  46.8628610  16.9456202   7.3686382  46.6698373  17.3688847   8.2051918
  47.5482286  17.4879748   6.9783089 111.5145100  32.2722871  21.0969421
 111.2498797  31.5445954  20.5342075 112.2940935  32.6314503  20.6732914
  22.2317910  71.6568661  84.8911762  21.6876101  71.9030380  84.1431808
  22.3661542  70.7145786  84.7898102  43.0734525  17.4329333  81.3871574
  43.5155315  16.6081386  81.5884113  43.6385173  18.1062274  81.7661095
  93.7504006  42.3018224  12.9511807  94.6571983  42.5735814  12.8094170
  93.7774731  41.7893845  13.7592003  59.9118471  81.0726547  61.3155699
  59.2851162  80.4592705  60.9318972  60.4700947  81.3340759  60.5832767
  59.1572428  76.5970516  75.0577879  59.9029350  76.1178923  74.6964264
  59.0214014  77.3231697  74.4490767  27.9912949  50.0355434  94.4540119
  28.2271981  50.8604097  94.8784828  27.0509291  50.1101208  94.2915821
  19.8728228  44.2545128  94.4724178  19.4535613  43.6631155  93.8473606
  20.7301879  44.4395018  94.0890980  23.5784340  83.2262135  62.2165537
  23.3566427  83.9863586  61.6787672  24.3622112  83.4930992  62.6968622
  28.4735513  81.6054916  89.3690586  28.5287118  81.6941357  90.3205395
  28.9862013  82.3393059  89.0300274   6.5464675  74.1591311  65.0494623
   7.1236432  74.3933630  65.7762623   6.2448829  73.2750463  65.2584457
  43.4413290  40.2693272  81.1939621  44.3070459  40.0699949  81.5503788
  42.9795313  40.7000589  81.9132996  75.2395040  86.5127112  12.4904129
  75.1966984  85.6563856  12.0648453  74.4507891  86.9670583  12.1942303
  97.4733354  25.9512193  17.6234886  97.4276102  26.7847878  18.0917999
  96.7424465  25.4405076  17.9716274  47.1902514  64.7917461  83.8991547
  47.1899128  64.4378567  83.0097771  47.3227358  65.7325315  83.7825394
  67.3664839   5.4166751  72.2727489  66.5176040   5.7477718  71.9794750
  67.9634840   5.6160884  71.5515995   3.2580245  78.6920023  93.3399868
   3.2434708  79.4839764  93.8773823   4.1022128  78.2853699  93.5355091
  21.7060072 105.5195476  22.1132729  21.5668089 106.2343361  22.7345058
  21.9600302 105.9553148  21.2997601  29.2728090  45.6805468  77.0370197
  30.0305867  45.1028872  76.9458294  28.6870456  45.4212952  76.3257551
  32.3645616  69.6624851  84.8127556  32.7964568  69.5138788  83.9715576
  33.0482006  70.0332308  85.3707981  15.2811163  12.4841983  11.5620205
  15.1042431  13.3465201  11.1860630  14.5788830  11.9275672  11.2254688
  26.7034602  88.1327152  55.2799654  25.8682156  88.6000061  55.2952480
  26.9904852  88.1849480  54.3683100  22.3973894  57.1340227  61.3360834
  22.2549224  57.8592634  60.7278395  23.3470297  57.0145750  61.3481474
  25.6662273  42.2115421  77.9980516  25.9032583  43.1379509  78.0406523
  25.0796247  42.1488190  77.2442627 105.2188910  60.6557996  27.5747749
 104.5640052  60.2840001  28.1656429 105.3251947  61.5591294  27.8730080
  35.7078195  66.3469076  69.0611601  35.3199482  67.0261145  69.6129417
  36.1066532  65.7347441  69.6795607  15.9121799 103.2749557  82.1501446
  15.2509010 103.1445312  82.8297997  15.9929419 102.4200058  81.7273331
   3.8518497 103.3384609  48.5895109   4.2268735 102.5098896  48.2910824
   3.6084089 103.7950134  47.7841997  22.2066736  44.9212217  71.6351128
  22.2710633  44.6840382  72.5602198  22.5970840  44.1810799  71.1703539
  89.5513440  36.2082822   9.6425125  90.2438439  35.6531007   9.2841122
  88.8059253  35.6185204   9.7554752  18.0493004 108.4672834  15.9812901
  17.2141916 108.0982830  16.2688038  18.6907202 107.7813961  16.1666748
  27.2074747  90.1417542  67.8477764  27.4485350  89.2178726  67.7802038
  27.7124000  90.4671478  68.5930300  20.5853653  40.8671379  94.3462276
  20.3232193  41.2731791  93.5200024  21.5022564  41.1188889  94.4565105
  17.2398806  79.6461821  69.6989775  17.4201345  78.8923168  69.1373491
  16.7051160  79.2928123  70.4098797  74.9297003  19.1988808   3.5067246
  74.9804319  18.3333451   3.1011364  74.6477730  19.7787530   2.7992699
 111.6172607  63.3158398  95.7636356 111.4509810  62.4530315  95.3839779
 112.3930700  63.6349058  95.3026104  23.5589457  74.1999435  74.3122244
  23.2913399  75.1188946  74.3001699  23.5940623  73.9485836  73.3892870
  65.2073968  59.6970803  13.6184475  65.2451158  60.5929715  13.2834980
  65.7348634  59.1886479  13.0024025  95.1595319  29.5566422  16.4993927
  94.2509700  29.3179280  16.3156483  95.1414991  30.5083901  16.5997860
 117.0243967  17.1069485  13.0001614 117.1205963  16.9974715  12.0541164
 116.8355430  18.0382163  13.1155273  22.6924539  29.7361207  72.3315048
  22.6883912  29.2310762  71.5183973  21.8004203  30.0748420  72.4075317
  33.1256008  60.0108433  77.6832676  32.6712751  59.3396521  77.1740341
  33.5199690  60.5841541  77.0259857  41.6655064  48.5092163  74.4269466
  42.5854683  48.6631250  74.2119694  41.4986134  49.0726233  75.1825619
  36.1031532  34.3089557  75.4676676  35.9997082  33.9399838  74.5905161
  35.7774544  35.2057028  75.3902292  12.4710882  98.3434677  70.8354330
  11.6286731  97.8918934  70.8868885  13.1180823  97.6393318  70.7927799
  27.6731634  73.6191177  70.7823181  27.4255061  73.7624407  71.6957474
  26.9810867  74.0453959  70.2767992  98.5789753  61.7512566  15.0468609
  98.8365329  62.1196992  15.8919308  98.1764770  60.9105737  15.2647659
  35.6262994  74.2541599  82.3994160  36.2235713  73.6893082  81.9090748
  36.1862397  74.7010279  83.0342484  24.1270846  32.7738911   4.2209408
  23.3346146  33.3106953   4.2130825  24.6907109  33.1691415   3.5558579
  43.1409883 101.8944454  36.2274265  42.3102903 101.5292072  35.9228420
  43.7114954 101.1336327  36.3365173  16.0528779  64.5751286  89.3072605
  15.5261290  63.7898684  89.1584778  16.9411981  64.3179941  89.0602779
  49.2316437  65.7418585  89.0432644  49.6230936  66.5401793  88.6887360
  49.7934246  65.0365591  88.7220383   7.0860058  57.3413897  83.2812691
   6.1921787  57.6119328  83.0712414   7.2333431  57.6694298  84.1683578
   7.5031960  77.5822258  82.2150326   7.6901573  78.2997942  81.6097450
   6.6344398  77.7828169  82.5632572  36.3618398  90.6996536  96.0448933
  35.6059599  91.0280609  95.5580425  36.6574430  89.9394131  95.5440235
  19.8392546  54.5397806  69.0444803  20.2457070  53.9848852  68.3788061
  19.2431331  53.9550018  69.5123577 111.0439170  12.3826796   2.1988079
 111.3447059  13.2246739   1.8570396 111.8443240  11.9371754   2.4764893
  35.0704527  68.4093189  65.1929045  34.3863773  68.4877348  64.5279789
  34.6680379  67.8922749  65.8907270  13.2325047   9.8962886  31.9274590
  12.8938883   9.3064744  31.2538883  13.2305115   9.3717582  32.7281353
  21.8226116   5.6313235   7.2681973  21.4888972   6.4458186   7.6443169
  21.9496649   5.8302790   6.3405582  12.6217144  14.7372157  12.3160908
  13.0091828  15.3002030  12.9862759  13.2090014  14.8201663  11.5647862
  55.8278084  86.4783096  73.8589573  55.3085470  86.2615681  73.0846024
  56.7343330  86.3344288  73.5874033  20.3841942  61.8111474  13.3771011
  19.9572819  61.1063916  12.8899738  19.7456520  62.0618398  14.0446732
  28.4748578  88.4015560  91.9113636  29.2972374  88.2448864  91.4472675
  28.1277609  89.2030430  91.5197372  75.7693128  55.6102616  10.1021931
  76.2823627  55.4351861  10.8910915  76.0015551  56.5065724   9.8594639
 108.9960702  75.7830811  96.5361786 108.2031365  75.6481504  96.0172558
 108.8657655  76.6333723  96.9560051  12.6867073   2.6727158   8.6202213
  12.2881239   3.5366732   8.5156128  12.7769154   2.3408181   7.7269432
  92.6435662  38.8720185  31.0581944  93.4791244  38.5621220  30.7088539
  92.6136459  38.5257584  31.9500610  73.8285214   0.2864795  78.7855053
  74.6268064  -0.0159211  78.3524561  74.1263181   0.6171184  79.6329832
  52.0917559 105.4449844  96.2554741  52.6411676 106.1829376  96.5196991
  51.2528992 105.8424854  96.0219097  45.5224514 102.1902657  87.5520420
  45.5433178 102.6880646  86.7347336  45.0982094 102.7763939  88.1787109
  28.8480330  76.8565559  82.3672485  28.9856625  76.8830729  83.3141327
  28.2815647  77.6066637  82.1864605   2.4932660 108.4576130  63.4262943
   3.4004405 108.3448505  63.1424761   1.9877757 107.8910446  62.8434467
  67.5559425  76.0829353  57.8434181  67.9387951  76.5299273  58.5983038
  68.0379486  75.2581120  57.7836609  20.0108361  88.2143974  93.6378098
  20.6908751  87.5570202  93.4907246  19.7533619  88.4933949  92.7591133
  59.0603399  93.0786228  55.7452536  58.3873177  92.4152756  55.5927896
  59.1732454  93.0912399  56.6956854   9.5238512  31.1953885  10.6227276
   9.5361870  32.0753247  10.9992668  10.3237217  30.7836873  10.9497616
  38.7984347  75.8461809  78.7530994  38.9309406  75.9733057  79.6925211
  39.6163607  75.4546022  78.4466743  30.4128957  11.2459808  73.9452171
  29.8690182  11.2492900  73.1575537  31.0373348  10.5347591  73.8021183
  20.7750624  15.9867102   3.1496403  21.0964220  16.4316375   3.9338562
  20.3928011  15.1721341   3.4761021 110.1062883  70.9732205  12.8669331
 109.3120779  70.4389626  12.8611633 110.2485646  71.1808736  13.7904427
   2.6660484 104.9899673  77.1045113   3.2510328 105.7455063  77.0480299
   2.6998255 104.7291756  78.0248785   4.3285340  16.5294272  19.2796585
   4.8562258  15.7460839  19.1242668   4.8088711  17.2324330  18.8422939
  75.0770855  86.9292259  75.0966692  74.3561077  87.4610806  75.4336405
  74.9402714  86.0657501  75.4864359  36.0373974  96.1566734  49.1481781
  36.4657116  96.3384914  48.3116817  35.6140447  95.3076649  49.0209436
  84.4668187  91.3498456  18.8767311  84.1359014  90.4559666  18.7888977
  83.9780582  91.8513829  18.2241890 114.7403253  53.7978131  28.8241455
 114.7344769  53.1169278  28.1513855 115.4867400  54.3524033  28.5971424
  86.3151914 108.7569620  20.1249954  85.9981615 107.8876402  20.3699562
  86.5688307 109.1619016  20.9544060  38.8652754  94.6639919  87.5026321
  38.2690692  94.3197441  86.8376064  39.3857813  93.9073467  87.7724171
  17.7222073  97.6610756  90.9539604  17.1666253  98.4280205  91.0931206
  17.9458666  97.3641205  91.8360138   3.3615320  84.9088628  11.6598103
   2.6589792  84.4681317  12.1377346   3.5111922  85.7189805  12.1471951
  41.8236464  24.2437321  38.2593414  42.4932402  24.2886216  38.9418861
  42.1683520  24.7857148  37.5496456  29.7725201  45.5598831  90.1340580
  30.0678587  45.6522417  91.0398579  30.4901052  45.9166813  89.6106052
  69.5848352  19.1530471  58.8587427  69.2216546  18.3368640  58.5149717
  69.9993927  18.9018207  59.6841288  47.1717459  30.9798484  83.1756306
  46.8700481  31.5284686  83.8996696  46.4750082  31.0412269  82.5221634
  48.2425785  81.6543961  77.5991154  48.7306690  81.2800217  76.8657351
  47.3283577  81.6280079  77.3167467 104.0481825  76.1972761  62.8366280
 103.1215663  76.3821220  62.6835108 104.3337805  75.7356215  62.0482492
 100.0333012  19.6511132   0.5510017 100.5258001  20.4630620   0.6710693
 100.6830586  18.9576632   0.6657955  24.1642880  90.1918697  70.7572412
  24.1414213  89.7492886  69.9088144  24.9080968  89.7978020  71.2129784
  29.3655872  88.9626312  64.3300247  29.9300408  89.4687939  63.7457037
  28.8746166  89.6224880  64.8196888  82.5810272   7.1048026  87.8410435
  82.0777208   6.4068465  88.2602978  83.4861976   6.7943626  87.8640461
  93.6734665  30.9876878   9.7823116  93.4228373  31.6525609  10.4236958
  94.4509769  31.3476521   9.3555424  74.1178942  90.9321213  64.1033459
  74.4070387  91.3871002  63.3123827  73.6211777  90.1807499  63.7794018
  65.8318240  11.1334853  70.3569317  66.5695936  11.7400890  70.2939796
  65.3325993  11.2793212  69.5533514 108.8219727  24.6762235  42.7845928
 107.9872430  25.1147229  42.6197407 109.4386590  25.1039559  42.1904823
  87.3153687  72.9338891  27.3360512  87.6180489  73.8418729  27.3228523
  86.6498286  72.9132420  28.0236980  59.3613052 108.7977886  84.9521446
  58.6743212 108.3604622  84.4491196  58.8971901 109.4558048  85.4696846
  44.1930342 105.0360012  92.7517319  44.2594004 105.3937435  93.6370850
  43.5850239 104.3014336  92.8351688  18.9254177  71.0996675  92.9486179
  19.5010698  70.3501129  92.7968788  19.3472433  71.5861034  93.6569118
 111.2653125  64.7314603  18.5140392 110.6356896  65.0221593  17.8542683
 111.0227693  65.2127988  19.3050644  34.7248960  69.8165846  88.9323997
  34.2888474  69.5664930  89.7469807  35.6587696  69.7338724  89.1254616
   4.5709055  35.9371430   1.3039467   3.9558714  35.7313783   0.5999443
   5.2514284  35.2680070   1.2306568  90.7232345  28.4366280  42.4197552
  90.7782114  29.3648679  42.1926376  89.9706531  28.1130654  41.9246170
  17.7243626  52.0585680  91.2114429  17.5454545  51.5615368  90.4132080
  18.6463702  52.3051596  91.1384583  19.8021293  61.9717693  75.5728245
  20.1241016  61.0947180  75.7810307  19.3019998  62.2331142  76.3459969
  32.1446300  83.5933399  92.6151180  31.4317870  83.9267921  92.0702362
  32.6934838  84.3586636  92.7861977  41.8626642  82.0434761  66.8815422
  42.0117331  82.5026417  66.0550022  40.9789085  81.6848469  66.8002987
  52.8524799   7.2321754  87.5347710  52.0770687   7.4302821  87.0096684
  53.3195574   8.0654388  87.5960064  71.1789352   5.9425311  84.3339729
  70.6014783   5.8114200  83.5819244  70.6547529   5.6732326  85.0882530
  89.7283680   2.9291873  40.5000114  89.1327364   2.2152476  40.2725363
  90.2406627   3.0762344  39.7049260  45.4739666  78.3841419  59.4002867
  45.5947018  78.5865021  60.3280306  46.3101053  78.6130238  58.9944363
  31.6523695  86.2241554  63.8592434  31.5594769  86.1175060  62.9125500
  32.4941278  86.6664600  63.9689875  11.3854873 101.8797016  89.9951267
  12.1482921 102.2984028  89.5963192  10.7044363 101.9343758  89.3247414
 110.2798320 100.1575470  66.1448765 110.7908691 100.9135151  66.4339876
 109.9245043  99.7857475  66.9521761  90.2305759  61.1982972   1.0531971
  90.4500116  61.7290646   1.8189404  89.3840934  60.8064324   1.2679932
  28.7672305  56.0833693  67.7375841  29.2739797  55.4836035  67.1901226
  27.8559685  55.8300734  67.5903606  13.0286098  90.0517559  81.6618633
  13.3640909  89.3126106  82.1691608  12.7390575  89.6637726  80.8361149
  72.2434664  52.8435850  64.6610212  71.6289663  53.0024290  65.3775358
  73.0999565  52.7972221  65.0858831  61.9939000  11.2354617  86.0453033
  61.9646413  10.2894263  85.9024811  61.0786707  11.4876037  86.1678219
  98.6585403  42.6790673  10.5673573  98.9867009  42.0596368   9.9155495
  98.0483795  43.2354123  10.0831863  17.6836127  29.2762620   9.5580074
  18.2361763  29.0300996   8.8161823  18.1018942  30.0577695   9.9192879
  48.6558634  95.9509327   1.2845966  48.5052115  95.4122998   2.0613930
  49.0580851  96.7511656   1.6223499  68.4456015  95.2092648  79.8636389
  67.8454828  94.9916649  79.1503811  69.1086626  94.5194149  79.8376465
  49.8673153  85.7356548  63.1855345  48.9376497  85.8288193  63.3935738
  49.9834156  84.7998047  63.0214500  51.2301588  70.3542805  96.4977837
  50.9253883  70.3678179  95.5904961  50.5002356  70.7150602  97.0010471
  40.0638866  52.2436762  74.5982409  40.7303476  51.7665720  75.0926399
  40.5538893  52.9113674  74.1183281  14.6645498  79.4609833  89.4206715
  13.8463378  78.9658308  89.4604206  15.3496385  78.7925339  89.4282055
  40.4264450  76.9046307  90.7040596  39.7249651  76.4583349  90.2297401
  40.9225798  76.1984730  91.1180973  77.1660573   8.1196933  47.6997280
  77.2490436   7.5554805  46.9309521  78.0674893   8.2724719  47.9831171
  52.8825331  80.2533436  81.7673302  53.7583971  80.2614975  82.1533680
  52.7126694  79.3304873  81.5783405  20.5764788  33.5237843  29.4967052
  21.0652655  34.1168744  28.9261314  20.0729244  34.1027505  30.0689480
  78.6142022  13.6629062  88.1419754  77.6751811  13.4966903  88.2247353
  78.9489037  12.9092841  87.6558971  63.0322599 106.7561722  81.8410397
  62.8979921 107.2250843  82.6646423  62.3872137 107.1333122  81.2427902
 117.4881662  11.2180001  17.2286579 117.5980795  11.4515311  16.3069126
 118.3652938  11.3005978  17.6029083  66.1401939 109.5675373  90.0888252
  66.8446493 109.1063118  90.5440712  66.5133190 109.7935581  89.2368126
  44.0205860  89.4231224  71.5408564  43.7856436  88.6005306  71.9702482
  43.2303143  89.9596977  71.6024637   0.1928623  85.2319336  70.2640390
   0.9153578  84.9385834  70.8191729   0.4270228  86.1272335  70.0194073
  42.4692753  30.8269076  69.3829679  41.6183565  30.3885417  69.3853760
  42.5802690  31.1294894  68.4816551  77.4690121  48.6258275  13.0665466
  78.3246299  48.2737119  12.8212616  76.8867492  47.8661115  13.0607388
  92.1120084  68.2183225   5.6874058  92.8112341  67.9520184   5.0904152
  92.2803486  67.7235276   6.4893219  22.0187092  76.1168432  83.8171768
  21.9879889  75.3672075  84.4115925  22.9516959  76.3075161  83.7201691
  18.6262465  72.9112720  95.8803082  17.6766789  72.9915190  95.9703827
  18.9421678  73.8146210  95.8607197  37.0405746  96.1077499  88.9644623
  37.5191641  96.8404770  89.3521500  37.7132821  95.5886650  88.5237312
 111.2694062  39.4157750  17.8986618 110.9299220  38.8659818  17.1924755
 111.4430059  40.2601201  17.4825069  48.1962061  98.1911755  91.9811249
  48.8091087  97.4762154  92.1526432  47.3314714  97.7854824  92.0434380
  33.9948940  84.1832924  65.3948927  33.4089804  84.3516731  66.1328506
  33.9820576  84.9955845  64.8886824  23.6062496  55.9763867  22.4820683
  23.2711046  56.3244016  21.6557476  23.7742155  56.7515904  23.0178711
  88.6472476  20.7398993  22.3133347  87.6965118  20.6289059  22.3172543
  88.9531005  20.1609284  21.6151306  24.8188972  65.6464148  38.3360243
  24.2283750  65.0080585  37.9360032  24.7399282  65.4890203  39.2768884
  27.0849371  77.9475927  69.5342016  26.6112185  77.2341490  69.1066265
  27.6152492  77.5155354  70.2037716  52.7879143 100.7835674  82.6745796
  52.8095627 101.6413498  83.0988121  51.8841696 100.6877041  82.3741055
  10.3208893  42.2247369  23.9685223   9.4852417  41.7587525  23.9965412
  10.6969279  41.9913346  23.1197807  25.4897809  81.5966797  88.8340950
  26.3432312  81.2410355  89.0818214  25.2085066  82.0990086  89.5987988
  28.4201241  99.1380310  66.3374090  28.1896424  98.3484554  65.8478355
  27.5875926  99.5932674  66.4634323  64.5598125  94.0005875  79.8372841
  64.7218895  93.0676746  79.9774551  64.6285057  94.3892860  80.7093048
  23.0763912  58.5212183  72.6446915  22.6350141  57.6894379  72.8166199
  22.5710464  59.1670561  73.1384039   2.0483638  98.0120468  62.9930878
   2.4164087  97.4144650  62.3421907   2.8078082  98.4671211  63.3569288
  86.4089961  29.1422898   7.4720737  86.0905767  28.4396512   8.0387756
  85.7989616  29.1501481   6.7344925  20.6089211  97.7466679  59.0735292
  20.5786419  97.5537300  60.0105906  21.0542274  98.5921097  59.0173292
  31.1119223  97.8661919  74.9848175  31.7774963  97.2170448  75.2125311
  30.9794474  98.3660889  75.7902861   3.5998123  12.0586211  38.0092785
   2.9586762  11.3643987  38.1616661   3.9741486  11.8550116  37.1521542
  42.7087352 103.7267639  33.2409069  42.5307003 104.3432142  33.9512035
  41.8453700 103.4063484  32.9798195  92.8379096  54.3353993  18.6507961
  93.6436928  54.0985734  19.1099903  92.3799599  53.5041100  18.5263893
  66.7050339  57.4237878  21.6406414  66.6751839  57.0541245  22.5230763
  65.8833219  57.9073006  21.5555832  69.9034357  82.1039677  75.0001049
  69.2080736  82.5929070  75.4401493  70.6723642  82.6703453  75.0648689
  73.0681211   3.0529838  85.8807755  73.4819633   3.8841491  86.1134434
  73.2696373   2.9367309  84.9522781  55.6161642  94.8924732  68.4597158
  56.2463522  95.1955605  69.1133451  56.0868883  94.2204380  67.9667425
  95.6063474  33.1776292  26.6875431  94.8072160  32.8760392  26.2555000
  96.1327041  33.5537488  25.9820530  45.3427458 104.4182396  73.3566284
  45.0490475 104.5704651  72.4584055  45.8674574 105.1895618  73.5710192
  45.8352137 101.7064476  51.4748669  45.5538368 101.9949532  52.3431015
  45.4956675 100.8148861  51.3970280  72.8081417  74.6120834  53.2223082
  71.9676971  74.8045254  53.6380577  73.4218502  74.5251608  53.9517164
  45.9879398  77.0480919  89.5068932  46.4571381  76.2150431  89.5528793
  45.1540470  76.8778086  89.9449158  13.5362786  37.6558549  22.3470184
  13.4832161  37.4112469  23.2709190  14.1329258  37.0133550  21.9630405
   5.5696362  66.7870099   9.3606350   5.0402992  66.0155827   9.1583130
   4.9915570  67.5282437   9.1799995   5.9368050  80.4943275  57.6330471
   5.8014834  80.4849052  56.6855049   5.3586942  79.8071384  57.9643965
 107.8091896  17.5984246   1.7937061 106.8841375  17.5446660   2.0337460
 107.8380049  17.3033530   0.8835861  57.8680134  90.6479836  78.4421206
  58.2909346  90.8142757  79.2845678  57.3700714  91.4455032  78.2625341
  25.8739853  64.7992849  65.7539368  26.7347121  64.6316385  65.3701639
  25.9372234  64.4534445  66.6442299  95.6928617  28.1458907  76.5513277
  95.4822761  27.6683955  77.3537540  96.1974079  27.5234561  76.0276508
  45.2462578  66.3393688  78.0565739  46.1302376  66.0555220  77.8236771
  45.3417206  67.2669220  78.2728148 109.9237693  39.0384919   8.3987019
 109.8492731  39.8282010   8.9344570 110.2441276  38.3686024   9.0027401
  47.0346815 109.0023519   7.5502941  47.6320583 109.3888904   8.1905720
  47.5971002 108.4665920   6.9909355  37.4268460  69.2752457  95.8997440
  38.1528759  69.3161392  95.2772903  37.5451517  70.0447464  96.4566135
  96.7190290  36.8675954   7.7045414  97.0674110  37.7403600   7.5225040
  95.8224607  36.8930680   7.3702595  21.8839693  87.2361183  69.1393423
  21.2546349  87.6019859  69.7608805  21.5939879  87.5596428  68.2864189
   5.1187008  29.4806725   2.2954151   4.6453922  29.8858315   3.0220959
   4.4378298  29.0574796   1.7723915  70.3159458 109.2253114   3.4032700
  70.7422692 108.9232399   2.6012585  71.0389525 109.4577266   3.9859173
  81.7074203  85.2344322  82.8975677  81.3310242  85.8562756  83.5203648
  82.3546982  84.7470951  83.4072399  23.5634708  47.0582724  64.8674917
  23.8798785  46.9189978  65.7600832  23.0510736  46.2742710  64.6699524
 108.1489409  48.4260709  14.3484757 108.5609497  48.8712079  15.0889656
 108.1878913  49.0625340  13.6345837  12.8632801   1.0496814   1.4751598
  13.2370394   1.1347920   0.5980656  13.4910649   1.4914853   2.0469353
 105.6433524  33.6711366  21.1215183 106.5201057  34.0530068  21.1629173
 105.7765044  32.8073842  20.7310841 115.2488129  74.3542671  92.8114033
 115.9681813  73.7466860  92.9834080 114.6637352  73.8731956  92.2261810
  45.3935766  69.4458246  96.7449760  45.4888582  69.4160604  95.7929993
  44.9552155  70.2794123  96.9158649  15.1718872  60.3904874  19.4805214
  15.8006876  59.9443013  18.9132759  14.3370693  60.3155000  19.0182659
  94.5167757  91.7190320   2.4320862  94.4554223  92.5413949   1.9460938
  93.7199248  91.2428338   2.1986362  25.7597494  73.8112020  75.7876301
  25.5457568  73.4266376  76.6376591  24.9185300  73.8762760  75.3355837
  45.6227779  93.2163715  53.6546993  45.6705570  92.5825882  52.9389763
  45.0632334  92.7974415  54.3086386  35.4888105  69.5789194  77.5807142
  34.9065351  68.8592291  77.3373461  36.3145256  69.1521120  77.8093243
  32.5950980  70.5278921  75.5738640  33.1553388  69.7572899  75.6662369
  33.1807113  71.2123442  75.2501202  36.6523855  36.7250306   9.1298172
  36.8701714  36.9026524  10.0448391  36.5293902  35.7764966   9.0926621
 108.2606495  41.9284112  16.7168400 109.0904559  41.7250974  16.2851975
 107.6348914  41.3129765  16.3348743  18.2994699  95.7103729  88.1851482
  17.5113177  95.5764484  88.7115574  18.9917111  95.2635860  88.6723900
  17.7714127   4.6326787  15.3779003  18.4371155   5.2939040  15.1885674
  17.3895901   4.9089248  16.2110493  -0.1208884  29.2952210   0.0156281
   0.4960173  29.9212415   0.3947804   0.4292839  28.5792596  -0.3020599
 112.9663599  41.8724782  13.2105801 112.3180450  42.5438172  13.4232304
 113.2965435  42.1231229  12.3478004  58.0681419 102.7552128  67.4560642
  57.3778868 103.4182739  67.4446154  57.5989246 101.9209194  67.4520206
  54.1881609 107.4316311  96.2172794  54.4323778 107.4482250  95.2919102
  54.3531227 108.3230400  96.5245533  43.8030338  76.5410089  86.6074085
  43.0951834  77.1365356  86.8534374  44.1139317  76.1821890  87.4385643
  67.2157717  81.5267563  76.1069441  67.8996801  80.9250927  76.4010620
  66.6150188  81.5879822  76.8496275  47.4085665  99.2168045  61.2987804
  47.4723577  99.7513676  62.0902395  47.6365948  98.3331490  61.5875673
  16.0815728  98.0976009  67.7416563  16.9003022  98.1511784  68.2346535
  15.4548109  98.5992146  68.2629919  88.3003599  99.1696741  14.9698040
  88.8258535  99.9340488  15.2060577  88.9390690  98.5242178  14.6670410
  11.3982642  90.3101826  86.7520523  10.9372890  90.3570271  87.5896358
  10.9423780  90.9387112  86.1922741  27.7538347  41.7610741  85.8559036
  27.3545456  41.3995028  86.6471481  27.8123474  41.0175514  85.2559185
  68.3041150  16.3663535  55.9501505  67.4916012  16.7712550  56.2536430
  68.3390767  16.5707355  55.0156784  97.7056075   9.4355304  25.9730503
  98.5490704   9.6604544  25.5803558  97.7714325   8.4994990  26.1621067
  17.6289880  97.6909924  78.5907459  18.2183099  98.1999493  79.1474342
  18.1521547  96.9393349  78.3122778  98.3366395   6.6829593  27.8476116
  99.2415942   6.9947202  27.8574249  98.1642891   6.4767653  26.9289181
  68.2402326  41.3836533   3.6243126  68.8512624  42.1085507   3.4923908
  67.4647284  41.6292722   3.1198284  54.8132658  69.3932581  77.9365730
  55.6165981  69.1904402  77.4572420  54.5989370  68.5828066  78.3985853
  38.7261653  80.7198620  92.3198128  38.2438588  81.1271667  91.6002941
  39.5997286  80.5602646  91.9625378  25.7824612  87.2178555  95.6090927
  26.2747812  87.5637150  94.8646259  25.2591157  87.9586124  95.9150791
  92.2934521  38.1851727  22.0556519  93.0903674  37.9674107  22.5391171
  91.6151072  37.6397950  22.4539444  34.4102669 102.8382111  67.0113993
  34.8363709 103.1996250  67.7886057  33.4747314 102.8814507  67.2092199
  83.8135147 106.7066669  69.0065098  84.5828438 106.7561913  68.4391308
  83.0701447 106.7178726  68.4035921  32.1261597  96.7089367  92.1070576
  31.7859221  96.6186142  92.9971695  31.8181181  97.5681973  91.8189430
  62.7067041  86.1730099  69.1023970  62.3049450  87.0014381  68.8406372
  63.0093288  85.7837868  68.2819319  31.6219950  48.8421488  91.9559383
  32.5489116  48.9638567  92.1614742  31.2057495  49.6577835  92.2347069
  29.4258881  76.2489223  85.2377605  29.1314697  75.8847618  86.0725880
  29.5998359  77.1710253  85.4267120  88.7776947 106.3901520  56.4484072
  89.0070343 107.3118877  56.5668583  89.3153954 106.1024570  55.7106113
  43.8366699  64.6535635  76.4150810  44.4994736  65.2924967  76.6771650
  43.3362675  64.4862509  77.2137260  26.0198998  57.0312405  86.1215115
  25.2339673  57.3898172  86.5337849  26.6690898  57.7308464  86.1945057
 108.3831037   9.8503262   2.3742458 109.1164840   9.8014600   1.7610619
 108.7852038   9.7498042   3.2370541  90.2028222  82.1324635  92.8770828
  90.7192989  81.5314674  92.3401546  89.3019457  81.8225098  92.7844429
  49.4077444  91.4193249  59.7474670  49.3831635  90.4963589  59.4949579
  48.4905481  91.6531754  59.8899364 106.2024296  42.0940549  14.0021774
 106.5377010  42.8998238  13.6090347 105.9450520  42.3489243  14.8881981
  69.6744014   0.8093745   3.1673595  70.1145310   1.6593510   3.1594440
  68.9437039   0.9123427   2.5576756  20.8798909  32.5583649  65.0519180
  21.6570735  32.4612665  64.5016527  20.7002640  33.4985542  65.0489473
 114.3110843  92.4518776  71.8853951 113.9693932  92.4091625  70.9922791
 114.4890274  93.3812809  72.0295620  93.4822870  20.6967646   2.4588940
  94.1275943  20.0659377   2.7780602  92.7017737  20.1719004   2.2812721
  12.3213673  41.0924911  93.3346653  11.7683089  40.6363964  93.9689636
  11.7206287  41.3521910  92.6361656  12.7942913  21.2491710  21.1951420
  12.8981274  20.2980191  21.1674473  13.3557003  21.5720136  20.4902813
 115.3085841  29.8937661   1.0824654 114.6710313  29.2605836   1.4123795
 115.8410657  29.3963010   0.4618046  29.5623398  88.0408573  61.2466860
  29.2927742  88.8292599  60.7755327  29.4503617  88.2640076  62.1707535
  18.1668568  89.0858269  82.6257896  17.9299676  89.0615463  81.6986847
  18.8227773  89.7802544  82.6872921   4.7279566  69.5380074   8.0061028
   3.9578789  69.2266805   8.4818050   5.2338761  70.0212151   8.6593983
  75.5391461   1.8525272  80.9243870  75.9410698   0.9881930  81.0116291
  76.1801106   2.3662238  80.4329395  38.9839959  99.6024036  59.6961117
  39.6256900  99.4008636  59.0150499  38.5200238 100.3725338  59.3676901
  24.8527312  92.3571205  80.7963753  23.9835215  92.7044010  80.5961323
  24.7506809  91.9327354  81.6482639  93.2313610  36.2668378  13.3073113
  93.3509327  35.5505616  12.6837132  92.7860332  36.9495065  12.8054401
  38.5620856  77.4688101  66.0561895  39.1382027  76.7050791  66.0240316
  38.3695173  77.5845528  66.9866467  68.0030155 107.7490044  61.4233303
  68.3533621 107.0986748  62.0320654  68.6726522 108.4322262  61.3912153
  44.8289251  97.5211525  70.1969910  45.5413532  96.9359493  69.9396610
  44.2641735  97.5646782  69.4253731 108.0648166   1.1255126  89.8322868
 108.7214739   1.7839198  89.6052933 107.5148422   1.0567527  89.0518856
  11.7552531  72.5557089  65.9220219  12.4871552  72.0845795  65.5237913
  11.0020602  71.9785500  65.7962561  24.1645306  23.5256869   4.5957062
  24.5983093  23.7328870   3.7679836  23.8652104  24.3721062   4.9276993
  35.6850529 109.1309071  48.6950302  35.3245950 108.2491112  48.6016178
  36.3660240 109.1835785  48.0244064  46.6262722  61.2479162  82.5733185
  46.6074228  60.5347490  83.2114983  45.9241247  61.0371780  81.9578362
   8.6467934  94.4484806  85.0133324   7.8332412  94.7423267  85.4232311
   8.4696895  94.4889069  84.0735340  12.0183766  62.6396370  78.7116957
  12.9718745  62.5575972  78.6932039  11.7207634  61.8669271  79.1918802
  46.6750956  56.8985605  93.7663269  45.8557367  56.4564848  93.5439491
  46.6597128  56.9653988  94.7210693  93.8051749   3.0422360  19.8388168
  92.9799939   3.0743701  20.3228352  93.6549736   2.3924167  19.1522286
  18.0029798  81.9377136  92.2783756  18.6271656  82.6633549  92.2872543
  18.1683755  81.4694881  93.0966854  14.7947949  41.7563206  31.7469666
  13.8568180  41.9450051  31.7181561  15.0698345  41.7685849  30.8302090
  17.7595305 105.7220936  89.8659992  18.2509995 106.2009907  89.1986465
  18.0864751 104.8244476  89.8061562  60.2923495  23.9989524  53.2962656
  60.2060873  24.9352412  53.4755707  60.1694161  23.9239841  52.3499584
  13.7637246  97.2528267  77.2275639  13.0892873  97.0898533  77.8869629
  13.7904167  96.4490318  76.7085075 106.5103895  14.1569667  89.7165298
 106.6225559  13.2626586  90.0387859 107.3435909  14.3655925  89.2940617
 103.4928096  50.9439809  15.9850094 103.7897504  51.5983636  16.6173431
 102.7528609  50.5145604  16.4143154  78.2505560  85.4087543  75.1786375
  78.0775547  85.1917839  74.2625427  78.1968832  84.5704651  75.6375742
  64.0967280   3.0597549  30.2001238  64.5042307   3.4759669  29.4405627
  64.6389539   3.3302646  30.9410977 109.6287859  90.2209527  11.1691925
 110.2469409  90.8795983  10.8524773 109.6765674  89.5169980  10.5223629
  29.5662659  28.7355668  39.6550533  28.6615961  28.5055310  39.4431755
  30.0913065  28.2608182  39.0107128  30.3095150  88.9090633  80.3008938
  29.8020577  89.7201920  80.2727127  30.3709888  88.6972427  81.2323380
  22.4547308  33.3257348   8.2553169  23.3697670  33.5969979   8.1821129
  22.1247929  33.7995393   9.0187809  29.1312283  48.6338383   3.0310032
  29.0953892  47.8229482   3.5383484  30.0107830  48.6414582   2.6534435
  85.4249859  78.0828238  75.1081419  85.2030277  78.9818525  74.8658323
  84.7258663  77.8161001  75.7050753  13.7208193  42.0899064   6.8949768
  13.9678114  41.4959008   6.1861870  13.5277670  41.5134007   7.6343033
  80.6671747  53.5602433  13.1089565  79.7996391  53.2061440  13.3044693
  80.4964493  54.4394166  12.7710983  61.9616747  99.0951633  54.1634178
  61.0049725  99.0767097  54.1882181  62.2242165  99.1430187  55.0826645
  87.1191120  76.2419415  68.9408064  87.7235508  75.6155920  69.3390131
  86.2987232  76.1200809  69.4186687  55.8022928 105.1066113  61.9892550
  55.2942467 105.4145432  61.2387228  55.9607029 104.1802788  61.8074322
  37.6647758  68.5170650  90.7386303  37.1952271  67.7739668  91.1175251
  37.5417161  69.2255020  91.3704586  45.2588415  86.4073658  53.1078005
  45.2406645  85.4597187  53.2415056  44.6857977  86.5541077  52.3552656
  74.6967179   1.9092517  89.1643715  74.8896367   2.7802520  88.8174343
  75.5527932   1.4888435  89.2457581  35.8298168  29.2815929  83.3537483
  36.7841930  29.3101459  83.4214401  35.6450811  29.5562320  82.4555969
  93.5900814  39.7898154  69.9740934  93.4366304  40.6591754  70.3441000
  93.5437471  39.9209933  69.0270615  95.0461036  13.3194881  86.9556808
  94.2654783  13.4890704  86.4283371  94.7560245  12.6924758  87.6182079
  25.8427733  27.7169186   2.8110382  26.2145537  27.8057343   1.9334766
  24.9032086  27.6090962   2.6633236  70.8630616   0.2054076  67.6721573
  70.8568126   0.8666759  66.9801235  69.9439651   0.1123481  67.9228258
  12.2430062 108.1333447  84.6183205  11.3686335 108.4937000  84.4704914
  12.5165641 107.8089333  83.7603188 115.8274252   1.0802131  91.1781025
 115.4953939   0.2066474  90.9710598 115.0688678   1.5482764  91.5270138
  75.5577278  77.4642801  84.3074799  75.0571966  77.9149055  83.6273098
  76.1653948  78.1267548  84.6362686  27.1732109  70.8027894  23.0268070
  27.8607434  70.1787335  23.2593510  27.3813551  71.0653645  22.1301624
  45.8770960  37.7166135  14.3523762  45.1983565  37.9576451  13.7219402
  46.3023680  38.5448033  14.5748112  25.0199342  83.4593487  71.5806389
  25.6569529  83.1358814  70.9436083  25.4090953  83.2583523  72.4317455
  47.2134608  36.8707520  11.0009739  47.5420397  36.3550050  10.2645943
  46.4942282  36.3489396  11.3568470  20.6671643  59.9356079  82.6588726
  20.0907755  60.6946850  82.5704765  20.8391309  59.6593380  81.7586803
  14.8493212  35.5071122  15.4113075  14.6245783  35.9548623  16.2269280
  14.0048044  35.3020627  15.0100777  89.0129406   7.8846603  90.0142002
  89.6128589   8.1554752  89.3192196  88.2765133   8.4922271  89.9451256
  56.8337250  96.3122272  61.9610310  56.0408306  96.7227268  61.6160011
  56.5129662  95.6281376  62.5487137  13.7695854  37.7770097   1.6749260
  13.0104082  38.3232648   1.8786213  13.7199944  37.6412255   0.7287094
  29.9095964 103.7000847  73.8563347  28.9983344 103.6289978  73.5721159
  29.8942685 104.3634892  74.5461893  88.1813146  51.5068490  16.0386631
  88.2330532  51.3771397  15.0917027  88.7786342  50.8535630  16.4028904
  77.2496189  41.4988858   7.8693363  77.5798156  40.9398228   8.5726521
  76.2987495  41.4844186   7.9782841  24.9215174  74.2641735  89.3646431
  24.7084904  73.3336639  89.2939472  25.2073169  74.5119286  88.4853458
  35.7378214  54.9643952  30.7644817  35.9558838  54.5821339  31.6145107
  35.5242937  54.2127950  30.2115509  87.8604884  35.8563573  24.4762966
  87.8568054  34.9646336  24.8242352  87.2115744  36.3219888  25.0038597
  66.5542776  14.1158347  92.4404526  66.1595017  13.6221271  91.7216778
  67.0215399  14.8322253  92.0107079  97.0247204  21.5973525  86.0409451
  97.8524524  21.9188933  86.3982964  96.3723690  22.2304015  86.3408184
  16.7265558  86.3418865  95.1955414  16.5957952  86.3526344  94.2473793
  17.6067185  85.9841061  95.3118992  25.0438166  92.1570396  67.4973965
  24.9220538  92.8400517  68.1568766  25.9273243  91.8250084  67.6567650
 110.5165733  65.7694394   1.2474892 109.6648849  65.7569653   1.6841862
 110.3684987  65.3105599   0.4205963  87.6252128  26.7627675   3.2158157
  88.0129964  25.8894784   3.2724735  86.8102349  26.6956860   3.7133476
   7.9157561  69.8175961   4.1706154   8.3386343  69.5692975   4.9926540
   6.9822901  69.8461015   4.3805286 110.5535824   1.7352634  80.4350948
 110.3559810   0.9510665  79.9230146 111.4659292   1.9347720  80.2252293
  34.1797495 108.1683445  89.1942596  33.4184313 108.4829617  89.6817493
  34.4171333 107.3470306  89.6247673  59.6689749 105.1496887  77.7249098
  58.7763548 104.8792171  77.9400873  60.2267599 104.5615101  78.2339859
  15.6675213  66.7145402   2.0307800  15.5903595  65.8044011   1.7445633
  15.9997671  66.6565472   2.9265949  49.9649429 100.7126141  89.2764950
  50.6294107 100.3831863  89.8816299  49.1327381 100.5354309  89.7149849
  62.6711273 107.5653553  73.8370275  63.1176090 107.5493717  74.6835661
  63.3583307 107.7848721  73.2079077  41.3996220 101.9558048  65.1410627
  40.5010939 101.7858982  64.8581982  41.9407892 101.4437675  64.5400715
  35.4729009  41.3714600  87.8433514  35.7526326  40.7265902  87.1936417
  34.5210409  41.2773085  87.8798485  58.6455965  82.5718021  90.5653572
  57.8427792  82.0935440  90.3580475  58.9735270  82.8686523  89.7164917
  45.4788828 109.2308998  94.8745728  45.4387808 110.1208210  95.2248001
  46.1184359 108.7839031  95.4290009  78.8538742  76.7304611  59.0840387
  79.0011501  75.8367538  58.7744665  78.0322695  76.9949389  58.6702108
  64.9059820  84.5706081  69.9753332  64.0278482  84.9446774  70.0473261
  64.8417759  83.9460659  69.2528009  27.3298597 103.8000298  73.0310535
  26.9577980 104.6657276  73.1994677  27.3229337 103.7177467  72.0774221
   8.1720083  51.5089661   6.2082550   8.5708731  51.2746007   7.0462296
   8.5631531  52.3535020   5.9846756  89.2255480  15.9535079  61.0237408
  89.5959121  15.2858596  60.4464197  89.9695141  16.2626128  61.5406561
 100.6100834  17.7554662  13.8110706 100.3503717  17.6368625  14.7247002
  99.9952019  18.4047515  13.4696362  57.7189786   2.4636512  55.0999355
  57.4454838   3.3799892  55.0580835  57.3998183   2.1569591  55.9486485
  92.5722981  54.8948533   2.9795429  92.1954168  55.7380444   2.7280781
  92.9257990  54.5379693   2.1647427   5.7755600  44.3835311  56.3287830
   5.4636704  43.9065986  55.5596972   5.0067460  44.8587089  56.6439915
  74.5238495  80.2067280  83.4816742  73.9939880  81.0027027  83.5252094
  75.2985048  80.4056072  84.0075874  64.9227244   2.6605086  82.5679779
  65.6887681   2.1144443  82.3913002  64.4936091   2.7535682  81.7174339
  15.4657638  98.9771271  73.2374668  15.9278977  99.4967365  73.8952446
  14.9238658  99.6116161  72.7684307 116.5534145   3.5603576  75.7543325
 117.0220405   3.1002669  75.0579548 116.7167932   4.4874435  75.5809832
  68.0938101  69.6749687  94.5614433  67.7031136  70.5115986  94.3091869
  68.6538839  69.4394684  93.8217926  61.5939903  90.9598827  68.6308193
  60.7663155  91.0505867  68.1586409  61.3650036  90.4771233  69.4250154
  80.6117899  13.2310825  66.5640783  79.7985822  12.8989654  66.9443607
  80.4868728  14.1791682  66.5220881  52.1617079  69.8300028  86.1965084
  52.5383234  69.5907545  87.0433617  51.3323402  70.2551508  86.4147377
  44.5758963  99.0562248  48.3423471  43.7726641  99.5716953  48.4154129
  45.0455952  99.4477558  47.6059246  74.9459124  83.7365913  71.6090012
  74.5651865  83.0279732  71.0902119  74.6662617  84.5363998  71.1636686
  24.6439951  53.4505326   0.4358742  23.8588255  53.1864220   0.9154388
  25.2497690  52.7176244   0.5459950  44.0273142 110.4446602  86.9164371
  44.0964460 111.3758659  86.7059708  44.3513346 109.9976826  86.1344814
  31.1366051  29.7491986  12.7025387  31.4714449  29.5608002  11.8258259
  31.3255614  28.9575345  13.2063267   8.4811245  14.3938403  67.6527596
   8.0541073  13.6304050  68.0414200   8.8648354  14.0655475  66.8396044
  26.1380690  35.2931077  29.2458603  26.1692112  36.1359174  29.6985504
  26.3012856  34.6463258  29.9323532  12.2290772  12.0371873   2.1248028
  12.0163792  12.3350293   3.0092690  11.4719170  12.2922046   1.5976307
  55.0988245  98.7528706  90.3936195  54.3713760  98.8968754  89.7883797
  55.2085495  99.5923424  90.8402538  99.0753663  64.8929936  10.5557797
  98.7102593  65.6503732  10.0982735  99.9799503  65.1413876  10.7461998
  85.7929117  15.5072837  71.7064238  85.1430399  16.1149173  72.0595217
  85.2766544  14.8438888  71.2485838 102.7656377  47.7798230  21.5975353
 102.4689949  48.4368569  20.9678146 102.0290626  47.1735818  21.6760418
  12.2136133  52.6837117  17.9468319  11.9371718  53.5144193  18.3337853
  13.0822151  52.8642041  17.5874111  49.5844013   4.6149020  67.7924442
  50.4042131   5.0138145  68.0840063  49.1390020   5.3098064  67.3077202
 113.1013478  30.3774220  29.5476219 112.2371138  30.4856545  29.1506073
 113.1497754  29.4467122  29.7659466  48.4471416  70.6932116  73.3871031
  48.7017918  69.8134375  73.6652708  47.7282238  70.9308624  73.9726830
  86.7050487  22.0164542  80.5040932  87.4173624  22.6392894  80.6487370
  87.0679790  21.1715560  80.7699203  34.0798247   8.7264686  81.0316372
  34.1894234   9.6333175  81.3177395  33.4128017   8.3692985  81.6179371
  91.9259817   2.2173362  62.1206093  92.3579008   2.5201087  61.3218594
  91.8546659   1.2692599  62.0096874  59.7108895   7.1027999  79.0458441
  60.1961834   6.3801055  79.4438982  59.3228549   6.7247920  78.2566833
  41.6616201 100.7921696  91.0684109  40.7910490 101.1268616  91.2835979
  41.5435076 100.3354645  90.2355194  98.6921013  41.2913853   4.2913982
  98.0589200  41.9644791   4.5409271  98.7980522  41.4007813   3.3463928
  26.1069417  65.0413990  81.5762901  25.2417517  64.7400093  81.2990856
  26.5752459  64.2406368  81.8123150   3.3850353  62.7426678  11.8090984
   3.9094036  62.6521928  11.0134384   3.3361548  61.8557889  12.1658680
  12.5272864  29.9396855   8.2521698  12.6229351  29.5878655   7.3671219
  13.4188193  29.9585015   8.6000797  40.6530285 110.0666237  72.0096779
  40.7493639 109.1561985  71.7302561  41.5324640 110.4360104  71.9297838
  23.0054205  48.6744935  11.1112091  22.9217547  47.7292497  10.9857151
  23.9045161  48.7969930  11.4159176  68.4193611  94.2696476  59.8743486
  68.8403225  93.8938332  59.1011810  68.6881924  93.6992455  60.5944920
  57.3964304   7.8353744  75.1811266  57.9449994   8.6179977  75.1280928
  57.6806933   7.2933154  74.4451904  80.1479513  39.7459560  87.9004383
  79.9028427  39.9509006  88.8027382  80.4815084  38.8496451  87.9405499
  65.2786684  90.0407791  71.7225695  64.7470522  90.7675171  71.3977909
  66.1435795  90.4236507  71.8694496  34.5363402  74.5446205  92.3765755
  35.4058075  74.6285963  92.7680016  34.1926003  75.4378653  92.3627853
  70.7776195   9.6637588  81.1368084  70.9214384   9.9781757  80.2442265
  70.7686812   8.7099986  81.0562515  91.0060967  45.4244382  31.3204071
  91.2570263  44.6357018  30.8396122  90.6547571  46.0114438  30.6509087
  38.6864686  91.1729527  91.7719555  38.5359049  90.6032658  92.5262928
  39.1494370  91.9295216  92.1318150  20.4800010  88.7962437  63.9888382
  19.7072351  88.2319641  63.9632940  21.1589956  88.2930088  63.5394478
  91.6121292 109.4761086  56.0590792  90.8376980 109.9158192  56.4099932
  92.1303272 110.1795006  55.6679916 111.1818756  61.5397889   4.7762653
 110.6320322  60.8721024   5.1862595 111.8713892  61.0440976   4.3345615
  15.1823776  70.5555493   3.5300991  14.4299668  70.9168774   3.0615398
  14.8248976  69.8182160   4.0248463  68.8574123  91.2658119  87.8590775
  69.2545223  91.4326763  87.0042706  69.1594744  91.9888878  88.4087563
  19.1061245  16.9704681  73.6907578  18.3247983  16.4804988  73.4344625
  18.9396607  17.2297912  74.5970011  60.8663112  27.3046832  82.8904915
  61.4825184  26.9314151  83.5207176  61.3908202  27.9202895  82.3784924
  36.9199157  76.8815756  63.9186144  37.2608256  77.3874712  63.1809998
  37.1419477  77.4032450  64.6898413  66.0527086  94.1632271  92.8203964
  66.0418510  93.7870121  91.9402981  66.2040567  95.0978279  92.6795006
  89.6215326  10.5711608  78.6431217  88.6659366  10.6208091  78.6676359
  89.9140245  11.3471274  79.1212082  19.2443192  96.9905567  83.3618832
  18.9158988  96.7301750  82.5013161  20.1913261  96.8631935  83.3054161
 103.8934053  66.2834794  11.8246529 103.6217035  66.2361485  12.7412579
 104.6862734  65.7489068  11.7819569  44.2116261 107.6663589  72.4467373
  44.8498058 107.9542923  73.0994606  43.4943438 107.2951984  72.9605293
   9.7457426  27.8701455  18.2410595   9.4556206  27.4339921  19.0421936
  10.3378075  27.2420270  17.8273365 103.5708488  52.0204598  13.3076832
 103.2525862  51.7174107  14.1580364 102.7929963  52.0287568  12.7499077
  37.1861434 106.4452744  93.9136600  36.5654373 105.7706356  94.1890049
  38.0364060 106.1262989  94.2162132  63.3249647  11.4016681  76.2800884
  63.3315665  12.3276668  76.5223742  62.7973420  10.9803252  76.9585562
  73.1180620  97.2901630  72.4759722  72.2221947  97.4381542  72.7788830
  73.2116985  97.8640938  71.7156601  25.3530478  97.7863598  51.6122818
  25.4894185  98.7163448  51.4312696  24.6751189  97.7707386  52.2878551
 100.4133976  97.8985745   2.9564640 100.0479639  98.3247907   2.1812031
 100.6167496  97.0090443   2.6673004  94.3075360  13.1971175   9.6305344
  94.9812604  13.5210139  10.2283737  94.6775628  12.3933179   9.2655441
  73.4266097  15.7526736  65.8627701  74.3601734  15.9640555  65.8658934
  73.0271680  16.4240794  66.4158535 116.8960966  24.7036702   4.6854183
 116.0819949  24.2173774   4.5550892 117.2820462  24.7632272   3.8114998
  14.3085980  98.4760094  87.8116894  13.9231110  98.0507755  88.5777283
  13.7056386  98.2732868  87.0964527  35.6866527 102.6422405  64.5108509
  35.7096219 103.5963154  64.4370174  35.1930308 102.4759769  65.3139257
   6.3971489  34.3084103  13.8122341   5.5851811  34.6755273  14.1617462
   7.0169037  35.0376660  13.8300774  98.1538660  12.1267657  86.3910484
  98.1578476  11.8989234  87.3207283  97.9647524  13.0649715  86.3751888
 114.8015798  27.1841771   2.2141048 115.2534378  27.0048863   1.3895390
 113.9801444  26.6972596   2.1478817  62.5125980 100.6878567  76.4977407
  62.8974581 101.4180088  76.9825029  63.2542419 100.2793407  76.0513067
  60.5752611  95.3214550  77.2985029  60.0755119  95.4850483  78.0983257
  60.0293112  95.6780720  76.5977955  19.2749357 105.0459671  94.1904640
  19.8929632 105.5366707  94.7321987  19.0666091 104.2687607  94.7089100
 108.3703197  36.4787251  19.3442509 108.2575787  37.1347482  18.6563847
 109.3029464  36.5126664  19.5570538  33.0592442 101.9343281  73.8603687
  32.6016665 101.4886379  73.1474781  33.7869835 101.3521671  74.0788126
  13.1612318  67.7174241   1.4537308  12.4969691  67.0285374   1.4740631
  13.9934509  67.2464902   1.4107010  18.4468400  77.8074551  79.0712976
  17.4902248  77.8025961  79.0382099  18.7147331  78.1236982  78.2084751
 112.1296705  23.8794143   3.4935352 111.3568009  23.4566695   3.1191132
 112.3165191  24.6063096   2.8994343  91.9035530 107.4433994  68.4185410
  91.5004539 107.6036072  69.2718172  92.8446198 107.5019836  68.5834312
  35.3666067 108.0446720  51.9887972  35.8924079 108.7826347  51.6802740
  35.1083922 108.2894897  52.8774023  64.2055178  86.5877724  77.3738146
  64.1221905  85.6342697  77.3629618  63.3417225  86.9006443  77.6425219
  74.6328020 101.3330746  76.4138651  74.4287348 100.4579639  76.7436600
  73.8760614 101.8646240  76.6609287  64.7481114   0.3210502  78.8006687
  63.9308387  -0.1577420  78.6626530  65.1059443   0.4425864  77.9212284
 107.2449333  32.7177386  91.7074871 106.4449531  33.1262355  91.3767338
 106.9718773  31.8412833  91.9786072  43.7981406   4.2484717  73.0273438
  43.8504437   5.1611762  72.7436781  44.5543117   3.8270145  72.6189184
  13.6374396  56.2747819   2.5074837  12.9510229  56.5622193   3.1095192
  14.1316956  57.0704419   2.3103306  70.5841255  91.2724209  85.2812386
  70.9247398  91.0567665  84.4130802  70.9118462  92.1548939  85.4546833
   3.6464279  46.4098412   5.8818695   3.0062454  45.6982381   5.8776066
   3.4370344  46.9156892   6.6670391  37.7277994  90.4909992  89.0885735
  37.2729278  89.6488762  89.0766621  38.0995131  90.5500126  89.9686718
 111.5926820  25.0469165  74.2339468 111.6778976  24.8065047  73.3113575
 110.8144933  25.6033855  74.2655611   6.9619578  59.9733598   4.5886681
   7.6663368  60.5888707   4.3856117   7.2048395  59.1706902   4.1271946
  49.6122646  75.9491014  82.1867466  49.3218803  75.0437880  82.2977352
  50.0379848  75.9606981  81.3295078   3.3859938  74.2576558   8.1255791
   3.0137366  73.6385876   8.7536022   2.7058094  74.3620259   7.4602387
  69.3812561  96.4019012  93.5675812  69.4679308  97.3415756  93.7279797
  70.1807594  96.0219955  93.9318657  71.9396639  98.8894749  82.5936222
  71.9088793  98.1060886  83.1428051  71.7615795  99.6115589  83.1962109
  68.0864525 100.4360771  73.1401634  68.9763069 100.6706333  73.4035540
  67.6626348 101.2741756  72.9552269  93.9235033  75.7371861   0.4336140
  93.7958599  75.1662499  -0.3239944  93.0702878  75.7541901   0.8671639
  52.0584297 105.4574871  82.9853439  51.4598083 106.1827183  83.1640148
  52.7153158 105.8286762  82.3963261  30.3970671 101.2488747  40.1287270
  31.1475444 101.2213135  39.5352173  30.0981426 102.1575737  40.0948238
  61.1089522 111.3842632   6.5216229  61.4804894 110.5287649   6.3064167
  60.1782638 111.2121202   6.6644928  98.1098921  14.6267848  74.5429564
  97.3298485  14.2523532  74.1336155  98.2110960  15.4829364  74.1270399
  35.7047105  95.5304241  61.8715429  34.7480702  95.5362129  61.8393278
  35.9526944  96.4513016  61.7896461  61.6811752 109.9612999  67.1150637
  61.7547703 109.2565632  67.7586174  62.2655010 110.6456280  67.4413919
 113.3373768  21.3929229  76.7049503 113.5756332  20.7113414  76.0765314
 113.5664446  22.2128348  76.2673473  46.1066771  96.0357475  87.7754593
  45.4988813  96.4338112  88.3986378  45.6398582  95.2696800  87.4416065
  67.5468540  84.1165829  76.4756489  67.4309158  83.1692886  76.4019918
  67.5269032  84.2878342  77.4171925  34.9462193  29.7369725  25.8261177
  34.6033638  29.4924027  26.6856930  35.4491680  30.5353123  25.9871552
  94.8413545  10.1284080  84.9910831  94.5014698  10.9676986  85.3014088
  94.7987968   9.5550494  85.7563782   6.6777819  66.7821557  11.8251869
   6.4750832  66.7401654  10.8906338   6.0712069  67.4360234  12.1726868
  59.8762226 107.0808506  64.7781563  60.7323647 106.9635296  65.1898479
  59.9388170 106.5985966  63.9536858   7.8741472  29.3186051  16.9059822
   7.7594679  29.1807896  15.9657166   8.4006518  28.5732228  17.1948406
  63.8966084 107.7731514  76.1495686  64.7111225 107.7557468  75.6470823
  64.1780186 107.8792095  77.0583010  26.6422432  56.1888844  11.7293808
  26.8950957  55.3458745  12.1057102  25.8019274  56.0187871  11.3037464
   4.2359894  33.7268693   7.2492573   4.2677944  34.5096928   6.6993401
   3.3336514  33.6938340   7.5669453  44.2212105 105.5631447  70.7996702
  44.1436625 106.4758205  71.0775995  44.9537849 105.5618095  70.1835823
  54.6935606 107.6846600  82.3627949  54.9410725 108.6088181  82.3326874
  53.7648630 107.6928616  82.5944901  71.0173464  96.2765789  78.0717659
  71.2563181  96.4099121  78.9890146  71.8362999  96.0246086  77.6450872
 115.6665553  42.9708344  21.0823509 116.2220396  42.4083382  20.5426571
 114.8885740  42.4415833  21.2580273  43.2415962  59.7375584  71.6699266
  42.8317356  58.8857126  71.8202639  43.1321049  59.8938370  70.7319403
  83.1811428 104.7322845  94.1256237  83.0272198 105.5239296  93.6100101
  84.0290451 104.8802948  94.5444012 110.0646908   4.6787982  65.6866026
 110.0505287   4.7619491  66.6400766 109.4764358   5.3676658  65.3773355
  69.7395134  95.7911873  64.4046593  70.0928402  96.4067459  63.7624168
  70.4632854  95.6366634  65.0117111 117.7804912  80.1438481  11.8454525
 118.6160196  80.6094605  11.8090221 117.9788435  79.3320424  12.3121998
  56.7943525  95.1940250  65.5802155  57.0423460  95.8255005  66.2554693
  57.4506235  94.5005417  65.6481981  71.8560321   6.8356280  89.6877480
  71.6584379   7.3248153  88.8890648  71.0312373   6.4070468  89.9163532
  90.3039390   6.1180930  67.7389097  89.9610502   6.7364936  68.3840752
  91.0099251   5.6614928  68.1964302  82.7491647   3.3974223  59.5571375
  83.4380180   4.0619331  59.5687819  81.9347698   3.8975768  59.5038652
  55.0658894  91.4300919  61.9598866  55.1976919  92.3438454  62.2126913
  55.4345083  90.9254265  62.6849174  90.9344370   0.9555869  52.1234226
  91.5570337   1.6747241  52.0163965  90.9237129   0.5192905  51.2715054
 101.1242569  45.7677609   0.3980801 100.8123148  46.3067395  -0.3288486
 100.3483189  45.6239659   0.9398148  80.7131702   5.8211761  89.6930981
  81.0018903   5.6742911  90.5938244  80.6245691   4.9425845  89.3236923
  88.1252701   5.1034312  80.7602215  88.0017740   5.0616412  79.8119402
  88.9267713   5.6139426  80.8751106  74.9496794  94.6865273  86.9189548
  74.1965723  95.1901817  86.6100979  74.8698139  93.8410759  86.4772892
  23.3087176  20.7497746   4.5260498  24.0393608  20.2075249   4.2288086
  23.7208956  21.5514333   4.8480579  53.3932066 102.8045750  61.2733841
  52.8183842 102.7852726  62.0385265  53.0239964 102.1506119  60.6798840
  59.2591619  91.8026638  67.3117161  59.2341137  91.6971970  66.3606739
  58.3392620  91.8095875  67.5762367 117.1242202  93.7622983  56.2692806
 116.9223512  94.5426232  56.7855808 117.9867733  93.9398248  55.8941624
  71.9370413  98.6188507  60.1430082  71.3925838  98.0063915  59.6483374
  71.5410948  99.4752979  59.9818945 109.5428354  30.6587653  84.2025757
 109.3546850  31.5591292  84.4674969 110.4146082  30.7019191  83.8096619
  99.3822730  36.0833985   6.3355705  99.4521750  36.9757134   5.9963009
  98.9846099  36.1863477   7.2001526  35.9957051  78.2959080  69.4675636
  35.3229070  77.9852867  70.0734425  36.8190670  77.9855013  69.8443317
   7.8482281  26.7217116  62.8270102   7.6750981  26.9403796  63.7426758
   7.3048436  25.9520965  62.6576853  61.6687393 110.9622288  86.6849041
  61.3823271 111.6467094  86.0801792  60.8988857 110.7817078  87.2243118
 107.2554291  90.1194531   3.7744495 107.1084321  90.0439793   2.8316280
 106.4848007  90.5842358   4.1005585  22.9661625  72.4523312   2.1073029
  23.0756539  73.4031922   2.0969936  22.8162974  72.2185475   1.1912701
  84.4641096  21.0128837  79.1084671  84.7482473  21.5411620  78.3625317
  85.1333887  21.1619907  79.7763491 117.6937474  45.7525212   7.3660728
 117.0033158  46.2842995   6.9701550 117.2864259  44.8979623   7.5076553
 115.1852590  13.8072925  92.7919006 114.7673303  13.1037288  92.2953510
 115.9209234  14.0823226  92.2447395 110.8244599  97.1481282  16.8256065
 110.8893860  96.3309914  17.3198864 111.6029323  97.6439816  17.0792648
  97.7911503  44.3302970  88.8335991  97.3120481  44.9155383  89.4202709
  97.2721416  44.3198543  88.0293846  66.1968040 105.6723595  59.1533279
  66.0163546 106.1048222  59.9879789  65.6037140 104.9211693  59.1396475
  18.7877625  68.3552605   5.9099266  19.5690220  67.8760583   6.1860249
  18.6979073  69.0580327   6.5535614  81.2299997  14.6005206  82.5756836
  80.9791214  13.9430671  83.2245636  80.5478746  15.2693038  82.6362610
  20.1685398  72.3217160  11.6113159  19.8592203  71.7401749  10.9167835
  20.9580963  71.8964059  11.9458839  36.8329495  59.5680291  20.6100342
  37.1908301  59.7879083  19.7499153  36.5615671  58.6536080  20.5299065
  80.6477434  24.3212752  68.6801481  80.6678707  23.9414172  69.5585155
  81.4751989  24.7966914  68.6057806  67.5723106   4.4760757  89.3194485
  67.6759869   3.8823180  90.0630474  66.7126400   4.2598014  88.9583015
  14.0356081  79.9067170   0.8289978  13.3183544  79.4912392   0.3503010
  14.7463101  79.2662198   0.7989666   2.6115262  43.1393008  87.9355717
   3.0220353  42.5513320  87.3015308   2.6286732  42.6525836  88.7596130
  52.3008585  98.8737583  80.3863335  51.8562651  99.2097855  81.1645794
  52.4305630  97.9429054  80.5677605  27.2283840  93.9807701  83.1437397
  27.8658485  94.6455765  83.4043121  27.7576780  93.2129669  82.9279423
  51.6770363 107.5704288  72.5214148  52.5593662 107.3577023  72.2173262
  51.6196394 107.1699810  73.3889294   8.8127457  21.1812167  74.7646904
   9.7515522  21.0229068  74.8637581   8.5163247  21.4209705  75.6426907
  34.8630238  83.3089352  70.2691460  35.6654620  83.2851601  70.7904530
  35.1338363  83.0157089  69.3991375  74.1301441  97.8300667  58.3739567
  73.3855534  98.1170464  58.9025927  74.3849182  96.9898605  58.7552452
 111.2352026  48.6851556  10.4263279 110.7043422  49.4625241  10.2528069
 111.7172969  48.8978249  11.2254498  54.3353063  28.5154109  90.3479481
  54.7495634  29.3605762  90.1738453  54.6563703  28.2652431  91.2143040
 108.0302889  20.3073268  78.4240294 107.2954780  20.7269054  77.9765511
 107.9252512  20.5562930  79.3422985  66.8346357  91.1684322  76.0122776
  67.0638561  92.0955753  75.9482288  65.9057951  91.1349869  75.7834339
 109.0723831  17.6707893  90.1323605 108.9206058  17.9239040  89.2218018
 108.5459120  18.2859378  90.6429005  74.9567134   4.3270068  73.0721664
  74.3914015   3.7222152  73.5526657  75.4512293   4.7842364  73.7523317
 115.8770884  58.9920193  11.0240337 116.7989219  59.2305714  10.9263393
 115.4178966  59.5473725  10.3939888  44.2844296 103.1618404  89.7890377
  43.5649061 103.5004044  89.2562199  44.0128613 102.2739983  90.0218964
   3.1742226  14.6595912  44.8806000   2.4915158  15.2929740  45.1019192
   3.4848057  14.3368106  45.7265234  79.6098900  99.5592785  85.6666088
  79.9893856  98.8814163  85.1074028  79.2538452  99.0806293  86.4151764
  10.9309708  15.0217967  76.9087172  10.8314168  14.5157867  77.7151155
  11.4104687  14.4402557  76.3186979  53.9046526 100.4008293  93.0919456
  54.7903633 100.6695652  92.8479576  54.0337181  99.7404861  93.7727833
 101.2740261  28.3708625  94.5528412 101.5376169  27.8838496  93.7720966
 101.2741596  27.7185969  95.2534008  91.9348652  15.3168445  72.8250456
  92.4359113  14.5567947  73.1208515  91.7789966  15.1536994  71.8948221
  52.2345752  23.8768344  78.8402605  52.8519160  24.5448833  79.1383123
  51.3894707  24.3256335  78.8155603  43.2013941  90.8712196  74.4321537
  42.8418875  90.0348282  74.1364431  44.0571547  90.9277821  74.0070629
  23.8654631  67.0990903   0.5723259  24.2426890  67.0152814  -0.3034046
  22.9434126  66.8684155   0.4590199  33.9634293   1.1540229   8.0712769
  34.8904389   1.3896090   8.1084320  33.5017412   1.9916875   8.1086514
 103.1277973  23.6362033  85.9819984 102.2583467  23.8217597  85.6272316
 103.2772285  22.7127891  85.7790279  29.2380255  82.9638249   2.9031918
  28.4353607  83.4665448   3.0418560  29.9435728  83.5798985   3.1003925
   3.2769619  19.8929076  56.3344049   2.9463517  20.3684669  57.0964861
   3.5102116  20.5776076  55.7074976  51.5559864 105.1435852  86.6070938
  51.2357187 104.3324852  87.0017719  52.1820259 104.8557472  85.9426785
 104.7058899  22.1712642  73.2645845 105.4532606  22.6266532  73.6522532
 104.0047485  22.2702270  73.9086628  41.6812992 100.1383018  60.7305050
  40.7274532 100.1788044  60.6614876  41.9927597 100.2933216  59.8387671
  68.1333303  99.9652100  70.1405621  67.3850441 100.5514622  70.0282621
  68.2135487  99.8580933  71.0883617  28.5786533  98.9250851  70.8328247
  27.8352594  99.4732189  70.5815172  29.0614200  99.4531250  71.4687109
 117.3243505  15.0412898  60.2067089 117.5433046  14.5611148  61.0052872
 118.0499012  15.6545119  60.0894117 109.4551594  10.8983092  92.0706558
 109.0707523  11.7712169  92.1513081 110.1714975  10.8924632  92.7055264
 104.5186509 103.3675343  17.8469536 104.2807949 104.0866715  18.4321949
 103.7611855 102.7826363  17.8660748  78.3914029  60.6929452  27.9219982
  79.2557147  60.8089215  27.5273582  78.0608872  61.5833813  28.0407593
 109.4124586  23.6962943  62.3521757 108.7111217  23.8488250  61.7188549
 108.9815313  23.7528663  63.2050133  73.2448084   7.3751216  66.3678455
  72.8097684   6.7579131  65.7796097  73.4863002   8.1116443  65.8061981
  99.0568001  31.8864970  67.5481129  98.9132864  32.4463611  66.7850971
  99.5715744  32.4263911  68.1479073   2.0453518  79.7670132   2.4329540
   1.5884751  78.9453751   2.6129791   2.5381630  79.5961625   1.6303513
  63.5038710  97.3768520  76.7710209  63.3396816  96.4385700  76.6766167
  63.5972071  97.5099468  77.7143145   3.3654564  51.6538007   3.9776585
   3.8049143  51.6977841   3.1284401   4.0628498  51.4399487   4.5974419
  94.5837862   4.5575767  83.6283493  94.1650278   3.7191157  83.8229275
  93.9850218   5.2130847  83.9861393  15.8741301  75.7191998   2.6497814
  15.3919380  75.1063878   3.2049343  16.4670294  75.1660210   2.1411678
  87.0730972 111.2865353  61.8307209  87.1449471 111.0728931  62.7610016
  87.7058220 111.9923306  61.6975021 116.8903554  99.2893655   6.7288467
 116.3197316  98.5485417   6.5243790 117.1504916  99.6342141   5.8746502
  33.0062342  85.8388901  87.9966640  33.4896779  85.2780533  88.6032677
  33.6810446  86.3640499  87.5664616  81.1928779   6.5704112  62.9604483
  80.4276735   6.2029128  63.4027576  81.2573749   7.4643760  63.2964706
   9.8088109  34.0381389  90.6914711  10.5663525  34.2727523  91.2274837
   9.6667134  33.1087928  90.8713531 114.6071042  60.6826741   9.3340370
 115.2562679  60.4075772   8.6866257 113.7871660  60.7365853   8.8430855
  45.3379076  22.4684388  36.6882774  45.1775091  23.1193120  37.3715565
  46.1989039  22.1071679  36.8990013  92.1341593  13.8310580  81.0901070
  92.5109369  14.4564395  81.7091179  92.5274116  12.9915671  81.3285065
  19.9814862  59.1141469  16.9851563  19.9488705  58.9808327  17.9324696
  19.6891182  60.0169904  16.8601296 100.3839363  78.3459718  10.4022953
 101.2499131  78.7453038  10.4851124 100.1019991  78.1961209  11.3046715
  10.0824249 107.8162193  69.0406084  10.8686972 107.9109001  69.5782375
  10.1873994 108.4665489  68.3461332  48.1860865   6.6516166  94.7554874
  47.4648566   7.2531562  94.9404144  47.8869033   5.8077293  95.0939751
  34.4464415  42.7444512  30.0360558  33.8435667  42.4225480  29.3658707
  34.0252941  43.5329778  30.3782436  50.3928852 109.7562408  95.2340221
  51.2817717 109.6410751  94.8980904  49.9723625 110.3407764  94.6033764
 100.9120971  15.5348735  79.5948362 100.3188783  15.4955630  78.8446522
 101.6128999  14.9198012  79.3785000  74.0053368 107.4591446  89.1144371
  73.5389137 108.2825851  89.2580223  74.9284887 107.7097416  89.0793705
  34.3968695  50.4549939   1.0472176  34.6765393  50.5261094   1.9598839
  33.8561362  51.2312180   0.9012291  24.3566728 102.3419666  90.4419422
  24.4248676 103.2307339  90.0931168  24.2588854 102.4622345  91.3865089
  61.5036279   2.3058848  90.1822281  61.5958769   1.3578467  90.0876427
  60.5679661   2.4417644  90.3315735  84.0665228  25.5109267  87.7018929
  83.2080681  25.9171443  87.5824451  84.2949135  25.1743941  86.8353939
  12.1477288  42.1874768  26.4990971  11.6495054  42.7446896  25.9011623
  12.3339861  41.3977200  25.9913418  43.7489891  87.9093075  62.3039484
  43.4828281  88.2662678  63.1512785  43.5647345  88.6112404  61.6797924
  18.6418503  77.8490025  12.9302380  18.4952992  78.7669141  12.7017567
  17.7661865  77.5016839  13.0999825  31.0644549  70.1876885  21.5123245
  31.7309540  70.6923158  21.9785378  30.3942507  70.0091035  22.1720001
  21.4229124  52.8317887  19.9775002  20.8367460  53.1676537  19.2993900
  22.3020714  52.9817921  19.6299240   3.3217734  62.6390511   5.5475971
   3.6552256  61.7457921   5.4631969   2.3833149  62.5616223   5.3757546
   8.6128872  77.1495110  20.7546017   8.1424921  77.7698952  20.1977512
   8.1444758  76.3225610  20.6406948  33.6363285  60.6501157  30.6732533
  34.1704529  60.6039292  29.8802826  33.9213532  59.9019772  31.1979363
  39.5280695 105.4782391  94.9272060  39.3721199 105.5834103  95.8657455
  40.1957703 106.1322403  94.7205925  36.8564129 102.7483940  88.6569309
  37.7536106 102.7077103  88.3258533  36.8148255 103.5766602  89.1349220
  90.2360613   6.8791633  95.8872318  89.8447592   6.1116271  95.4701042
  90.2024585   7.5601249  95.2153778 117.7609426  38.8377910  64.9139404
 116.8106443  38.7233310  64.9061346 117.9191334  39.5681720  64.3158150
  92.4339658   2.4378352  96.0591698  92.7776129   2.7233081  96.9057178
  91.4900476   2.3600726  96.1977482  16.1009854  81.4440495  23.6414501
  16.2291640  81.5813882  22.7028629  15.3292769  80.8805711  23.6978695
  82.7125246  16.7824702  88.4215069  82.3023636  15.9632640  88.6988258
  81.9780475  17.3562007  88.2033253   0.8564412  53.6607986  74.7380352
   1.4334141  52.9281097  74.5223570   0.9461581  54.2620139  73.9986324
  75.3160555  17.8367667  71.9604254  75.3989989  18.7594180  71.7194414
  75.5604941  17.8079181  72.8854370  10.7741469  74.4392640  18.2233879
  11.3407105  74.1676194  18.9455006  10.6138628  73.6353165  17.7292225
  32.2862547  55.6156022  14.6939346  33.1869000  55.5080659  14.9997208
  32.3344439  55.4661710  13.7497017 100.4470617  15.8598857  62.5788927
 100.9720785  15.6872802  63.3604240 101.0902960  15.9874301  61.8815994
 105.2091963  12.7243190  72.1024036 105.0877601  13.6414104  72.3482132
 104.7375280  12.6338058  71.2744141   9.1133660  88.7503678  37.4352715
   8.4801024  88.3532006  36.8373844   8.6129158  88.9260346  38.2320854
 118.2210124  93.9298493  35.2001831 117.5366987  93.3179528  35.4713509
 118.5197509  93.5956342  34.3544361  62.9696703  71.5577936  86.7251015
  62.4643373  71.2675381  85.9657478  63.3695602  72.3814774  86.4460564
 114.0895588  36.8592219  56.5955925 114.0415603  36.9279819  55.6420755
 114.8845655  37.3377662  56.8305206  39.4823426  50.9723050  14.3728897
  39.1334599  51.1178643  13.4935066  39.7914141  50.0664574  14.3610355
 100.9741384  12.7918868  94.9077606 100.5178148  13.4560351  95.4243946
 100.9722883  13.1392436  94.0158176 104.9549467   0.1456790  77.5127125
 105.1996452   0.4911761  76.6542339 103.9991028   0.1005702  77.4891567
  96.2434656  27.9888969  85.1184464  96.6858131  28.8219886  85.2812672
  95.3219730  28.2241588  85.0101185   8.2667082  51.8918378  14.5845863
   7.7817267  51.5207726  13.8474724   8.7869566  51.1620385  14.9206993
  84.7327900  85.4771137  67.5295210  85.5004692  85.9486198  67.2061396
  84.9495506  84.5530415  67.4057150  46.5173435 110.8275509  89.0007305
  45.7194233 111.1127758  89.4459343  46.4481449 109.8732567  88.9731407
  98.0492861   2.9010158  77.6949072  97.1523649   3.1076293  77.9577398
  98.3110458   3.6349540  77.1389818  67.3496038  17.6875072  66.8160725
  67.2227294  18.6065059  66.5803051  66.4955384  17.4037700  67.1421051
  36.7686939  83.5415649  66.7959166  35.9488177  83.9591694  67.0598030
  36.7894816  82.7215958  67.2893333  38.5215616 108.5761452  78.3841228
  39.0852499 109.3495655  78.3662939  38.5137177 108.3066082  79.3025589
  57.5268745 111.4461994  83.5429192  57.8493500 112.2164440  83.0749798
  57.5082779 110.7545185  82.8815079  28.1677311  39.3464047   4.8438427
  27.9061859  38.4313828   4.9465630  27.3443907  39.8182065   4.7183392
  18.2995146  69.9891145   7.9876492  17.3629635  69.9418599   8.1796524
  18.5725563  70.8384759   8.3344433  33.5696238  66.6648633   6.1603710
  33.8056677  67.1757466   5.3860828  34.1830939  65.9300954   6.1586735
  29.0792340  80.1913029   2.0763752  28.6616390  80.6560666   2.8015301
  29.2195767  80.8639294   1.4099476 117.3042614   8.4532409  66.3996840
 117.1149427   8.3223777  65.4705620 116.9122917   7.6951079  66.8330765
  59.6539397  27.0380926  69.9590349  60.4166932  27.4854445  69.5925426
  59.9159618  26.1187434  70.0077248 116.4711644  78.0252196   8.9652321
 116.8053271  78.8693191   8.6618111 115.5530717  78.1933762   9.1775105
  80.7772019  94.2606683  58.2470560  81.3111536  94.9898310  57.9316950
  81.4068286  93.6529810  58.6350203  23.4007716  14.7564089  84.4536686
  22.8466964  15.5358756  84.4128704  24.0568471  14.8928690  83.7701702
 115.8781302  33.3980441  95.9745312 115.6555493  33.3423257  95.0452423
 116.8289694  33.2908440  95.9999180   8.6481255  29.7896338  71.5542984
   8.1245404  29.6089602  70.7736254   8.6499739  30.7441568  71.6258192
  11.3558042  30.0916791  32.4158406  11.4709651  29.2413855  32.8400707
  12.2411466  30.4501963  32.3536730  97.6555534   1.5574141  41.5161371
  97.5995417   0.8233679  40.9043598  98.5929687   1.6628934  41.6784954
  51.7654020  55.4947387   8.8014862  52.4036068  56.2001350   8.6949894
  52.2453636  54.7002086   8.5678455 114.6966378  10.7303405  87.7201176
 115.3171067  10.8012331  88.4455299 115.1587094  10.2146101  87.0592499
  99.6019371  24.1263413  61.5524197  99.1155358  24.9337769  61.3860035
  98.9254685  23.4636688  61.6920185  75.1080630  97.0644755  19.9370337
  74.8930333  96.4016302  19.2808092  76.0545922  97.1824570  19.8570681
   1.7466286  29.8917794  82.9677582   1.2695295  29.5245576  82.2236061
   2.0416981  29.1280127  83.4635639  29.8703194  30.6563306  87.5821495
  30.5245376  31.2743878  87.2562122  30.1313829  30.4863644  88.4872437
  85.7283766  57.5208791  19.0323422  86.3381941  56.8158505  19.2498085
  85.4460985  57.3262410  18.1386539   7.9774165  35.9449029  62.2856903
   7.3259157  35.7993793  61.5996838   8.8182908  35.9023571  61.8303299
 112.3254235   6.7477989  86.3378048 111.4662357   6.5209025  85.9820652
 112.1597202   7.5048560  86.8996143  21.8612623  25.0965524  54.6485043
  22.3668861  25.8409214  54.9748325  21.5975189  24.6220827  55.4368877
  71.0770947  64.8846431  16.2802479  70.8025963  64.6705367  17.1719048
  70.2587444  64.9622245  15.7898304 114.6631296  36.9018912  71.8033266
 113.9777298  36.3164544  71.4812708 114.9621676  36.4958334  72.6169157
   1.2610214 106.0084565  86.3825893   2.2122019 105.9708018  86.4829445
   0.9641855 106.5491931  87.1145248  13.2676756   9.4570822  68.8346910
  13.3980846   9.8262584  69.7081518  13.9923525   9.8067582  68.3162260
  59.1025931  67.5558521   3.3780071  59.8920161  67.3834635   3.8911602
  59.0920037  66.8650796   2.7154800   6.8937904  12.5140619  64.8897791
   6.3452613  11.9525003  64.3420601   6.6329175  12.3028219  65.7861900
  96.2041779  39.8123693  70.6926537  96.6792579  39.0073872  70.4864120
  95.3490944  39.6988344  70.2777195 105.6957133  69.4745731  28.2619858
 106.3375457  70.0117159  28.7264895 106.2226255  68.8754845  27.7331328
 114.3021695   8.9684010  54.2057228 114.9401732   9.4770241  54.7062111
 113.4517680   9.2696619  54.5255518 101.7368241  22.6643682  55.5005550
 102.3268182  22.5924134  54.7502470 101.3743158  23.5479355  55.4363251
  17.9798698  14.1025865  69.2802715  18.0216360  13.1463838  69.2674398
  18.8949156  14.3819153  69.3102169  37.0108986  15.9597635  65.1032639
  36.5205812  16.7796218  65.0428391  37.7097774  16.1443388  65.7307434
 116.3476626  24.3377042  74.4501877 116.0540336  23.6540914  73.8479567
 116.5285443  23.8747311  75.2682161   5.7832432  27.4000096  91.3606453
   4.9615061  27.5097394  91.8391228   5.8760083  28.2077956  90.8555603
   3.4889150  14.7301793  62.1582317   3.1555563  14.9884987  61.2989426
   4.4001240  15.0233150  62.1596575 112.8257389  16.2165558  80.8790207
 113.0626680  16.4223123  81.7833138 111.8731780  16.1240005  80.8961296
  60.9464151  41.4368893   3.6141464  61.6481382  41.7927231   3.0689880
  60.7442672  42.1388759   4.2326805  58.4027714  67.5235917  13.6231777
  58.8889117  66.7034139  13.7080833  58.8357169  67.9854085  12.9051849
   1.1532967  49.7803307  89.6731949   1.3859081  50.4266644  90.3398132
   1.9332913  49.2319536  89.5887947 111.6406388  29.7590208  77.1260738
 110.7741792  30.0967860  77.3527718 111.6264667  28.8476753  77.4184465
  17.0981812  19.4900680  66.0356379  17.7296662  18.7798452  65.9214354
  16.2535775  19.0480125  66.1220169 114.9906553  15.2450907  56.5978813
 115.3878246  16.1021757  56.7524576 115.0659321  15.1131630  55.6528091
  57.0044572  89.2653729  11.2746689  57.1630592  89.7967579  12.0548603
  56.3278431  88.6433269  11.5420315 116.3918196  16.1899662  64.5059967
 115.8316524  15.4632044  64.7785091 117.2568948  15.7961929  64.3927765
  69.8446209  85.8263798  63.2789803  69.6867276  86.1506433  64.1656351
  69.5139636  84.9281735  63.2900190  45.9836626  20.0646663  90.9929943
  45.2522230  20.4333782  91.4882565  45.5704260  19.6037924  90.2628899
 102.3753674  19.8574507  93.7594509 102.1136160  20.4631996  94.4528389
 102.0498414  19.0055406  94.0501595  17.6121616  25.2159381  60.4636240
  17.2295761  25.8189583  61.1009836  17.7357876  25.7462430  59.6763992
  22.1032095  15.5611372  88.0707455  21.4561033  14.8638785  87.9643631
  22.3192143  15.5472147  89.0031528   4.8756063  12.0204985  78.0852222
   5.3693682  12.4993050  77.4195099   4.8924446  11.1108267  77.7878284
 111.7940207  37.6006389  76.0231161 111.3892336  37.4675012  75.1659966
 112.6293684  38.0262280  75.8299828 112.5394858  17.1490991  61.9825029
 112.4495245  17.9199755  62.5427580 113.4178562  16.8180418  62.1698523
  22.6823354   3.7853879  90.6434631  23.3411789   3.3904544  91.2145901
  22.8542089   3.4061795  89.7815514  17.6357532  33.9111733  75.8708906
  18.4067011  34.0699768  75.3262329  17.4361169  34.7636318  76.2577915
  33.0687768  39.8056950  23.5397884  33.3471036  38.9803757  23.1427834
  33.2454581  39.6937443  24.4738552  91.6115464 102.1210594  70.4871941
  92.2945357 102.7299149  70.2060318  91.8995584 101.8192745  71.3487053
   7.7168041  45.4125738  50.3823233   7.7317435  44.5560741  49.9552155
   8.2801336  45.9618950  49.8372221 108.6144717  23.4797597  83.5698318
 108.5303654  24.3628812  83.2103157 107.7151354  23.2107091  83.7570190
  86.5202815  95.7107789  79.7417450  86.3169456  96.2633545  78.9870644
  85.7283402  95.1907177  79.8781204   6.0801500  64.8003769  50.5837631
   5.4407036  64.6260786  51.2743855   5.7196409  64.3688869  49.8091078
  22.6807475  25.8633780  46.1571646  23.3473611  25.5107403  45.5676699
  21.9033742  25.9627295  45.6075716 103.6644728  40.2430010  80.9189892
 102.8084882  40.4860449  80.5662155 104.2631312  40.9043360  80.5718899
 104.1194714 111.6124605  88.2919312 104.6819771 112.0123253  87.6286697
 104.5921434 110.8259200  88.5642719   7.1145290  59.0334034  90.3658962
   7.2870445  58.1252766  90.6144238   6.6042632  58.9680099  89.5586872
  11.4928555  37.0955777  95.1309013  11.8236566  36.9585752  96.0186100
  11.8193054  36.3446784  94.6351051   2.8399703  26.3904595  51.8159485
   3.1772080  27.2713304  51.9789505   2.2471952  26.2216163  52.5483036
  33.5566092   9.7385710  43.7465382  32.9473281  10.4667878  43.8678217
  33.8849330   9.8471040  42.8539801  24.2421675  45.4276991  53.3124113
  23.3756065  45.4420757  52.9060888  24.0796161  45.1484871  54.2134380
 110.7010044  12.5178218  52.7640724 110.8015616  11.8300080  52.1060181
 111.3489272  13.1789410  52.5204515 113.6127664  69.0693855  80.4093552
 113.5395776  68.1639910  80.7112312 113.9172800  69.5538378  81.1767006
  46.9421291   9.1762835  34.8123503  46.9983816   9.4722044  35.7209206
  47.7364349   9.5160317  34.4001865  42.2758818  59.2877531  65.8025551
  42.9374456  59.5598793  65.1665449  41.4415836  59.4243383  65.3536415
 110.6216319  27.1643996  78.0756664 111.2756182  26.4766669  78.2003832
 110.2759291  27.3281407  78.9531088  34.2246127  24.3768573  63.1352520
  33.6625838  24.3890762  63.9099836  35.1109505  24.2813063  63.4838343
 113.5461061  59.6526957  68.4377003 112.8463091  59.1634512  68.0050898
 113.1770404  60.5245638  68.5786438  41.3222790  42.0896244  66.9862032
  42.2111368  41.9135475  66.6777182  40.9133053  41.2261152  67.0438528
  35.4481745  29.8359084  70.4387808  35.0102186  30.0126314  69.6061993
  35.0355482  29.0346146  70.7611132 111.0236795  50.6849909  64.4743156
 111.9568087  50.8979797  64.4860792 110.5838491  51.5307951  64.5603132
  84.8989458  35.7946730  57.8851843  84.2819281  36.0323095  57.1930504
  84.6334071  36.3262129  58.6356401 111.9711359  24.7849941  71.5652275
 112.0256300  23.8388467  71.4308262 112.8801240  25.0836372  71.5372086
  27.6789314  71.1641611  13.3823940  27.4502153  70.2509274  13.5553810
  27.9069227  71.1820413  12.4529240 112.2181876   4.7920549  69.8446321
 111.3691522   5.0738591  70.1851606 112.0869566   3.8752237  69.6029091
  98.9082612 107.5970895  51.3497114  98.6265875 106.8712218  50.7929277
  99.2826952 107.1746669  52.1227503   4.8121607  37.2848439  43.9425898
   5.0882995  36.7558670  43.1941509   3.9135778  37.5417709  43.7357855
  15.2241373  13.6602783  79.7887611  16.1557233  13.8800311  79.7793579
  14.7855759  14.4851100  79.9974442  91.8274797 108.0465431  32.3812628
  91.1390019 107.5634573  31.9242501  91.9976951 108.8058556  31.8238544
  54.3248851  80.5640413   3.7785503  54.7070295  80.0680758   4.5025703
  54.2894978  79.9403192   3.0533192 103.0461682  89.9891181  51.4389181
 103.6355318  90.2647896  52.1409798 102.2200287  89.7955079  51.8819141
  94.4102920  97.5158925  77.0496035  94.2426527  98.4090347  77.3503113
  94.7949220  97.6242454  76.1798048  18.1528997  40.3058195  88.9659214
  18.7271309  39.5756102  88.7350845  17.3740149  39.8903036  89.3359375
 108.0309220  22.8506517  53.3903122 107.3366578  22.5643706  53.9838362
 108.8287999  22.8095150  53.9175034   8.0507374  43.7737083  27.1130681
   7.5340241  44.4979286  27.4662662   7.9905736  43.0892229  27.7794671
  69.7853280 109.2799548  76.0911989  70.4175193 109.9972696  76.1362028
  70.2761895 108.5516060  75.7106829  55.3540277  28.0761814  83.0256939
  54.7969103  27.9274368  82.2616768  54.8346424  28.6452365  83.5937214
  76.2377561 107.0396865  86.8695164  75.7421632 107.6624773  86.3377666
  76.6286101 107.5733254  87.5613880  91.4055987  27.7093554  76.5624666
  91.3996620  26.9061112  76.0418940  91.7278476  27.4358082  77.4212790
  96.0521723  85.7604785  54.9876738  96.2258864  85.0211019  54.4051123
  96.9160188  86.0230107  55.3056002  15.7395208  37.0993447  47.0650578
  16.2006998  37.8004026  47.5255632  15.0427711  37.5463510  46.5844727
 106.2210126  31.4886022  77.2474146 105.3521557  31.2163520  76.9521189
 106.1051519  31.6943145  78.1750393  92.1575995  55.3515577  45.0426292
  92.6929064  55.0011349  45.7545900  91.5310140  55.9305286  45.4766989
 115.6919290  11.1050332  94.5262814 114.9879815  10.4716647  94.6660423
 115.2950080  11.7891991  93.9872074  45.9588480  19.3816590  87.2557831
  45.5597210  19.0733373  88.0693340  45.3595304  20.0557709  86.9354343
   9.1088295  69.7551489  34.3256879   8.8123786  69.8861313  33.4250259
   8.8186055  70.5402994  34.7899461  16.6752768  41.7510509  46.5203333
  17.2036433  42.3307037  45.9716415  15.7873154  41.8363762  46.1732388
  17.8352976  38.5550570  72.7320004  18.0888879  38.5530114  73.6549950
  18.2911181  37.8016543  72.3567104 100.9450920  60.2474546  45.7389259
 101.4574285  59.4667482  45.9492588 100.8326442  60.6934738  46.5783596
   8.4309560  32.4031472  58.6055899   7.6331758  31.8837190  58.7054539
   8.8557166  32.3568153  59.4621277  13.5610843  42.3883820  35.3822660
  14.4899297  42.1590233  35.3527308  13.5138714  43.2500839  34.9681759
  41.3422298  20.3505039  85.7002926  41.2750387  20.0546551  86.6081429
  40.4359961  20.3959322  85.3954887   8.5818762  80.5029583  75.4739809
   8.0704850  79.7096348  75.3147888   7.9272246  81.1946106  75.5703545
  18.8315606  30.6026912  56.6853666  18.9537072  30.2168417  55.8179379
  19.7088504  30.6142306  57.0680666 104.6684189  41.9636345  86.2784195
 105.2198191  42.7340651  86.4149094 103.9488466  42.2780275  85.7310581
  13.5263968  50.4395342  58.2774401  13.5261583  51.1779022  57.6683044
  12.7620053  50.5880356  58.8341141  19.5588553  22.4408317  84.2743206
  19.0006649  22.7581763  83.5644245  20.0071049  23.2235527  84.5947170
  81.3001815  14.4736964  10.0355980  82.1420098  14.6858556   9.6324226
  80.6522889  14.9048716   9.4783184  21.2367988  64.5584917  64.6495724
  21.1211348  65.0372744  63.8288307  20.3743839  64.1859531  64.8331213
 104.9278159   8.8679051  74.3258810 105.2155836   9.6184862  74.8455429
 104.8507769   9.2089272  73.4348106 117.8206310  30.6629300  59.9068213
 117.4343479  31.1562324  59.1831732 118.1833560  29.8785186  59.4952917
  23.0698562  51.0128498  81.0322571  22.1825337  50.9471607  81.3852119
  23.0202699  50.5835724  80.1781559  15.4413378  58.7465906  94.2269230
  15.6359160  57.8315067  94.4293880  16.0495102  59.2468405  94.7710800
  35.8467555  42.7401257  35.4238892  36.2622476  42.3177910  36.1757064
  35.4973793  43.5601854  35.7727027  20.0822616  61.3699007  66.9892979
  19.8418999  61.9887018  67.6788950  19.6477664  60.5539370  67.2375917
   3.9521676  26.4824080  68.2309341   3.4645313  26.6402674  67.4225235
   3.9030850  27.3118877  68.7061071   7.7875286  65.3865957  94.9483776
   8.1261313  64.5727730  94.5751858   7.9214585  66.0392046  94.2610645
 115.3447162  30.1381207  74.2160273 115.6577350  30.7073283  74.9190569
 115.1119588  29.3203402  74.6556711 105.7520278  33.5891700  40.3829956
 106.5561493  34.0598917  40.6021738 105.0892873  33.9642358  40.9629393
  21.1663294  63.3154821  56.6026163  22.0110607  63.7596846  56.6757298
  20.6652236  63.8532305  55.9894657  88.5334707  99.1240044  52.3368597
  89.3598093  98.7497158  52.6423168  88.5590667 100.0341196  52.6322746
  26.6492844  30.6957603  84.4383144  27.5294161  30.5604362  84.7894382
  26.6264248  31.6224980  84.1998482  26.6295290  29.1946387  76.7192888
  26.0886407  28.8990164  77.4516010  27.2128749  28.4573460  76.5394545
   9.7995377  32.4413633  78.6116838   9.5702535  32.4594092  77.6825285
  10.3165746  31.6425133  78.7153244   6.2570798  53.9664268  64.6171951
   7.1046966  53.5664892  64.4227028   6.0257435  53.6286163  65.4824114
 108.4466644  19.1485786  75.7623243 108.5156752  19.6289802  76.5873575
 109.3498756  18.9217854  75.5409479  41.7889929  39.4962382  61.1348629
  42.6243258  39.5755887  61.5954638  41.4715004  40.3959656  61.0579109
 103.3415694  66.9216490  70.2169895 104.0658303  67.5470972  70.2392292
 103.7497528  66.0911226  69.9723721  29.9902511  41.1595678  62.6082325
  30.3715611  42.0287514  62.4843311  29.7207785  41.1449337  63.5266018
 118.2989123  44.2080021  49.7794390 118.6903965  43.3661127  49.5466375
 117.4518286  44.2096710  49.3337011  22.4403167   4.4956073  60.6197262
  22.1902442   5.0024247  59.8471737  21.6097784   4.1920522  60.9861851
  67.4975730 107.8232316  56.5816450  66.8721426 107.1027343  56.5044928
  67.2636152 108.2566256  57.4024153  18.6909759  32.1948147  72.6038265
  18.8673651  32.0745707  73.5369205  17.9100037  32.7476192  72.5769997
  53.6319817   0.7248837   2.0715210  53.1207813   0.9593255   1.2969563
  54.4933523   1.1124188   1.9163105 114.7289355  50.6556845  66.5401268
 114.9108891  49.7650957  66.8401003 113.8963707  50.8825397  66.9543791
 116.2994015  12.8093779  51.1863661 116.8810955  12.8260458  51.9463587
 115.4277657  12.6658726  51.5549994  96.3913937  16.9159091  81.8547821
  97.3246355  17.0824087  81.7222214  96.3046308  15.9656000  81.7798233
  34.3119788  61.2937546  75.4001808  33.6246705  61.4002228  74.7425270
  34.9243093  62.0081949  75.2244997 117.8052407  47.6024532  68.5122156
 118.3171833  46.9069099  68.0994606 117.6842478  47.3074245  69.4147396
  43.3210278  82.1070099  93.6552906  43.3731556  82.1287251  92.6997566
  43.3417988  81.1756420  93.8751888  99.8795707  26.8610549  42.5602436
 100.0724049  25.9650445  42.8363085  99.3884762  26.7600083  41.7448616
   0.1671536  49.1525173  30.0967121   0.9651049  49.5830727  30.4035139
  -0.4279559  49.8723364  29.8870897  16.2520957  36.1900401  90.8639050
  15.3816438  36.0686493  91.2431240  16.3862884  37.1377611  90.8707333
 115.8521105  18.1709230  62.7144432 115.4132067  17.5139761  62.1740580
 116.0754830  17.7069485  63.5213280  11.2976992  32.2070265  52.4986649
  12.1403444  32.6367855  52.3520756  10.8765626  32.7315784  53.1796312
 116.1437654  25.9041190  66.8700314 116.6952562  25.4530716  66.2307787
 116.1418177  25.3273511  67.6339483  25.6324577   2.0142376  83.1479931
  25.7313991   1.9420616  82.1986580  26.3432837   1.4811833  83.5041046
  30.1628280   5.2698749  89.7480488  29.3295050   5.1054674  89.3067169
  30.6531262   5.8197308  89.1369057   1.7702720   5.3142375  37.0849752
   1.9911797   5.8847785  36.3488269   2.6127651   4.9724314  37.3843169
   2.7973926  26.8488264  65.7285976   3.2563174  26.8435740  64.8886013
   2.0040593  26.3368583  65.5712986  12.6728868  57.9143047  71.2585163
  12.4065840  57.1489000  70.7491350  13.5496485  58.1232595  70.9362411
 108.9960207  40.2368021  70.5138397 109.3781634  39.3614411  70.4510403
 108.1842013  40.1804590  70.0098515   7.3321319  30.2331161  52.8873205
   7.0548773  31.1245155  52.6757336   7.9703057  30.0133133  52.2086096
  24.6016145  37.8670335  80.8535480  24.5438695  38.2207847  79.9659920
  24.5374060  38.6345315  81.4219284  10.9623981  28.4837484  72.0847988
  10.7726872  28.3589315  73.0146694  10.1878428  28.9279389  71.7398500
  27.0778227  47.5581026   0.9520315  26.3877130  46.9209814   0.7674896
  26.7982197  47.9864550   1.7610869  27.4506235  30.4599404  95.2560425
  28.0573726  29.9662900  95.8077717  27.3717928  31.3104105  95.6881523
  47.1642197 104.8685791   0.6170818  46.3152278 105.2687408   0.4291698
  47.7844322 105.3575422   0.0762722  21.1193657  63.1417131  33.1719184
  21.1471033  63.8826370  32.5665283  20.9720397  62.3798656  32.6114583
   3.9144143   2.6395282  73.1449842   2.9762745   2.6382539  72.9549217
   4.2817819   3.2779074  72.5336409  74.5565171  26.1623907  54.7567558
  74.1838308  25.3591156  54.3933153  74.3314452  26.1315155  55.6866074
   6.3685900  21.1649275  67.0443392   7.0366585  21.4028692  67.6872206
   5.5566514  21.1174369  67.5490475  42.9814434  49.1200542  65.9367371
  42.3744822  48.5381174  66.3941002  43.3523989  48.5791636  65.2395582
  18.5614061  57.0931292  47.5197029  18.4049928  56.6879749  46.6667032
  18.4388649  58.0299282  47.3659897  27.4436212  58.9940929  51.2834072
  28.0278087  59.6313906  50.8725452  28.0313873  58.3709192  51.7105103
  26.0486109  51.2852247   0.7318852  25.5981368  50.5238815   0.3662941
  26.9487221  50.9889217   0.8669350  23.5093164  61.1367655  76.4910460
  23.0283022  61.8157196  76.0178900  24.0430546  60.7101011  75.8207369
  31.7014885  53.0440569  36.8949246  31.0969758  53.5698843  36.3711882
  32.5661945  53.2464170  36.5377665  24.9724293  12.4719656  58.5654354
  25.0732327  11.8973696  57.8065491  24.5473576  11.9244909  59.2255974
  56.6642613  78.0737211   0.0757763  57.3880738  78.3486535   0.6385777
  56.2499363  77.3545529   0.5526039  99.9958409 102.4588216  83.9997482
  99.3356813 103.1518717  84.0098667 100.8210338 102.9115094  84.1740036
   9.8761541  28.8886070  81.7026329   8.9209521  28.9055920  81.7620659
  10.0556493  28.7248564  80.7767773 115.1397861  92.3896654  62.0497894
 115.1593770  93.2043249  61.5476131 115.3056921  91.7048771  61.4018917
 117.1646430  74.3646765  50.4895926 116.8720822  75.1769495  50.9029388
 116.6993140  73.6744070  50.9620619 111.1015536  62.9454994  42.3079014
 111.4906765  63.6331367  42.8482437 111.3614584  63.1675816  41.4138317
  12.4570847  51.8179512  91.3241196  12.9175878  52.0862770  92.1192169
  13.1363308  51.7951107  90.6500816   3.2090035  47.3438835  50.2253866
   3.5513607  47.9185820  50.9100342   3.7503245  47.5349760  49.4594336
  92.1508373 102.9597796  56.4183187  92.9765321 102.5334192  56.1888027
  91.4837862 102.2925044  56.2570143 103.7308879  33.6799145  64.0514326
 104.4003589  32.9984260  64.1115713 103.9263792  34.1361427  63.2329750
  69.4426138  60.1923038  28.4393570  68.6567289  60.6913285  28.2166645
  70.1638610  60.7073848  28.0778000  14.5722187  16.6193902  31.2147617
  14.8474050  17.5361717  31.2108016  15.3517318  16.1341667  30.9443021
   6.8083584  59.5793009  51.4067554   7.6401210  59.9128628  51.7431116
   6.1813730  59.7456408  52.1106386   4.9730399  42.2928286  61.7939901
   5.0204587  43.0597591  61.2231970   4.5832244  42.6210499  62.6042652
   2.9964352  59.5083332  54.4693136   2.7281719  59.4266415  55.3845167
   2.5990379  60.3280783  54.1754961  92.9384960   5.0884539   6.6366932
  93.4754456   5.8314235   6.9122288  92.3864914   5.4382045   5.9372685
  19.7396731  54.2019892  47.8241730  20.6679916  54.1879463  48.0571079
  19.3417597  53.5366774  48.3856487   5.1445287  38.3843470  46.6498661
   5.9748369  38.8308549  46.8155527   5.1522207  38.2055163  45.7095528
  16.9791389  13.8280225  85.7207870  17.1022606  14.3336678  86.5241528
  16.1359501  14.1243875  85.3781033  96.2127657   4.1720232  81.4384365
  95.5583854   3.5659525  81.0910225  95.8459301   4.4690245  82.2711754
  30.1946425  83.7879848  88.7114620  31.0793543  83.8457108  89.0722752
  30.2968478  84.0197086  87.7883816  22.1866965  51.3194609  26.2280011
  21.8986559  52.1473312  25.8434367  23.1020141  51.2367153  25.9604549
  23.7342358  71.6750813  75.6309319  23.6687469  72.2519159  74.8698759
  23.3694816  72.1878624  76.3522148  98.0654807  29.3825197  87.6277351
  97.4010725  29.7832489  88.1882763  97.9918046  29.8511720  86.7963696
 117.1171800  57.3158121  56.3245916 116.8582305  58.2174778  56.1343765
 117.6870178  57.3867559  57.0904112   3.2867944   9.6625435  64.1147661
   3.6329374   9.9037272  64.9739790   3.3407912   8.7070853  64.0943861
 102.6218314  14.5346022  69.8353863 103.1820293  14.3331575  69.0858364
 101.7538078  14.6712410  69.4557905   3.2222706  60.5937529  81.8852329
   3.4139985  60.3191185  80.9885502   2.3238719  60.3011131  82.0384502
  11.9796622  48.8936138  80.6987000  12.5830138  49.6253729  80.8280373
  12.5292456  48.1871271  80.3594875  31.0859323  48.9171314   9.8312956
  31.0493922  48.3167267  10.5758834  31.7767930  49.5393038  10.0589895
  32.7295852  51.9449234  61.1934280  31.8203640  51.7547607  60.9623766
  32.7635455  51.8337393  62.1435452  98.7042184   7.3415792  77.3730898
  99.3980963   8.0008203  77.3859930  98.2490750   7.4565399  78.2072687
   5.0178528  64.3770075  71.5564919   5.2698296  63.6969900  70.9317398
   5.7977277  64.9255466  71.6409302 115.4890020  37.1129513  48.3361626
 115.6271578  37.8116179  47.6966238 116.2969105  36.6003251  48.3091450
   7.2410285   3.3345506  88.5482216   6.8880010   4.1441473  88.9172173
   6.8778801   3.2962945  87.6634121  99.4587906  38.2366276  81.2891197
  99.9775727  38.6465764  81.9812489 100.1074798  37.9015923  80.6700993
  22.5679445  48.7052011  53.1342649  22.5575185  47.7819109  52.8819656
  22.1148944  48.7282991  53.9771461  45.6568522  80.9323813   3.0289814
  45.5902780  80.2346160   2.3771259  46.3714523  80.6565239   3.6029884
 104.2882939  36.0405302  77.6144123 105.2437480  36.0781288  77.6583004
 104.0038557  36.9310641  77.8200245  17.3672891 104.4832039  65.9152889
  16.9966912 103.6790943  66.2790251  17.3109603 104.3653393  64.9670458
  40.6734916 104.5755722   0.5679009  40.1084213 103.8144495   0.4351589
  41.5121109 104.3213512   0.1827786  19.9248874  24.7930312  86.1628914
  19.6904314  25.5985618  86.6237450  19.6830201  24.0918636  86.7679501
  67.5919873  74.4044198   5.5131409  67.6565272  74.8748543   4.6820232
  68.4586245  74.0174116   5.6372234  12.3608148  55.9412861  52.6656628
  11.6377389  56.5313053  52.4528980  12.2511935  55.2024937  52.0669937
   4.0676197  44.9464464  73.2849216   4.7007522  44.3248796  72.9257059
   4.2606217  44.9702406  74.2221594  33.1743741  64.4365358  76.3109922
  32.4093890  64.0421295  76.7298889  32.9395247  64.4893646  75.3845549
 111.9464083  42.3675156  73.5473871 111.1325414  42.2715521  74.0420008
 112.1858497  43.2878494  73.6564207   0.9759845  48.0427837  39.3157768
   0.3537656  48.7109137  39.6033144   0.7954676  47.2895193  39.8781300
  15.0825822  69.6633196  83.7009716  15.7634115  70.3148937  83.5331726
  15.4800022  68.8306046  83.4462738  11.7704761  34.0085101  39.1456604
  12.5231862  34.5267081  38.8608265  11.1771393  34.0150976  38.3945656
   9.7639203  23.3682847  66.2335157  10.0902963  23.0976605  67.0916939
   9.0843272  22.7279520  66.0229015  50.7145500  81.4038754  73.3553696
  51.0337925  80.7121563  72.7758503  51.2306118  82.1737862  73.1162930
  10.8767891  37.3135900  83.4833145  10.8419275  37.1202326  82.5465012
  11.2143588  36.5110731  83.8811111 105.4442175  23.1712604  88.4984493
 104.5248647  23.4372544  88.4820461 105.9315355  23.9862323  88.3777237
  49.9356431  90.9885003  10.6422874  49.8821170  91.7318346  10.0416061
  50.2851183  91.3598444  11.4523480 106.2996395  67.5079775  47.0252800
 105.6284840  68.1642437  47.2126198 105.9540220  66.6980600  47.4005222
 117.9119538  31.5756059  64.3874407 117.4045040  31.8427992  63.6210632
 118.1536921  30.6666636  64.2096233   8.8577789  15.1483369  57.5161076
   8.2070959  14.7406840  56.9445658   9.2356014  15.8503747  56.9863701
   1.1146279  37.0886016  69.3740082   1.6986641  36.4438629  68.9747047
   0.3904944  37.1724343  68.7536573  16.7847860  71.5518570  82.8868675
  16.3681781  72.2682381  82.4078465  17.2893906  71.9854546  83.5750580
 106.5821059  58.3971405  63.7730265 107.0112546  58.1872463  62.9435635
 106.0623296  57.6197290  63.9772177  55.9638578  91.5083172   8.2274601
  55.5818636  91.7461206   9.0723011  56.5492100  92.2355749   8.0160496
  11.8217897  16.9302845  72.5914907  12.4267423  17.2052598  73.2804441
  11.0007346  17.3749173  72.8022099 115.5173497  32.7020025  60.8725739
 116.1467405  33.3042455  61.2693119 115.6929885  32.7565908  59.9332094
  18.8718092  38.0870342  87.0516109  18.4741855  38.6652565  86.4006233
  18.2186270  37.4020410  87.1943283  34.2551827  36.5080357  76.3199520
  34.8833990  36.8353939  76.9637012  33.8233972  37.2941041  75.9854555
   3.1663531  32.7023244  67.6986551   2.7552485  32.8828597  66.8532944
   2.6892930  31.9460917  68.0403519  20.6979561  14.3639302  70.1084948
  20.8585930  14.9010742  69.3326712  21.1780977  14.8053992  70.8090687
 115.1352258  37.3822427  94.5219994 114.8961960  37.3405886  93.5960579
 115.0081985  38.3003569  94.7610855   3.8614020  24.5205212  89.5493507
   4.5512661  25.1692581  89.6888447   4.1439384  23.7580776  90.0544071
 113.6695994  38.5242629  67.6114368 112.7529241  38.6815524  67.3851633
 113.7797098  38.9391732  68.4669828  27.0355630   5.9969556  59.9747658
  27.8618693   5.5964833  59.7044420  26.4500523   5.2559775  60.1308441
 113.2874952  17.0411980  70.5248165 112.3573078  17.0447397  70.2990484
 113.3021714  17.0910919  71.4806032  23.7716556  38.2451725  78.0689096
  23.9427257  37.9642272  77.1700001  22.8301549  38.1171799  78.1847763
  43.7463236  62.6114988  68.4322357  44.2426395  62.9600286  67.6916790
  43.3524990  61.8054199  68.0985117  80.8269515 108.5048104  71.9140244
  79.9476719 108.6986155  72.2388935  80.7621385 107.6167945  71.5626574
  21.5165687  51.2069941  71.2480593  21.8832850  52.0560360  71.0013247
  21.5230346  50.6985140  70.4371119 106.2545188  52.8186846  59.7595263
 106.4600404  52.0396757  60.2763748 107.1057279  53.2170296  59.5778751
   7.0380241  82.0163250  82.6260471   7.8961003  82.4260426  82.5161648
   7.0974219  81.5570259  83.4637451 106.2088902  43.7660313  37.6651955
 106.8260725  43.1012821  37.9708529 106.6155071  44.5987177  37.9050422
  10.1428401  46.3036489  73.6106348   9.8074800  45.4413128  73.8558674
   9.3601501  46.8168068  73.4098959 107.7479358  42.5285530  90.3833961
 108.2745995  42.8453541  91.1172199 108.2114132  42.8375101  89.6049595
  10.3293407  66.0903549  54.8338175  10.2994215  66.4205313  55.7317686
  10.8948290  66.7080402  54.3702221  49.1292381  30.2009439  67.7529860
  48.4231424  30.8067513  67.9780674  49.6090364  30.6421709  67.0520258
  21.3319302  43.1077671  56.1877918  21.5484262  42.3374224  56.7130899
  21.0271525  42.7508545  55.3535509  19.5773566  50.6249857  51.6560459
  19.7255743  49.7942495  51.2042236  20.4437089  51.0290909  51.7046595
  17.7920377  51.4015341  95.2267647  16.8613791  51.3604403  95.4467964
  17.9652131  50.5816269  94.7641754   1.1455728   9.7136217  57.0686722
   1.1165816  10.6609249  57.2028685   2.0564872   9.4751197  57.2406721
  88.7365801  74.1346361  11.1822960  89.2970402  73.3797230  11.0027859
  89.2297775  74.8839142  10.8482716  38.8452053  27.8132963  33.6127472
  37.9782724  27.4427080  33.4474468  38.6698127  28.6915922  33.9504838
   1.0377321  40.5461359  84.8972511   1.4031309  39.9406028  85.5422688
   0.1930815  40.1629877  84.6606159   7.5872350  46.3944387  67.6472378
   7.6566881  45.4511547  67.7942991   7.3998821  46.4779234  66.7122698
  12.6299083  32.1724248  73.6325788  12.6846111  31.3284111  73.1843805
  12.9460800  32.8063822  72.9888630 103.4164353  13.7711310  41.8732738
 103.3970769  12.8907740  42.2485447 103.8693388  14.3011701  42.5291443
  92.3645056 101.9994784  75.5685663  92.0578755 101.2299890  76.0482502
  93.1658066 102.2609098  76.0222244 108.3770628  11.8687201  50.0161266
 109.0932830  11.4104474  50.4557228 108.7249745  12.0822120  49.1503286
   6.1913698   8.6687047  10.6266758   5.9449690   8.1134707   9.8869202
   6.8338602   9.2788989  10.2645943   0.2743253  65.3915787  73.5030603
   0.4584133  66.2891483  73.2261038   0.6536417  64.8458099  72.8142309
  11.8625402  48.0624390  71.0925055  12.2956192  47.2755051  70.7617331
  11.3994753  47.7690935  71.8772078  80.5983134  29.7185183  29.3344784
  80.1214643  28.9656854  28.9850640  81.4380546  29.7042799  28.8752794
 114.2932434  61.6997480  61.6775131 114.6225266  62.0638084  62.4992561
 114.6695621  60.8205462  61.6372442  98.2605155  44.9835014  26.0395408
  98.3892663  45.1797247  25.1115584  99.0974171  44.6171618  26.3252425
   6.1912137  26.4394116  87.5948524   6.4134586  27.2347426  88.0788898
   6.6980869  26.5021968  86.7853069  60.5992729  83.9466454   9.1624043
  59.6589667  83.8562848   9.0078423  60.6647927  84.2575385  10.0653431
  12.4850690  41.1768389  88.2348156  11.6573572  40.9468317  87.8126526
  13.1441891  41.0562944  87.5512505  34.2104363  58.6001635  92.5647831
  35.0818849  58.4194946  92.2124100  33.6159563  58.4239435  91.8355560
  14.6422970  41.6655397  75.9742880  14.3886280  42.1682930  76.7483187
  15.1390433  42.2843361  75.4389715 111.6228361  48.7206173  59.7877550
 110.7249768  48.3905983  59.8219252 111.9179220  48.7067556  60.6982279
  23.7417674  37.9661536  23.7020326  22.7909231  37.8588533  23.7268639
  23.9019060  38.7901664  24.1620207  24.4730610  95.0145365   9.7411034
  23.8515181  95.2178146   9.0421078  24.1211588  94.2250945  10.1524136
   0.3689284  11.6854179  60.4943228   1.0902072  11.2237883  60.9219790
  -0.1185601  12.0867896  61.2136936  45.5451393  10.5525911  65.1006937
  45.0612879  10.5043066  65.9251881  46.3836336  10.1315153  65.2900362
 114.8943569  50.2528858  71.0565853 114.5325760  50.4226637  71.9263649
 114.2533328  50.6284809  70.4530573  38.5762119  25.6215119  60.3680038
  38.1788921  25.4130602  61.2135315  38.7841010  26.5541553  60.4244757
  25.9410501   1.8102360  77.4806452  26.4276886   1.7884406  76.6566658
  26.2234282   1.0231518  77.9464722  16.6908038   6.4560175  85.8840942
  17.5113380   6.1114979  85.5315876  16.8341029   6.4952326  86.8296909
 113.3665596  56.9085026  77.8469276 114.3134339  57.0077705  77.7478981
 113.2602532  56.0808754  78.3159399  43.5487795  49.5022154  87.4121189
  43.2799292  48.9614344  86.6694927  44.3807745  49.1232109  87.6956272
   0.1976408  24.1134286  62.4220133   0.4065438  23.4010792  63.0262852
  -0.2818413  23.6904120  61.7096996  10.5205512  37.5503111  87.2309589
  10.2218425  37.3582983  86.3420677  10.2093947  36.8109059  87.7531624
   1.7486836  27.9453087  19.8970771   1.0293011  27.8782082  20.5249453
   1.5298985  28.7088370  19.3628597 115.6284837  53.5500717  51.1577463
 115.6287871  52.6157475  50.9497356 116.1497158  53.9505291  50.4619122
  19.5660853  45.3508520  63.5311699  18.8181996  45.7191086  63.0607605
  19.1984344  45.0369787  64.3573380  21.8584251  11.9055319  77.8989697
  21.0785556  12.4604857  77.8912926  22.4393988  12.3176920  78.5383654
   7.0921862  25.5470443  92.8224564   7.3164672  24.9420691  92.1154022
   6.5905112  26.2406421  92.3941231  29.3722034   6.1347574  55.9069586
  28.8543439   6.3547516  56.6813326  28.7234569   5.8958888  55.2449179
  12.5334120  15.7220316  64.7352886  13.2568157  15.1206434  64.9120712
  12.0645142  15.7838452  65.5674839  37.6507306  38.1229830  89.0980721
  38.2632136  37.5495744  89.5588398  38.1924915  38.5908437  88.4625912
  26.5450239  30.1240587  74.0912676  26.1870098  29.8790431  74.9445105
  27.4705172  30.2995276  74.2612886   1.0382145  36.7402697  81.6522980
   0.7641140  36.0073304  82.2035694   1.3622540  36.3291407  80.8509159
   8.4005523  29.3988228  64.7460508   9.2793971  29.4926739  65.1135492
   8.0881482  28.5593891  65.0836658  25.8101463  34.2440104  61.4111900
  25.3137732  34.4850516  62.1933317  25.5936193  34.9224281  60.7715845
  32.6446379  94.4689037   8.4186527  33.1028820  93.6500766   8.2295296
  32.9783816  94.7379996   9.2744801  35.0869012  28.9626551  95.7908535
  34.5522308  28.4736633  95.1653576  34.5737839  29.7477055  95.9822655
  42.7862787  23.8368630  53.7008905  42.3309994  24.6773839  53.7507010
  43.1740808  23.7227392  54.5685387   4.9516073  20.4640841  90.7046509
   4.5722079  20.9647632  89.9824238   5.8213401  20.2146459  90.3922749
  26.6438913  34.1194701  88.5356903  26.3972354  34.9980593  88.8246155
  26.3002467  33.5387874  89.2146206  25.4476357  61.6939783  61.1389971
  24.5008993  61.7810869  61.0279417  25.6326056  62.1317482  61.9698858
 116.8484308   8.0784005  57.2315264 117.0850919   7.5781912  56.4504910
 117.6774013   8.4407151  57.5442028 117.2707591  36.4148283  44.7280216
 117.7930614  37.1242356  45.1024151 117.4592285  36.4478683  43.7901402
  94.4886190  77.9856731  19.3805859  93.8357288  77.7178837  20.0273106
  94.2057592  77.5674702  18.5673687 105.1193483  29.1284800  50.2711535
 104.7260637  28.2727313  50.1001167 105.0812061  29.2237020  51.2228441
  49.4837243  18.2014613  66.8428612  48.8989467  18.3862167  66.1079264
  49.4524879  17.2497516  66.9404125  25.3384209  52.5768661  53.5871553
  24.4355273  52.8910255  53.5390043  25.2614427  51.6229582  53.5680771
  22.2296715  18.5669625  65.9637451  22.9718089  19.1085851  66.2322712
  21.6117692  19.1843915  65.5723238  14.5217025  43.9775562  44.0754700
  14.8098934  43.6997128  43.2059956  15.0726008  44.7330570  44.2803192
 113.3114140  82.1351910  73.7529945 113.0707969  81.3053894  74.1650248
 113.6976595  81.8830204  72.9142714 110.0999225  23.8131959  11.0404179
 109.4112004  23.7416703  10.3795216 109.8149765  23.2336957  11.7469761
  15.8918321  40.4380035  72.1877575  15.1563311  40.1036406  72.7010536
  16.5094137  39.7076464  72.1502924  20.9380245  31.4973187  31.8269372
  20.7720494  31.9245315  30.9865952  20.6035066  32.1131635  32.4789071
  22.5978923  58.5933495  52.6920033  23.0368376  57.9801559  53.2815409
  23.3002830  59.1551304  52.3644733   6.0405934  64.2176533  64.1679955
   6.8642223  64.0142775  64.6112823   6.1936927  65.0682783  63.7566185
   4.2304820  83.2238770  64.2429876   4.8931232  83.6795139  64.7621489
   4.3447348  82.3001289  64.4662905  12.0454514  39.4190955  71.1259413
  11.4555705  38.8093185  70.6827211  12.9222000  39.1341758  70.8683300
  82.8118957   3.6113746  16.9188568  82.1871499   4.2591149  17.2449753
  83.0413068   3.0910451  17.6888344  49.8318291  34.6719956  64.9810123
  49.4863176  34.8608446  65.8534765  49.9200726  35.5306602  64.5673227
  23.2560682   5.4799044  95.5976391  22.4763393   5.9993690  95.4016495
  23.7699533   5.5053794  94.7904873   5.3328663  50.9367466  84.9786377
   5.3578299  50.4295206  85.7900143   5.5130303  51.8360043  85.2526951
  23.0984020  42.7785158  70.2765703  23.5095239  43.4579039  69.7421217
  22.8520560  42.0976353  69.6505117   7.2761267  88.9500046  64.7781515
   7.8582901  88.4790516  64.1818905   7.7250266  88.9219379  65.6230974
  15.5160415 102.7367878  56.4545202  16.3715041 102.4915123  56.8070126
  15.1898921 101.9380856  56.0398769  14.3633526  15.6259543  17.7967712
  15.0980919  16.2315232  17.8951618  14.6941727  14.9402482  17.2166035
  41.2558460  77.7380753  68.5527992  41.1003065  76.9029903  68.1115818
  42.2034025  77.7660561  68.6854219   9.9953443  10.0403452  62.7326012
   9.4291627  10.4741251  62.0942354  10.6848061   9.6363163  62.2056913
   2.8363445  32.4030924  74.3514252   2.9264992  33.3006334  74.6716166
   2.2268361  31.9905543  74.9634218  39.0808630 108.4498596  41.8448019
  39.4413280 107.9755402  42.5940180  39.6485162 108.2084656  41.1128664
  74.1386301  92.4784900   5.1286003  74.9479539  92.6671220   4.6535751
  73.4447057  92.6172473   4.4840500  55.5855608  38.1936646  54.8310852
  56.1152554  38.1612778  54.0344667  55.2604389  37.2998667  54.9390316
 116.7912675  63.4687090  80.7480145 116.2804268  63.8365555  81.4690971
 117.5015061  64.0960932  80.6131840  43.6630058  46.3459301  53.9072895
  42.7988720  46.7110729  53.7170935  44.2200565  47.1110344  54.0506363
 113.9389177  81.1927032  48.7309885 114.4787644  81.5613365  48.0317688
 114.5555465  80.7072544  49.2790174   0.5377990  91.0572338  66.2742233
   1.1406167  90.3382587  66.4637423   0.8688790  91.7904282  66.7929268
 107.2715111  70.7851553  74.3259430 107.4424703  71.7267752  74.3072128
 108.1273861  70.3833199  74.1768122 113.4211989  57.2140312  64.4349337
 114.0926631  56.7370892  63.9471912 113.5390876  56.9328117  65.3422689
 103.7047596  45.9622669  24.4032121 104.6558840  46.0632753  24.3659210
 103.4309097  45.9327364  23.4864974  51.5047407  43.5092115  52.4049282
  50.5803871  43.3855343  52.1892738  51.9700861  42.9197025  51.8114901
   9.5555627  62.5434446  90.0721169   8.6897653  62.9508448  90.0465584
  10.0497401  63.0703115  90.7001495 116.5811433  30.0435710  83.1020927
 116.2517846  29.3096972  83.6209202 116.7280561  29.6743798  82.2312641
  18.2288420  50.3519106  67.8539848  18.5060883  51.2303114  67.5936556
  18.6379755  50.2150106  68.7084436  53.4054393  87.0916130   1.5754387
  53.4758932  86.2188460   1.9621536  52.7522797  86.9945265   0.8824799
  41.8290949  84.3042660  58.5206032  42.4318933  83.7845516  59.0523481
  40.9585476  84.0115833  58.7902689   4.2172804  22.6887274  71.7616606
   4.2270249  21.9892168  72.4149799   4.8159742  23.3496547  72.1094751
  22.8639817  36.1296964  59.4249105  22.2580576  36.4111924  58.7394571
  23.1640005  35.2666259  59.1397285   7.5528049  50.1534653  34.8173285
   7.6268375  49.2019129  34.7444773   7.4707729  50.4572248  33.9133215
   2.1204427  68.5551882  89.7531605   2.7367654  67.8358746  89.8908901
   1.4847404  68.2092762  89.1267014  17.5278413  69.3205261  62.4996614
  16.9529116  69.3452215  61.7347574  17.7472889  70.2376175  62.6640511
  48.1005204 103.8533928   6.6557858  47.8624529 104.5956661   7.2112820
  48.3358342 103.1592561   7.2714397 118.0603270  76.0829210  89.4578838
 117.5476989  76.3210154  90.2303791 118.8625025  75.6988716  89.8117924
   6.7386651  94.7452354  79.3087673   7.1511096  93.8823795  79.3486929
   5.8905864  94.5863819  78.8943291   9.7976857  38.2802129  74.4409323
   9.2543310  37.6947284  73.9134836  10.5151677  37.7272558  74.7502756
  17.1005893  59.3322229  77.0559406  16.5245199  60.0941610  76.9940615
  16.5336394  58.6282730  77.3709869  16.2365735  79.7916317  66.0033512
  16.2084901  80.7069397  65.7246828  17.1607292  79.5503616  65.9404516
  42.6733923  60.1875544  94.0953064  42.5042391  59.3136215  93.7433720
  43.4481287  60.0778961  94.6466637  18.3662832  50.1717806  84.8948002
  17.8343999  49.8129845  85.6051445  17.8123438  50.8430624  84.4963455
  43.7934426 110.2692367  27.0714256  43.5373354 111.0304357  26.5506432
  44.6014828 109.9598457  26.6620609  48.0545652  74.5056166   3.9487335
  48.5987735  73.8749625   4.4202683  48.1384349  75.3165485   4.4503185
 117.8430976  51.1135530  36.0097289 118.2215802  50.2413559  36.1204267
 116.9016708  50.9582090  35.9334731  41.8449116  69.4039822  89.4065285
  41.4225340  68.6940718  89.8901176  41.6689968  69.2051363  88.4868813
  47.4921846  44.0383625  83.4527588  47.6752949  44.5851183  84.2167950
  48.3082151  43.5627413  83.2974815  30.3562665  39.8290682  42.1992636
  29.5708084  39.3544126  41.9272470  30.0273085  40.5447006  42.7432156
  10.7674313  22.1466851  86.4073944  10.1212847  22.6000500  85.8659267
  11.6039658  22.5438190  86.1650562   3.9513272  31.6700417  15.9257576
   3.4391707  32.3439366  16.3727448   3.2966345  31.0959393  15.5282471
  37.5808597  82.5829887  75.0784826  36.6828775  82.5874424  75.4099083
  37.8944039  83.4755516  75.2242899  12.3555338  71.2677193  83.7962341
  13.0959845  70.9664917  83.2697105  11.6653979  70.6260729  83.6282063
  25.1197338  68.1694508  86.7227268  25.8831882  67.8314161  86.2546539
  24.4044137  67.5874805  86.4660931  13.5717785  34.4154525   5.0095224
  13.4896958  34.1759706   4.0864071  13.0803263  33.7399292   5.4768276
  41.0518122  49.4674349  56.7099762  41.7476797  49.5064497  57.3660851
  40.6332731  48.6188745  56.8549156 112.1196385  45.8759928  77.4296141
 112.2678478  46.4851665  78.1529188 111.2123968  45.5909300  77.5386333
  28.7029505  61.7379236  63.2251549  27.9089022  62.0299101  62.7774191
  29.4019532  61.8723297  62.5851822  31.7102361  37.5304365  73.6753321
  31.7339706  37.0144653  74.4812107  32.5124979  38.0519176  73.7011003
  22.3747230  40.5417871  57.2210264  22.4114323  39.6568704  56.8579721
  23.1374645  40.5962896  57.7967787  34.3718505  75.6911707  58.2767439
  34.6627736  75.0377226  58.9128208  35.1781750  76.1154652  57.9834080
  31.1423635  69.7324991  89.0287304  31.7928815  70.4336596  89.0666199
  30.6052375  69.8616219  89.8104382  48.7701702  53.6767387  52.1270180
  47.8997040  53.9397812  52.4258947  48.9844465  54.3014812  51.4341831
   6.2952292  39.1495109  88.5828018   6.0285193  38.2718849  88.8564205
   6.3188779  39.1055226  87.6269054  23.0399728  54.2582989  94.9741936
  22.6320696  53.5020971  95.3960991  23.6060739  54.6326971  95.6491661
   0.7373337  58.9114714  63.1282139   0.1512908  58.1842375  63.3377838
   0.7113973  58.9724493  62.1733093  10.4045451  84.3020439  74.2001867
  11.0958076  84.4567394  73.5564041  10.6075656  83.4417915  74.5675850
   0.6941698  43.3511829  55.8222342   1.3048029  43.1458712  55.1142740
   0.1466114  42.5699568  55.9003401  18.7154329  51.5412855  59.5151520
  19.0233457  50.8597708  58.9176893  17.9113007  51.8680906  59.1116667
  15.3513825  72.8994417  63.6339331  14.7267115  73.6197090  63.5488844
  16.0166430  73.2294226  64.2378950  34.3371010  49.8948288  93.1502819
  34.6510291  50.0634956  94.0386677  34.9006486  49.1921186  92.8264904
  17.8893459  83.0162811  53.3948755  18.4364581  82.6738739  52.6880074
  17.1821964  83.4805679  52.9469776  27.4193358  48.3104658  62.5422239
  26.5893555  48.0080652  62.9108906  27.7691460  47.5475025  62.0820618
  38.3393478  93.0417728  85.4005337  37.8553843  92.7680206  84.6213913
  38.5874033  92.2223473  85.8286095  35.0274491  45.3995943  89.2789745
  34.3204689  45.1263332  88.6943913  35.0850034  46.3474369  89.1584873
  37.0283675  52.9754782  95.0424385  37.1648836  53.2871294  95.9371281
  36.5945148  53.7041616  94.5985699  16.3204300  52.9006624  65.4582739
  16.6540551  52.9232407  64.5613813  15.5842519  53.5124350  65.4554462
  25.3144312  44.8190212  20.6462932  24.6457148  44.2927504  21.0845757
  25.5966401  44.2804050  19.9070454 104.6799119  80.2208328  79.4006777
 104.4110162  79.3704367  79.0531921 104.6252175  80.8139133  78.6513424
  55.5297709  41.5198851  87.3669052  54.6841431  41.8360710  87.6849842
  56.1649466  41.8591833  87.9975128  28.7692189   4.6201682  72.4892902
  28.3678937   5.3848159  72.0763922  28.9260244   4.8910919  73.3938551
  51.2204599  41.5805864  71.5644884  51.9692183  42.1594572  71.7076778
  51.0345268  41.6565466  70.6285954 103.7220109   2.0025546   0.7408497
 103.4097947   1.8983561   1.6396782 102.9536713   1.8249614   0.1983139
  21.7992496  37.1138978  80.9393883  22.7510524  37.1086550  81.0407639
  21.5912485  38.0106688  80.6771564  26.7523766  97.7368355  58.7706900
  27.0922899  98.5993195  59.0090322  26.7603731  97.2415257  59.5897388
  36.9834924  34.0136528  65.2629423  37.9344964  33.9246249  65.3253508
  36.8061638  34.9050665  65.5632257  40.7037409  82.1322896  14.5345184
  40.1148870  81.8598677  13.8307640  40.2062776  82.7885129  15.0225040
 112.5073160  61.9190407  59.8374844 113.1003542  61.7354631  60.5660677
 112.4327077  62.8732300  59.8239660  27.7079708  99.9798061   3.8671085
  27.9082519  99.7274782   4.7684738  27.5351030 100.9200765   3.9143917
  11.8988562  42.1477318  63.7445641  12.4634707  42.6696920  64.3146563
  11.0795665  42.6408958  63.7023115  88.2272638   4.0484006  25.4514763
  87.6910503   4.4026620  24.7421047  88.7620760   4.7880513  25.7397911
  23.8928199  50.6389380  32.7336287  24.8144531  50.7745028  32.9537344
  23.4208322  51.2649202  33.2828140   5.5181909  37.9175949  69.0330601
   4.9703202  38.6474848  68.7443924   4.9767724  37.1410513  68.8913679
  10.3771329  41.5658379  91.5640736   9.6662855  42.1079636  91.9061661
   9.9468845  40.7610369  91.2752724   7.8154624  79.0137243  59.0536737
   7.3994029  79.4510651  58.3108044   8.6664468  79.4436264  59.1387701
 113.6810316  84.9401474  94.5485973 113.2664700  84.1210365  94.2776489
 112.9869248  85.5952835  94.4761753  40.2572918  82.5011539  89.4241238
  40.6483030  83.3325386  89.6927166  41.0053444  81.9343281  89.2360878
  31.3304901  35.8661056  88.8892746  31.2190604  35.9014177  89.8393154
  30.5472350  35.4159975  88.5728168  21.6185713  58.6616707  46.8657827
  21.1491728  58.5537577  46.0385895  20.9284973  58.7644482  47.5211191
   6.3119429  55.8015871  74.4584322   5.9915888  54.9539518  74.1500139
   5.5404443  56.3680410  74.4463205  33.1571293  71.6790867  69.5904922
  33.9310193  72.1066523  69.9572515  33.0274916  72.1045685  68.7429142
  43.6906767  15.5506372  57.5263786  42.9234934  16.0810924  57.7415180
  43.3420706  14.6697235  57.3896408  38.4553456  32.4465656  51.1484909
  38.4088635  33.4025717  51.1596918  38.5990620  32.2245193  50.2285624
  10.4837954  39.6910954  95.0895882  10.9121418  38.8360095  95.0498295
   9.9510813  39.6554112  95.8840466  80.4318601  85.9500195   8.7514374
  81.1513359  85.4080798   9.0753147  80.8264763  86.4856841   8.0632755
  37.2755790  55.7292271  58.5035992  37.9611635  56.1375618  59.0322495
  36.9409752  56.4390993  57.9555559  18.6324775  70.7913065  58.7922859
  18.9986992  71.6755629  58.8065100  17.6968598  70.9220076  58.6381149
  14.8974490  41.6854763  86.1941624  15.3338170  42.3353434  86.7450619
  14.5892739  42.1821785  85.4361725   8.5701472  97.3161221  83.1974125
   9.1387975  96.5647697  83.0290604   8.5759366  97.4122429  84.1497517
  34.2673302  49.6753693  50.0146198  33.4660816  49.8951864  49.5393133
  34.6661329  50.5218697  50.2161694 107.5200553  51.6899776  46.0721970
 108.2251544  51.0967445  46.3313150 107.9686303  52.4345064  45.6713390
  31.9578624  81.8160915  66.2306833  32.8803897  81.9029617  65.9906244
  31.4854622  82.2759914  65.5367374  18.2741559  59.1183138  42.2834826
  18.9827478  59.1224098  41.6399670  17.5381184  58.7111092  41.8266821
  20.3297448  37.4633980  40.4601479  19.9116039  36.8405175  41.0546303
  20.2769804  37.0462084  39.6002650  16.1021483  81.2133980  62.3893595
  16.6605592  80.4919243  62.0997334  16.6337073  81.6851997  63.0305147
   2.5676674  85.7982731  66.7526436   2.5262514  84.9967480  67.2742510
   3.3148721  86.2781715  67.1098757  13.0295455  48.5334349  66.7155218
  12.1051335  48.5497522  66.4676809  13.4916449  48.8456059  65.9375477
  36.5066481  60.0704288  59.2396402  35.7204342  60.6164169  59.2393017
  37.0911121  60.4925394  59.8692846  11.1386728  63.9453840  61.1702108
  11.5725207  64.0742779  60.3267717  10.2071154  63.8971710  60.9554863
  33.9368987  68.5325003  82.8700733  33.8622999  68.4493876  81.9194126
  34.3512797  67.7163363  83.1500721  24.1556072  47.1723223  72.6313353
  24.0584445  48.1220436  72.5619555  23.5807228  46.8223858  71.9506884
  17.1740389  36.5380979  76.4426804  17.1729457  36.5154529  77.3996115
  16.2526381  36.6406155  76.2044764  47.9961360  87.7615167   4.2607472
  48.5503239  88.3434536   3.7406895  48.5144639  87.5730993   5.0430939
   9.1433436  59.8628283  44.6333933   9.2538899  58.9783716  44.2844677
   8.2085377  59.9282026  44.8285723  34.2541432  53.3226585  58.9896250
  34.4366550  52.7511311  59.7354650  33.8287568  54.0892744  59.3737841
 101.4371021  51.5266132  71.8979788 101.2731214  51.2742710  72.8066397
 101.3478704  52.4796391  71.8942308  18.4172511  62.2001123  53.9205456
  19.1627073  62.5898409  54.3773174  18.8118517  61.6531944  53.2412815
  38.9249439  94.6062519   6.5021393  39.7443786  94.7717382   6.9683716
  39.1217537  93.8669063   5.9269306  20.6366897  54.9405670  55.2857447
  20.9510207  55.6226492  55.8792019  21.4333439  54.5467949  54.9300528
  18.3829641  45.1464176  47.6508808  17.7691162  44.5586300  48.0912542
  18.9089572  44.5710230  47.0954704  49.9360425  88.6239053   9.5524284
  49.9733395  89.5421745   9.8200485  49.4256133  88.1948330  10.2391502
  29.0248919  69.1449118  84.6152496  28.4877586  69.3747807  83.8570404
  29.7468996  69.7730780  84.5965767  17.3444200  30.3471684  51.4861774
  17.7430618  31.1724973  51.7621231  17.3110592  30.4047632  50.5312967
   6.1418599  88.1812096  85.4180241   5.5762714  88.5102272  86.1166573
   5.5360895  87.8921700  84.7355843   3.4458130  55.2498395   1.6274998
   4.0129822  55.9289414   1.2623093   2.6435917  55.7124669   1.8696758
  96.7277045  31.0935974  72.5849771  96.7638107  30.7821655  71.6805792
  95.9432478  30.6829166  72.9485750 110.2110369  65.8016443  79.9347496
 109.4461824  65.2324963  79.8493290 110.9449901  65.2623177  79.6403503
   4.9745157  39.9296355  58.6172342   4.0977621  39.6046042  58.8219070
   4.9903697  39.9907875  57.6621246  41.6316700  39.6570182  75.9127474
  41.3503075  39.8330784  76.8105602  42.5558615  39.4211769  75.9932661
  30.0215387  49.9550819  60.0805140  30.2203465  49.0261602  60.1980305
  30.1784062  50.1177883  59.1503811   7.8646451  15.8372366  69.9616766
   7.5952876  16.6814971  69.5998716   8.2750016  15.3816187  69.2266607
  39.9395633  52.3507071  95.0289249  40.0226021  51.4489794  95.3391171
  39.0270686  52.5810289  95.2036572  34.1307831  87.9946613  59.3358088
  34.7580171  88.6620426  59.6140480  33.7217569  87.6968002  60.1483393
  52.0331478  80.2143478  95.4475403  52.0990467  80.5689335  94.5608807
  52.2454262  79.2860317  95.3506374  37.2839928  84.2053699  82.8096676
  37.7839804  83.9904976  82.0222187  37.0219803  85.1175976  82.6855278
   9.1440737  39.7397089  64.6493673   8.3387434  39.3072724  64.3653393
   9.0372497  40.6500340  64.3734503   2.1692285  85.1776981  88.6678600
   2.4292952  84.7300339  89.4729614   1.5380016  84.5861912  88.2581043
  47.5121075  73.4843709  17.0552322  46.7831582  73.8772322  17.5353691
  47.4224413  73.8230719  16.1644623  18.5921490  66.6316414  84.5262337
  19.4640458  66.2652445  84.3786526  18.6932588  67.5676394  84.3532562
  27.9156399  75.5783367  92.9010296  28.2883954  75.8487749  93.7401676
  28.2358837  74.6853781  92.7733517  21.9331884  80.6016254  65.1885271
  22.6701140  80.7400799  65.7835054  21.4186692  81.4061737  65.2532387
  82.4980957 103.5760023   3.7456677  81.6629249 103.9905407   3.5291550
  82.3808319 102.6583482   3.4999153  40.4958344  53.6449480  90.4556751
  40.7421827  53.5753441  91.3780117  39.5521903  53.4846640  90.4470539
  21.7535710  45.4447126  52.1714497  21.1101532  45.7192850  52.8247929
  21.2288094  45.1060772  51.4460659  44.8954153  22.6624346  77.8965521
  44.6857309  21.7519999  77.6882887  45.4988241  22.9335332  77.2047186
  42.5041771  15.6979012  94.6289062  43.0700302  16.4284205  94.3791389
  41.6748905  16.1095297  94.8719788  13.0834472  33.8593578  75.6493998
  12.9055059  33.1470680  75.0352240  13.1414616  33.4305382  76.5032005
   1.1392238  12.4830580  58.0486250   1.3668005  13.3972526  58.2180023
   0.7994948  12.1620810  58.8839626  52.8598792  72.6015379  15.7389423
  52.8909857  71.6448452  15.7371017  53.3774919  72.8565373  16.5026733
   6.7909664  25.7724738  39.7978306   6.6033316  26.6602993  40.1024437
   6.6890585  25.2254772  40.5767012  33.6420012  59.7528839  27.9360700
  33.4646082  58.8134956  27.9841566  34.4556499  59.8176956  27.4360657
   6.6391706  37.8634453  71.9354773   6.6213846  38.7015414  71.4734030
   6.0840613  37.2879815  71.4092398  11.5783489  92.4310970  81.8897724
  11.7701113  93.0051041  82.6313686  12.2552538  91.7554283  81.9285679
  10.2307248  32.4463892  75.3706646  10.9299958  32.3768544  74.7207260
   9.9597275  31.5420365  75.5285883  28.9014149  42.6384211  79.3334579
  28.5699773  42.2586632  80.1471901  28.7561131  43.5794163  79.4316816
  16.0123301  51.3893890  38.2611251  15.9728312  50.4344511  38.2085061
  16.7534184  51.5668964  38.8403583  22.1427774  74.6203423  81.0091019
  22.6625419  75.4051590  80.8355045  21.2347865  74.9205494  80.9683704
  44.3040991  45.4041004  69.2068672  45.1845646  45.7592344  69.3289089
  44.4329691  44.4570684  69.1543961   8.1268549  26.7601776  31.0430384
   7.7676153  25.8791304  30.9384847   7.6572704  27.1227169  31.7942286
  51.5206385  25.5324864  54.7716951  50.5646563  25.5754447  54.7497654
  51.7192602  24.5968509  54.7347546  44.9169207  57.5060511  81.3468456
  44.8662233  56.7689514  81.9554043  44.2316246  58.1064749  81.6402626
  10.4331946  53.8252020  76.2376356  11.0973024  53.8023996  75.5486727
  10.8608866  54.2725134  76.9678545  17.1909070  23.6298156  83.7298012
  17.1754742  23.8656592  84.6573639  16.9645977  24.4399095  83.2728958
  21.4613628  62.4842882  80.2206993  21.8316221  62.5362206  79.3395376
  22.2184157  62.5493622  80.8028221  16.5116417   9.2228752  92.8429985
  15.7347965   9.0412277  92.3140812  16.7070699  10.1443529  92.6729488
  22.1283793  38.5534787  72.1269655  22.7980113  38.8539863  72.7413940
  22.5622177  37.8710699  71.6147804  96.4396311  19.3784243   5.3946850
  96.9961585  19.3727547   4.6159145  96.4793206  20.2810246   5.7108566
  23.8111043  43.3962440  80.7175446  23.1768799  43.5312080  80.0134277
  24.5682955  43.9231682  80.4621124  27.1712351  40.2202845  56.3281536
  26.6957808  40.8303261  55.7642174  27.1021700  39.3769574  55.8806515
  23.5907626  77.0849085  74.6891785  23.5702682  77.9662991  75.0619555
  24.2712116  77.1248484  74.0171480  21.3661122  91.8189716  77.1041489
  20.5293036  91.3542366  77.1054506  21.6035914  91.8820858  76.1790228
 117.9195039  46.9662380  62.8632021 117.1187480  47.2505140  63.3038950
 117.6140011  46.4095545  62.1469593   2.7624306  51.1796618  76.4318705
   3.3254725  50.4143906  76.5483856   2.7001622  51.2889576  75.4829693
 116.2863576  66.3812733  71.4933968 115.8977923  67.1975279  71.1787939
 116.9505005  66.6596127  72.1240091  15.1995885  48.9387417  59.8901749
  14.6758258  48.1640911  60.0946569  14.6378076  49.4641399  59.3204451
  50.7059545 107.8722479   2.9375431  49.8070461 108.2009222   2.9504940
  50.9024221 107.6759674   3.8535759  12.9763556  29.6569347  43.5266113
  12.4657869  29.1260600  42.9152822  13.3045101  29.0304279  44.1716194
  44.3479347  37.4187446  51.0708857  44.8215437  37.0119119  51.7964268
  43.7341261  36.7452192  50.7779074  13.2458520  43.5005808  65.4677677
  13.5428822  44.3584013  65.1642036  12.9464960  43.6540985  66.3638973
  39.5367551  47.6399088  89.4106483  39.0414310  47.1845818  88.7298012
  40.3756523  47.1801949  89.4445133  42.4430696 104.1437389   7.4486610
  43.3303100 103.9136841   7.7245400  42.1697560 103.4161760   6.8899223
  10.6227446  52.4152279  81.4516544  10.9944475  52.4581623  82.3326874
  10.1053953  53.2164907  81.3706589  20.9451628  63.2298374  72.4930429
  20.7036972  62.3426533  72.2269106  20.1859164  63.7645292  72.2609186
  57.6507044  35.0164366  59.2348814  58.2867146  35.6571960  58.9168406
  56.9363737  35.0519156  58.5987139   4.9580789  71.4896393  76.7616224
   4.1927761  71.9119501  77.1517467   5.6106901  71.4825821  77.4618196
  23.3369684  46.4279079  67.4702501  23.0699587  46.6524506  68.3616114
  22.8136969  45.6571198  67.2504711  19.1377342  65.0357342  71.3022280
  19.7803319  65.7431984  71.2493801  18.6364019  65.1063538  70.4898834
  50.8667231  36.4809704  63.2816124  51.6016531  36.1723852  62.7516222
  50.1068544  36.4055061  62.7044296  25.9052563  54.0448427  70.8434296
  25.2336907  54.6475315  70.5240536  26.0874629  53.4725285  70.0981236
  15.4371941  42.0775652  64.7497225  15.0150335  42.1651173  63.8951159
  14.7149098  41.9258261  65.3592396  24.0091467  61.6345406  89.3107319
  23.2407832  61.4201355  89.8397636  23.6728024  61.7047501  88.4173203
 100.5256284  60.0107056   2.6896069 100.1445330  60.0255639   3.5675404
 100.4540456  60.9143311   2.3820946  38.8937211  44.1530371  60.4197598
  38.2891917  43.4748173  60.7210732  38.3369088  44.9137974  60.2541304
  30.2864122  41.2973738  72.8176308  29.9652386  40.3957701  72.8315258
  30.7380199  41.4036894  73.6548710  16.5099871  60.1506996  61.9147825
  16.0974407  60.8910561  62.3596573  15.8712983  59.8819447  61.2544203
  41.7062473  70.8616400  82.1387863  41.9824123  71.5669727  82.7239895
  41.2252092  70.2565527  82.7033234   0.8078013  66.9310188  53.5448408
   0.3266665  67.2895908  52.7990723   1.5005326  66.4010477  53.1505251
  46.5034533  92.4708652  70.1600122  46.0347557  92.4969292  70.9942055
  45.9229374  91.9850063  69.5741940  44.3029308  82.9615307  96.0992241
  45.2578878  82.9018784  96.0722256  44.0295458  82.8397179  95.1900196
  31.1675382  70.6988239  93.7375355  31.9036508  71.1176014  94.1836262
  30.7503963  70.1646185  94.4134426  13.4853017  62.8008080  82.5246906
  14.2270553  63.2955027  82.8729916  13.7456083  61.8840408  82.6142025
   7.4514681  82.8886318  47.6746559   6.6089129  83.2981396  47.8712130
   7.3959708  82.6599503  46.7468309  22.8961372  40.3290749  69.1384792
  22.7749920  39.3924713  68.9824963  23.7831354  40.4003906  69.4911575
  31.1005783  84.5904160  86.1458492  31.8838644  85.0760746  86.4043522
  31.4138126  83.9566898  85.5004692  20.7549334  72.6482725  69.8235893
  21.0227561  71.7973328  69.4766045  20.7913661  72.5415611  70.7741261
  17.0386910  48.8400126  93.1853008  16.5442395  48.7160158  93.9954758
  16.4076626  48.6570549  92.4892044 112.2282441  54.7851658  69.9803495
 111.3645799  54.3782282  70.0490284 112.0610829  55.6342936  69.5713568
  14.1295075  43.7078953  77.9497194  14.7835219  44.3830299  77.7688980
  13.2944667  44.1158772  77.7206087 102.8027983  92.4418163  50.0911951
 101.8778236  92.6440620  50.2317381 102.9176207  91.5702248  50.4698467
 105.2146233   6.6341216   6.5829536 104.7770394   6.0067994   7.1584770
 104.5093502   7.0049578   6.0525772  36.1966872  97.1757317  58.7446117
  36.4444876  96.2807655  58.5125446  36.6396594  97.3386192  59.5773602
  39.0723968  92.1188641  63.1123400  38.4594011  91.4721584  62.7627182
  39.2619944  91.8139553  63.9996481  22.1390104  56.2474632  84.9212551
  22.3357844  55.7380915  85.7074165  21.3163424  55.8803701  84.5977020
 113.0602272  47.0066166  82.5271797 112.2700663  47.4466038  82.8406906
 113.2043560  46.2977314  83.1540298  32.8132987  53.6208582  82.2859764
  32.4311566  53.0232191  81.6433048  32.3422694  53.4327126  83.0977440
  32.2122002  64.4216824  80.1689529  31.9860816  65.1897097  80.6935787
  32.7750850  63.8988590  80.7399559  34.9324417  92.0547962  43.3254004
  35.6067705  92.6566315  43.6405325  34.2554331  92.6240158  42.9594994
  36.6330528  83.1112862  95.7850742  37.4533343  82.6358795  95.6533146
  35.9800124  82.4266052  95.9299088  77.6717335   2.0783382  64.8660135
  77.1350176   2.7255111  64.4084883  78.2228190   1.6976791  64.1821766
  58.0433029 108.4452440  16.8360779  58.4883172 108.3397247  17.6769516
  58.6383850 108.0501129  16.1989090  46.0926342  95.8369637  95.0895882
  45.7954454  96.1910915  95.9277439  46.4359188  94.9696064  95.3042316
  36.6341686  70.5010700  85.3773022  36.1193943  69.6985817  85.2921486
  36.1492014  71.0306883  86.0101891  25.7537079  93.8695335  60.0352621
  26.6189551  94.2624187  60.1502514  25.7077765  93.6601925  59.1023636
  24.2755675  26.5942407  66.1322165  23.8252878  27.2738719  66.6337967
  25.1917243  26.8713450  66.1221266   6.0612047  65.0135469  75.2815247
   5.4880112  65.7774878  75.3453684   6.9293189  65.3790379  75.1111555
  19.5721841 100.2960682  65.3442955  19.6799076 101.0893631  64.8195887
  18.6386657 100.0934601  65.2832508  96.5374661  37.7907712   0.3221962
  95.8141054  37.2721249   0.6743214  97.3237742  37.3045213   0.5702278
  17.0126009  66.8670940  73.1481886  16.2221861  66.8142939  72.6108885
  17.6605034  67.2847366  72.5807095  50.9795570  67.2091150  71.5798569
  50.8997488  68.1604528  71.6492414  50.7718086  66.8867350  72.4568653
  29.8187733  58.5452509  33.6718750  29.1859126  58.1913567  33.0469918
  30.3179479  59.1886711  33.1688213 112.1966947  14.7967488   1.1905357
 113.0662311  15.1332290   0.9739277 111.5927161  15.4552848   0.8473560
   3.8687778  87.9412556  78.3449316   3.6581615  87.1802807  77.8038263
   3.7059000  87.6497364  79.2419910  21.6314793  45.0689077  84.8669624
  21.0034466  44.7346497  85.5073357  22.3826337  44.4799042  84.9381828
   3.7091607  23.1530738  62.7353287   3.6221704  22.5936532  63.5071516
   2.8083742  23.3214545  62.4588108  40.1593590  61.8560362  89.0234280
  40.0860977  62.4363136  88.2657051  40.3815508  62.4379969  89.7501850
  23.3489203  85.4429245  48.6934614  22.4255896  85.2743053  48.5056782
  23.6743522  84.6183681  49.0546179  87.7591497  92.3406936   2.4007771
  87.7913028  91.8897297   3.2444737  87.2664720  91.7493440   1.8317387
 108.9293368  58.3632326  66.4002562 108.0077942  58.6219788  66.3936806
 109.1546382  58.2561350  65.4761362  47.1764708  79.6356249  68.0451012
  47.3212051  78.7562609  67.6958084  46.6579103  80.0779438  67.3730230
  37.6058125  62.2601652  77.7529955  36.9250441  62.9324484  77.7815771
  37.7465773  62.1013689  76.8196106  11.2241286   1.8433625   4.2313549
  11.8051642   2.3780448   3.6902973  10.4680126   2.4058778   4.3989822
  29.4961613  19.4524390  20.3937981  30.3179711  19.3071229  20.8625671
  28.8156288  19.2236764  21.0268662   5.9986335  87.9610252  43.5513735
   5.2960229  88.4853840  43.1671572   5.6402785  87.6537895  44.3840885
  54.1010088 100.6918050  19.3959305  53.1736523 100.8808710  19.5390961
  54.3655032 101.2994911  18.7052891  31.2541842  60.3953171  84.8531532
  30.4100442  60.8450794  84.8161602  31.3456774  59.9865007  83.9925003
  41.1702681  55.8412695  86.7163944  41.6714096  55.2838516  87.3116970
  41.5935612  56.6976595  86.7768383  11.4852571  28.8059688  48.8782644
  11.7415595  29.1282248  48.0141497  11.0466933  29.5499897  49.2909670
  23.2128668  94.0158749  95.3797245  23.5059881  94.3721771  94.5410538
  22.4788427  94.5750999  95.6341171  98.8557369 100.9825613   6.3529560
  99.2462188 100.1090147   6.3789532  97.9783565 100.8422233   5.9969494
  17.2731400  58.0645418  88.2090569  17.1281981  57.8561068  89.1319752
  17.9141974  57.4173164  87.9151535  28.9025187  38.6535311  69.8691177
  29.0495968  39.2931390  70.5659008  28.4715557  37.9186940  70.3056049
  33.1988955  37.8832197  79.9999714  33.1742239  36.9647169  79.7316885
  32.4134374  38.2676172  79.6107101  41.0747957  80.6931496  58.3409166
  41.4819145  79.9810696  58.8343000  41.8100786  81.2272930  58.0404329
  30.2179050  89.4147587  52.3352814  30.2767062  90.1938057  51.7822313
  29.5347238  88.8825703  51.9275236   0.4645842  14.5731122  22.2771618
   0.1609581  14.6543032  23.1812927   1.3491982  14.9385888  22.2878429
  34.3763542  64.1563463  65.3972864  34.1861224  64.2257118  64.4617462
  33.9848447  64.9414301  65.7801628  57.6652384  70.6976318  83.4473705
  56.9361448  70.7390261  82.8285503  57.8632498  69.7641230  83.5221004
   9.3380380   2.0245558  79.6508551  10.1362920   2.4487269  79.9656582
   9.3416226   1.1648984  80.0718117  17.9982936  99.5411396  54.0001535
  17.7812493  98.7212753  54.4439459  17.2153568 100.0825310  54.1008186
  95.7004863   0.6364970  34.8549080  95.0473720   1.3341003  34.9097776
  95.2158100  -0.1622720  35.0629807   4.2321712  39.7545791  80.8451939
   3.2818997  39.6843505  80.9362030   4.4845918  38.9708734  80.3570080
  29.1803193  42.7926731  47.3162270  28.8760376  43.5323524  46.7903709
  28.3778811  42.3755932  47.6298571  29.0212584  88.1940651  48.0247736
  29.7061491  87.6419353  47.6475286  28.4946179  88.4688568  47.2741938
  17.8096700  75.5671453  61.8486691  18.0503154  76.0972691  62.6084661
  16.9005990  75.8062792  61.6680050  43.7949800  96.3785648  63.7319517
  44.1184235  97.1842575  64.1350460  43.2825947  96.6758823  62.9800892
  40.1135826  68.3161783  80.5533314  40.3183603  68.8118267  81.3461876
  40.2651024  67.4027491  80.7960606  72.4535513  69.9494267  76.4400434
  71.5035200  70.0576782  76.4842749  72.6496458  69.2833424  77.0989180
  10.4159033  22.1206665  68.5795450   9.5331299  21.8239164  68.8006401
  10.6703424  22.6819992  69.3119383  41.1137533  58.5248518  61.2968016
  40.9404373  59.2559767  61.8898058  41.5082550  57.8533983  61.8533516
  48.8132381  55.0585794  66.8850422  48.0823374  54.4406557  66.8988609
  49.5665836  54.5325184  66.6167879  41.3092613  86.4571857  72.2661734
  41.4502192  85.5613232  71.9598961  41.1876202  86.9676399  71.4656353
 104.8293770  51.1755902  21.3049290 105.2957858  50.4645211  21.7443249
 104.4336022  51.6783292  22.0168659  36.8028021  42.2191906  92.5645828
  37.6988554  42.1684074  92.8973579  36.7292619  43.1047678  92.2088051
   3.6732697  87.5079155  88.4100151   4.6201563  87.5638962  88.5384750
   3.4361252  86.6448975  88.7494183  16.9696259  51.9371748  76.9485092
  17.1858716  51.7850018  76.0285568  16.0829628  52.2973251  76.9297266
  56.2497443 107.6472618   2.4915192  55.3159720 107.4368431   2.4964687
  56.4007515 108.0863668   3.3285496  89.7911108  13.9047438  10.4933521
  90.6267334  13.7515361  10.9343693  90.0099278  14.4765097   9.7575352
  32.7395511  48.8267279  74.3407822  32.1347857  48.0857420  74.3029737
  32.1787596  49.5856237  74.5014763  10.1710331  58.5917187  38.1769824
  10.8756518  58.3240271  37.5869942  10.3103018  58.0711460  38.9680862
   9.1587472  53.2796621  64.6861839   9.4478935  54.0432835  64.1866684
   9.7502846  53.2472563  65.4380226  88.7173921 102.6851894  12.9727623
  88.9952451 102.6734211  13.8886711  89.0237171 101.8502666  12.6187965
   8.2706398  55.3579569  87.9262161   9.1837114  55.4288483  88.2046127
   8.1437814  54.4245052  87.7564716  58.9315462  80.6214714  53.3444118
  59.1085482  81.1191559  52.5461531  59.7518826  80.1637363  53.5281277
  29.2685938  63.1776857  70.3848553  28.6690545  63.0451202  71.1191607
  30.1409173  63.1254005  70.7754278  13.7643373  88.2736683  71.8442917
  13.1497109  87.7949333  71.2881708  13.8404810  87.7377510  72.6337385
   8.5830706  71.6926724   0.4565212   8.5663956  71.3068635  -0.4193237
   8.6447161  72.6352841   0.3018925  14.3966496  50.2412510  68.6064148
  13.8283145  49.5809746  68.2098532  14.8493218  50.6439161  67.8653526
  24.9934506  85.0573826  55.5539179  24.5049429  84.9122334  54.7436571
  25.6283712  85.7384777  55.3320551  20.1003385  79.9847078  62.5732136
  19.1936660  79.7748566  62.3492908  20.2715516  79.4854069  63.3717203
  39.8104358  84.2600536  69.5635319  39.3477702  83.7277508  68.9163589
  39.1576004  84.4336796  70.2416897  16.4819336  60.5436850  83.5548973
  16.5964878  61.2157011  84.2268276  15.6047571  60.1944637  83.7125015
  32.7237582  92.7223015  71.4682293  32.9729939  92.1762180  72.2138214
  33.4096432  92.5681782  70.8185816  52.2188568  79.2864895  72.0242262
  51.7006350  78.5822582  71.6346979  52.5449944  78.9179277  72.8452206
  14.6323514  94.5726681  56.4320374  13.8584721  95.1102257  56.2635994
  14.6384931  93.9321518  55.7207394  27.3274350  24.2788076  52.7361774
  27.5529933  25.1913190  52.5554037  27.5050783  24.1687012  53.6702776
 117.2271655  87.1894646  51.0927296 117.7406560  87.2538090  51.8979740
 117.1710320  88.0895424  50.7718897  29.4742012 110.0271606  44.2181540
  29.9908423 110.7986832  43.9856243  29.9321008 109.2975712  43.8007164
  32.5272155  78.9576626  64.7772551  32.5916600  79.6603155  65.4240656
  33.0253267  78.2346773  65.1585817  29.3485785  75.6984615  60.8514500
  30.0069904  75.6878519  60.1567459  29.2418218  74.7787619  61.0943270
  21.0281324  67.0929098  93.9629078  20.3677225  66.6225481  93.4541321
  21.0293078  67.9765940  93.5950279  10.2523267  54.9448395  48.2008171
  10.1389742  55.8757114  48.3928299  10.6279194  54.9258566  47.3205900
  48.5981226  71.9987869  77.4237394  48.3713436  71.4270258  76.6903257
  47.7628469  72.1763134  77.8562117  44.2598724  42.5422096  72.1180296
  44.2255449  43.4369183  72.4564743  43.5117197  42.4819708  71.5240002
 106.4241160  44.9186284   4.6879551 106.8205965  44.6623952   3.8552639
 106.3167537  45.8673722   4.6202251  43.9875412  95.8822346  72.7192068
  43.9162254  95.7899570  71.7691374  44.4793701  96.6937637  72.8447771
  36.7653370  39.8765445  69.2748117  37.2476721  40.6442308  69.5817947
  35.8470488  40.0872660  69.4438553  26.9287317  10.3738601  15.1511642
  27.0585268  10.4578788  16.0957977  26.9899338   9.4334132  14.9837086
  21.9118738  93.2011700  56.4424610  21.9090104  94.1084671  56.7474747
  21.4006591  92.7265263  57.0979023  28.3385682  95.2528095  60.5103683
  28.9659715  94.7206974  60.0210238  28.7487555  96.1158562  60.5663204
  52.1045542 111.2222290  72.1731901  51.4582682 110.6988239  71.6992807
  51.6111660 111.6199207  72.8905773  30.3159881  86.0911751  52.8553867
  30.1355982  86.7019176  52.1407604  29.4713664  85.9757042  53.2907152
  40.9064388  72.0813656  65.9744024  40.7348299  72.0634222  65.0328827
  41.6324854  72.6971579  66.0738325  25.8502364  88.8395309  49.4302750
  26.6310310  88.3600330  49.7071791  25.4811335  88.3089066  48.7242699
  28.1983709  81.0740471  85.6120110  28.6689138  81.5042400  84.8980427
  27.7414107  81.7854881  86.0606384 117.0526482  82.3604679  79.9096060
 117.5734859  81.6826057  80.3402519 117.6970430  82.9118347  79.4657803
  25.0319052  79.6909666  70.2270079  25.7446575  79.0919733  70.0047016
  25.1603675  80.4417229  69.6472788  75.0314496  52.1027142   3.3463451
  74.7278906  51.9383199   4.2391274  75.6187207  52.8542096   3.4276077
  18.4148109  56.7792797  69.3659735  18.9602709  56.0099697  69.5298767
  18.4723866  57.2901344  70.1734018  41.2301445  67.3975801  68.3692217
  40.9937954  66.5257549  68.6859035  40.4008722  67.7822685  68.0854082
  96.7030699   0.0767760  79.9115515  96.2072498   0.8228736  79.5743179
  97.5972301   0.4055934  80.0042248  69.2127991  78.3748722  71.1357117
  68.4299517  78.3273888  70.5869627  69.0487528  79.1121244  71.7237425
   9.3751079 105.3842831  52.1756554   9.1799164 105.3508759  53.1121445
  10.3191090 105.2351379  52.1222830  16.2463212  58.6160421  73.8057232
  16.8063545  59.3760014  73.9640236  15.3899097  58.8745451  74.1462660
  29.2544270  89.6954250  71.8328333  28.9099598  88.8095760  71.7194414
  30.1553011  89.5659637  72.1293116  37.7556992  51.3150358  79.1390371
  37.6720476  50.4362011  79.5090199  36.9121456  51.4786386  78.7172747
  15.5367768  58.1600714  45.0644636  14.6747553  58.5097361  45.2900410
  15.6249821  57.3740673  45.6035805  25.4296398  49.7946119  53.2895088
  26.0013175  49.3371487  53.9060640  24.6122408  49.2968035  53.3062124
   5.6253606  61.3955927  58.8457298   5.5400932  61.8033457  57.9839325
   5.3785449  62.0848989  59.4623137  11.5747833  66.8212986  90.5752945
  12.1535480  67.0392609  89.8447132  12.1680760  66.5970945  91.2922096
   1.1315077   4.2959363   8.3300182   0.7265824   3.9814717   9.1383335
   1.6762036   3.5660846   8.0353138  39.5013499  36.5683508  90.6796551
  40.4515076  36.6436362  90.7677841  39.1523695  37.0482135  91.4307690
  32.7991652  68.4717131  79.8523521  32.2693992  68.5468960  80.6460285
  32.2052956  68.0954885  79.2027378  12.8491580  73.3670616  69.8382807
  12.7279186  72.4193144  69.8957872  13.3858383  73.5865211  70.5998850
  57.2010517  88.3835125  80.3389454  57.5385809  89.2736912  80.4384041
  57.8622723  87.8289795  80.7530880  40.6536674  80.1849365  80.4797173
  40.8433199  79.5435524  79.7949600  39.8223424  79.8953152  80.8555508
  19.2692947  39.4322228  54.1401196  20.0665879  39.9591708  54.0864420
  18.6684310  39.9598718  54.6662188  51.7423391  58.9669228  58.5595798
  51.6572046  59.1890955  57.6324177  50.8445883  58.9762783  58.8915253
  57.7234411  74.5111418  74.5845842  58.1419992  73.8525391  75.1389122
  58.1646442  75.3299522  74.8107004  37.6051211  80.4206276  95.8777809
  37.8649879  79.6462917  95.3786850  38.2339716  80.4634190  96.5981674
  36.7627475 109.8594095   5.2433846  35.8245767 109.8096897   5.0600884
  37.1724448 109.3703081   4.5298264 118.3706264  55.4098177  59.5861912
 118.2675741  54.4964027  59.3191910 117.4929539  55.7832909  59.5059347
  29.6285176  72.4641418  69.0044117  29.0386558  72.8841448  69.6304226
  29.5936108  71.5343428  69.2291069  32.1238494  72.7449036  66.9239044
  32.3674655  71.9110823  66.5218830  31.2019038  72.6376772  67.1578932
  79.9260588  61.3972146  10.3699562  80.7899825  61.0771519  10.6296322
  79.9638808  61.4403970   9.4144795  13.2289267 107.5181389  38.1874180
  13.5308242 106.6125107  38.2575345  12.3291969 107.4466801  37.8686523
   6.9026077  92.2529125  72.9103804   7.4814612  91.6827393  72.4043512
   7.4898642  92.7331257  73.4941196  10.7119513  19.2319882  92.9087543
  11.1007965  18.3613813  92.9928684  10.8301592  19.4590104  91.9864178
  39.9533319  73.1970167  82.8413010  39.5993495  72.7223349  83.5933685
  39.3009710  73.0739498  82.1517277  55.8001632 106.6721060  16.3003037
  56.4153988 107.3979046  16.4048836  55.5901891 106.4052726  17.1952602
  64.1164351  82.9669857  91.5002251  64.1903687  82.4503613  90.6978130
  64.9288702  82.7903366  91.9745350  20.4635429  33.1655908  61.5895367
  19.7129810  33.6736512  61.8973732  21.2262011  33.6442780  61.9142580
 102.6830299  60.5390024  69.7544241 102.4583144  61.4609623  69.8798323
 101.8398471  60.0860167  69.7456312  23.1710315  80.7717228  71.9314957
  22.9379511  81.2837601  71.1570787  23.8089204  80.1329613  71.6132116
  37.3461080  55.4012442  76.6860294  37.8059840  54.6282291  77.0134306
  36.6043663  55.5087233  77.2814274  22.5908422  55.1682472  52.0690632
  23.4551692  55.5202866  51.8563700  22.3000908  55.6849003  52.8205681
 106.2513436  14.0631825   2.0249054 105.7018555  13.3214051   1.7717907
 106.7184866  14.2996318   1.2235901  50.6693172  51.3517570  94.8807335
  51.4378500  51.8850040  94.6776581  50.0109148  51.9820642  95.1730633
  14.4388020  86.9470692  77.7544928  15.0557876  87.2563171  77.0912218
  13.8709962  86.3348389  77.2865152  23.5326815  65.3854895  72.4240398
  23.0711317  64.9975538  71.6805935  22.8913450  65.3778267  73.1345749
  60.8962011  77.9045153  72.3743296  61.0937166  77.2304821  71.7240191
  59.9745083  78.1166792  72.2270203  38.0941057  49.1368198  68.0726624
  38.0990076  49.8477983  67.4317884  37.3284149  48.6110735  67.8412819
  28.8891530  63.2124519  80.0760460  29.4865155  63.4282160  80.7921696
  28.9944482  62.2691488  79.9522781  45.6682158  70.7773399  84.1553879
  45.9327126  71.2317514  84.9552536  44.7420979  70.9956121  84.0510082
  32.2180390  89.2887783  72.2915030  32.4413514  88.4319115  72.6550341
  32.5953102  89.2814445  71.4118195  21.5785456  74.0486526  66.1143875
  22.3082638  73.7170076  65.5911732  21.7014861  74.9978924  66.1223364
   3.5406244  58.4942770  64.1174316   2.7476203  58.5938740  63.5906887
   3.2408231  58.0772543  64.9251699  37.1772528  78.5307741  74.2317295
  36.3706589  78.3316946  74.7071314  37.6799703  79.0806389  74.8326874
  55.4187775  77.0222664  68.3428478  54.8423529  77.3133898  69.0494013
  55.5603170  76.0917902  68.5172272  19.0573883  85.6488514  87.7147102
  19.2881048  86.3379192  87.0916653  18.1433690  85.8243561  87.9383183
   8.0881089 102.5938225  54.9532032   8.7115973 103.2709980  55.2157450
   7.5126219 103.0290031  54.3241835  38.0754638  94.1571140  60.9313726
  37.3848462  94.5023918  61.4971161  38.3392549  93.3370399  61.3486528
  70.4792452 103.6845875  65.3332233  71.3316154 103.5806465  64.9102640
  69.8943186 103.1117821  64.8372555  39.8950601  50.4410887  64.4903612
  39.6324921  49.5267296  64.5963717  39.9013400  50.7932138  65.3804159
  30.6867409  67.0029545  84.8393345  30.0592494  67.7221346  84.7667694
  31.3538671  67.3272943  85.4442978  17.9252756  52.9442692  70.3818703
  18.3444893  52.1132421  70.6052208  17.0016456  52.7224779  70.2637768
 117.2178688  48.6610031  44.9685860 116.8049787  47.8406954  45.2384853
 116.6893516  49.3429184  45.3831863   3.7251306  53.8856840  56.8819857
   3.7910807  54.8401117  56.8511200   3.4748483  53.6919832  57.7853489
  40.1413202  69.2099667  65.2040958  39.2221737  69.4579649  65.3035879
  40.6185913  69.8359108  65.7487440  10.9301489  18.8971907  13.1214401
  11.4864891  19.6721560  13.0430100  11.5372484  18.1595284  13.0621407
  39.7089314  82.2493172  64.2092752  39.0508580  81.6916752  64.6242523
  39.2105150  82.9870701  63.8578033  22.3946636   5.2454764   1.6915581
  22.9398936   5.3317220   0.9095642  21.5414589   5.5900580   1.4278576
  16.9832408  67.8447247  58.4122562  17.4934173  67.1016312  58.7343788
  16.8674731  68.4060907  59.1788673  43.5384560  40.0944424  63.4499836
  43.6659050  39.5961833  64.2572784  44.1994286  39.7502828  62.8492355
  27.1408606  83.7803364  58.7229538  27.3599005  84.6122646  59.1426611
  26.2315941  83.8854408  58.4429169  32.8062558  58.6097860  90.1728916
  32.0925355  58.4360504  89.5591736  33.4100628  59.1702986  89.6855736
  85.0776083   3.5158115  74.6467590  84.9157221   2.6185088  74.9380779
  84.5297033   3.6174922  73.8684988  16.4495516  94.4583893  73.5390568
  16.9157982  95.0023842  72.9043007  15.5322409  94.7159290  73.4471655
  36.5357971  90.1125336  48.3788633  36.7629075  89.6574211  49.1897440
  35.7065940  89.7188759  48.1074238  21.3764405  39.4734001  90.6386757
  21.8517780  38.6463356  90.5595875  20.4530978  39.2221045  90.6159019
  25.3254032  33.2678819  67.4418449  25.9312081  32.5646639  67.2079372
  24.4570184  32.8746939  67.3549938  14.9195027  91.6878605  61.0573626
  15.5931556  91.7321777  61.7359352  14.7538888  90.7518101  60.9450579
  57.2457218  91.2478447  54.3418217  56.9484854  90.5754566  54.9548197
  57.6263952  90.7567406  53.6137199 100.7477743  90.3673507   4.5307896
 100.0675470  90.0247027   5.1105473 100.5100519  90.0403454   3.6631558
  28.0261779  80.8751297  95.5122375  27.1181464  81.1458492  95.6479645
  27.9836297  80.2470875  94.7911358  22.5264525  78.0589199  96.4355564
  23.4096479  78.4205341  96.3618469  22.3035884  77.7877092  95.5450535
  50.2659130  43.6502361  32.8948021  49.4817877  43.6867523  33.4425640
  49.9315214  43.5363960  32.0051646 117.7800621   8.4373910  10.2239582
 118.4183682   8.6993129   9.5604870 117.5007070   9.2601401  10.6255409
  15.9483337  81.2471104  54.8819828  16.8081021  81.6046906  54.6602488
  15.8664274  81.3878059  55.8252335  37.9669642  66.2885666  66.8680382
  38.5003567  67.0797205  66.7918491  37.0843840  66.6113424  67.0499754
  37.5418735  55.3155565  92.1454620  36.7889643  55.1935196  92.7237892
  37.6369238  54.4760036  91.6956234  51.1494017  90.6933594  76.0631371
  50.8414173  91.3704491  75.4607058  51.9102240  91.0836124  76.4933538
  61.9922161  76.7169952  89.1822243  61.2084055  77.0641232  89.6080971
  62.5767517  77.4710464  89.1050816  42.3378706  87.4716282  76.8317556
  43.0905962  87.5881577  76.2520504  42.7146482  87.1553612  77.6528835
  61.3187838  88.4343719  83.0996513  61.4112520  88.6279202  82.1667957
  60.4186964  88.1218624  83.1913567  46.7675400  96.4484501  78.0441952
  46.6487217  96.7077065  78.9579296  45.9042120  96.1404991  77.7684069
  25.3640580  59.8146152  59.1823435  25.6259918  60.4573631  59.8415089
  26.0158801  59.1174555  59.2553234  42.7748800   0.5987601  90.6007576
  42.6316190   1.0664802  91.4235306  41.8957991   0.4575496  90.2493191
  27.6024365  32.4742055  81.9556808  26.9627476  32.9082847  81.3912296
  28.1629348  33.1828976  82.2716427  31.9755381  26.2577874  18.2759354
  31.9060152  26.7830617  17.4787685  31.9082182  25.3523595  17.9727909
  44.8238182  84.4824505  58.7163305  45.7423210  84.4209957  58.9786291
  44.3768978  84.8291779  59.4885206  48.2509470  91.4697552  64.7739458
  48.0277443  91.9903278  64.0023088  49.0981340  91.0780144  64.5617247
  15.3638523  38.3115918  14.3690750  15.2610605  37.3640496  14.4575569
  15.6688660  38.4365327  13.4704182  30.6554031  71.7551517  64.0943861
  31.1326981  71.2471819  64.7504282  30.1345634  72.3756123  64.6042728
  39.1758323  61.6911602  68.9063644  39.6133900  62.4074125  68.4461975
  38.3705592  62.0813704  69.2462254  70.0020313  93.0381870  79.7416353
  69.5840502  92.2311974  79.4411325  70.9197569  92.9416561  79.4872808
  36.6299915  59.3986940  78.4849882  36.0079455  59.2854834  79.2036486
  36.8930602  60.3174829  78.5384178  47.2326231  82.7056122  63.0665064
  47.3864889  83.6289215  63.2666397  46.4617062  82.4735546  63.5842562
  48.5421944 103.8888264  32.4011827  48.9921427 104.0380001  31.5696025
  47.6294136 103.7375641  32.1558571  55.1831007  71.0353422  81.4051914
  54.8189831  70.5717945  82.1593666  54.6363258  71.8160486  81.3170719
  48.6046505  68.4157419  75.0375748  48.8250113  68.3211946  75.9642506
  47.7067757  68.0908442  74.9705362  23.8985968  63.3400726  63.9601326
  23.1066990  63.7772369  64.2732048  24.5790482  64.0113068  64.0116930
  55.7048637 102.0460941  24.9950096  56.3070888 102.0335533  24.2510960
  55.2177686 102.8640081  24.8950741  82.4562532  16.2822776  65.8812571
  83.1730682  15.9155517  66.3988686  82.7762253  16.2599330  64.9793959
  34.0357852  77.4632645  78.4868908  33.4551406  76.7672062  78.7944412
  34.8493695  77.0133209  78.2591486  84.9103624   3.3438640  83.4019756
  85.8231003   3.3082156  83.6880970  84.5963937   4.1946464  83.7082577
  51.5150499  87.0259380  76.5779829  50.6899214  87.2267342  76.1363077
  51.2566423  86.5273380  77.3531294  93.6172849 109.3409540  10.4442093
  93.6698181 109.8498251  11.2532303  93.1255943 108.5562040  10.6863567
 117.8163517  34.0293462  12.3953697 117.4539126  34.5957906  13.0765507
 117.0647491  33.8019425  11.8479988  47.5684595 100.4603195  90.3639793
  47.8888702  99.8605728  91.0376835  46.6163683 100.3656483  90.3922081
  61.4429808 108.1898594  69.8392630  61.1362553 107.8517342  70.6805849
  60.6528187 108.5193443  69.4111061  59.0055037  99.6492195  70.9998989
  58.2288647  99.1516781  71.2558746  58.7370491 100.5652905  71.0703707
  41.2966108  81.4865971  70.9659290  42.0399618  81.5553379  70.3668165
  41.3988924  82.2295284  71.5607548  72.1211863 102.8077126  74.8514938
  72.7777767 103.2003593  74.2762089  71.7404652 102.0995140  74.3321228
  40.9355783  72.3185015  63.3952475  40.1094913  72.6282835  63.0239773
  41.6060162  72.6509237  62.7983904 115.0101907  64.0382433  78.8179684
 115.6784023  63.6255312  79.3651390 115.2599393  64.9618864  78.7906551
  45.3668070  72.5134802  89.0730953  45.4717541  71.6536903  88.6656952
  45.3886557  72.3371220  90.0136566  83.9626343   5.8763652  84.1877842
  84.6563179   5.9745937  83.5355663  83.4233743   6.6603427  84.0838146
  57.7723503  85.6911278  76.4581871  57.4004984  86.2366676  77.1512556
  57.7467871  86.2448502  75.6778193   3.5400471 102.5713253  40.0645447
   4.4866830 102.7119637  40.0462627   3.2150376 103.2111645  40.6979561
  51.5914631  78.0004549  68.3240366  52.3743010  78.4987402  68.5587883
  51.3185167  78.3656788  67.4824047  58.5204124  82.8180504  84.4364834
  57.8128195  82.9159451  85.0736332  58.0961847  82.4477863  83.6624241
 115.1522935  17.7601153  20.9198544 115.8434833  17.5275571  21.5398571
 114.5016349  18.2218987  21.4486572   7.5135630  34.6413476   0.3094170
   6.8740814  33.9864785   0.0293324   8.2210177  34.5748956  -0.3319290
  66.9188929 109.9838257  71.8571281  67.2012043 110.2972698  72.7163601
  67.3191071 109.1182327  71.7745781 117.2065772  49.2511994  19.1779873
 117.5780929  50.1088006  19.3846867 117.2529233  49.1938168  18.2236359
  36.6005867  21.1766774   0.9352371  37.2032278  21.9196994   0.9664318
  35.8528345  21.4523417   1.4654324  33.7587237  91.9525242  65.9994507
  33.5899258  92.8591537  65.7429838  34.2652535  91.5885639  65.2733707
  32.9206276  79.0731764  89.6504879  31.9894457  79.2720556  89.5525932
  33.3188581  79.9073553  89.8990631  47.6585436  86.5037823  77.8498220
  47.5916767  87.1632671  78.5403585  47.2434998  86.9104958  77.0891953
  99.3687041  53.4060955  55.3860664 100.2236183  53.8168669  55.5149889
  98.7793834  54.1351748  55.1927280  93.7015278   0.2485232  69.1433716
  93.6353904   0.7183986  69.9746752  93.8366443  -0.6651444  69.3947601
  28.0016971  93.6892223  71.5785885  27.3461437  93.9196777  72.2368956
  28.0167460  94.4384289  70.9830332  15.3723371  61.4483976  76.2231350
  16.0645700  61.3818264  75.5654001  14.8274457  62.1765184  75.9245300
   8.4720486  29.7385365   6.1808750   8.4240359  30.6876809   6.2951729
   8.2335394  29.5952184   5.2650139  34.2489975  33.8224179   4.5863125
  34.2077463  34.2181832   5.4568836  33.7892788  32.9881341   4.6804497
  14.3058050  79.6592522  67.8072357  13.7026393  79.7903109  67.0756292
  15.1755583  79.7717524  67.4236965  47.7287674  83.3174419  66.4469099
  47.1214294  83.3133888  65.7070780  48.0563402  84.2161179  66.4829636
  55.7772160  77.6836300  73.2777452  55.1507950  78.3768892  73.4856367
  55.7077456  77.0706749  74.0096569  57.8201771  75.6020927  80.2033710
  57.8838778  75.6836987  79.2517900  58.7286091  75.5520916  80.5008221
  56.7507362  97.5758362  53.4214878  57.1515560  98.3019924  52.9437113
  57.4688196  96.9600868  53.5678911  39.0741611  74.4853544  75.4133797
  38.6336327  74.8806477  74.6611118  38.3618736  74.1677380  75.9683561
  26.3618684  63.6301899  41.9000912  27.0301723  62.9830360  41.6747046
  26.8492293  64.4447184  42.0236158  50.7039404 101.2356949  74.0845633
  50.4810572 100.6763744  73.3404493  50.0511885 101.0197258  74.7505236
  42.1740484  91.1045170  65.7883358  42.9327583  91.6372013  65.5499363
  42.1781063  91.0967159  66.7454958  38.3600998  77.9971790  61.9195557
  39.0005136  77.2916269  62.0106554  37.6850796  77.6352882  61.3454342
  45.2421188  70.0080061  87.9829693  45.4288912  69.0706062  87.9316711
  44.6018600  70.1630116  87.2885132  41.6466427  71.3107872  59.2371845
  41.2411261  70.6965923  59.8491955  41.8660402  72.0730591  59.7729445
  36.9452024  59.5149469  73.4409285  36.2983561  59.3935442  74.1359711
  37.1062016  58.6325359  73.1067801  43.8017845 102.3419857  75.4776669
  44.4773436 102.7419949  74.9300814  44.0133333 102.6280499  76.3662910
  41.0404253 107.5397491  39.9090505  41.7667055 106.9193172  39.8472738
  40.3794527 107.1953297  39.3084455 108.0080379  35.5747849  22.3144218
 108.2180274  35.7908017  21.4058659 107.3490513  36.2210137  22.5680992
  41.9955015  70.3488302  69.0788746  41.8438959  69.4296789  68.8588619
  41.2187004  70.8041334  68.7540531  93.9832098  38.8522105  79.1185188
  94.8846561  38.8784652  78.7976742  93.4531767  38.7177615  78.3328867
  26.8564272  94.6203327  67.5335407  26.1856461  94.3267632  68.1500673
  26.8187642  95.5758572  67.5756884  23.5482931  57.4947262  65.1651430
  24.3757963  57.7873039  65.5470657  23.7976122  56.7968988  64.5592451
  83.8877464  34.8995263   1.2838814  83.8097695  34.2971856   2.0237133
  84.4825549  34.4582993   0.6774590  44.8427439  78.5594368  79.9289036
  44.6658134  77.6193333  79.9624443  45.0483561  78.7968636  80.8331108
  54.8986387  68.7231970  82.9759598  54.5550966  67.8359175  82.8713512
  55.8022785  68.5975599  83.2655811  38.5579300  89.6449280  71.5281057
  38.0833030  88.9169979  71.9294596  39.0909886  90.0035381  72.2376728
  23.2641435  83.0293751  50.5260611  22.6737285  82.3359585  50.8206940
  24.0981817  82.5850964  50.3736544  22.4117184  84.9179077  67.4588776
  22.9866147  84.6195602  68.1636572  21.6712570  85.3239822  67.9094887
  69.3541462   4.4270377  48.1218386  69.9578006   5.0265365  47.6831627
  69.1604239   3.7587123  47.4645376  14.3309658  27.4776036   7.9313538
  15.2626103  27.6396806   7.7830193  13.9898699  27.2357232   7.0703194
  28.1144404  53.2136774  76.6381073  27.9577732  54.0432262  76.1869621
  27.9599357  52.5451612  75.9706926  76.9652015   5.4526286  87.1128845
  77.7431852   5.4045539  87.6684570  77.0510418   6.2873035  86.6522503
  45.9122324 105.3249264  57.5256538  46.5858889 105.4185772  58.1991911
  45.7520676 104.3825054  57.4764919  32.2272325  70.3231049  65.8674717
  32.7608609  69.9987888  65.1420116  31.9220662  69.5324802  66.3124657
  96.2449056  25.1603561  63.5030460  95.8130199  24.7077041  62.7786064
  96.8234903  24.5012050  63.8864374  42.7877283  90.3637505  77.3126841
  42.9768896  90.6131649  76.4081144  42.5026226  89.4518185  77.2550678
  41.4613152  56.4525938  69.8301840  42.3106003  56.6062355  70.2441072
  41.1850977  55.5976629  70.1603889  50.7663918  92.0851135  87.3844147
  50.3047419  91.9438076  86.5578842  50.4524279  91.3851166  87.9568291
  72.8271341  88.6998940  55.4775858  73.7614632  88.5045624  55.4061127
  72.6657581  89.3513870  54.7951269  55.2861309  56.8055153  85.4942703
  56.0723162  57.1939468  85.1105213  54.7395372  57.5549650  85.7304764
  52.3380709  61.6314030  88.0404377  53.2390261  61.7665720  87.7467632
  51.9472885  61.0754395  87.3663235  33.9065981  97.2604084  78.2503223
  34.0230799  97.1240616  77.3100710  32.9672956  97.1456242  78.3944368
 102.9636318 108.5294868  14.8037216 103.3773739 107.6671888  14.7650597
 102.8101475 108.7627556  13.8881561  44.6722681   6.1799865  42.1391058
  44.3363062   6.9265418  42.6351166  44.1259209   5.4439311  42.4146938
  22.3113871  67.7892828  59.1919661  21.4304519  68.1017160  59.3982887
  22.8918266  68.4777164  59.5165920  96.2224466 100.6814434  21.2533829
  96.5398437 101.4494707  20.7783863  95.3841860 100.9582330  21.6234467
  76.7168713  70.0340557  55.4908657  76.9533539  70.1087141  54.5663452
  76.8113661  69.1021061  55.6877565  66.2010813 105.4811192  85.3262806
  65.3557777 105.6703758  85.7335567  66.1026955 105.7774830  84.4214535
  17.2150868  10.3014952  11.5551445  17.9275816  10.7450158  11.0948441
  16.8107432  10.9866006  12.0874664  49.4141722  86.9884491  68.9110851
  48.8675785  86.5725899  69.5778179  49.3506241  87.9248333  69.0991783
  24.7856396   9.8949487   5.5328724  24.4222801   9.4873959   6.3190624
  24.0228527  10.2342421   5.0645992  35.4474115  65.6648779  73.1658363
  36.2008691  65.4060125  72.6352453  35.7118487  65.4751396  74.0660048
  39.6810222  85.5412769  87.1393394  39.0178776  86.1514759  87.4620152
  40.0866747  85.9965706  86.4015102  40.7996130  88.3153534  70.3135729
  40.0140095  88.7753582  70.6092978  41.2431860  88.9420033  69.7419262
  18.8522744  50.3240395  70.6104565  18.4732783  49.4839478  70.8689880
  19.7278869  50.3209209  70.9971380  18.4847879  66.6926193  75.3114748
  17.9930437  67.2855473  75.8796835  17.9805076  66.6670227  74.4982862
  33.2630253  75.9503078  82.7083302  34.0320063  75.4167175  82.5078869
  33.0370545  75.7161379  83.6085224  27.1910954  93.8936520  74.5583248
  27.3422885  92.9680634  74.7497797  27.8108978  94.3588066  75.1201963
  52.7189493  53.3496237  94.3721581  52.2105694  54.0596437  93.9801788
  53.1019258  53.7358046  95.1598358  51.8623686  94.4011593  57.5021982
  51.5845585  93.5424519  57.8210688  52.8022814  94.3066788  57.3476887
   0.2227140  85.7762909  61.5867901   0.9611613  85.2029133  61.7921114
  -0.1838534  85.3771019  60.8176470  20.3049183  72.5703573  89.9641228
  20.7413054  71.9109344  89.4247150  20.4670596  72.2888184  90.8645058
  62.0138454  74.0904236  72.5707626  61.0733032  74.2560816  72.5062132
  62.2796631  73.8680458  71.6785097  33.7562323  71.0788393  86.7403984
  33.3154368  71.8498087  87.0975208  34.1326690  70.6426334  87.5047588
  40.3502941 107.1470928  71.8020487  39.6708584 106.4737320  71.7677402
  41.0187006 106.7835426  72.3828173  47.6083994  86.0896683  88.6386585
  48.2204914  85.5969810  88.0920124  47.0647478  85.4197025  89.0531635
  42.5816488  83.0551910  87.2029495  43.2789230  83.3536530  86.6190243
  42.5956535  83.6773205  87.9302692  15.4139495  87.8659058  69.7895861
  16.1064196  87.2859192  70.1063347  15.1170719  88.3331871  70.5704498
  58.1299257  81.6576195  50.7378435  57.7099562  81.7408180  49.8817253
  57.6975393  82.3159981  51.2817240  31.7771554  65.1219463  68.9767599
  30.8642626  65.0874996  68.6909723  32.0338321  64.2044926  69.0696430
  55.5448914 108.0718136  76.5393257  54.7394228 108.0941200  76.0226488
  55.7421017 107.1400928  76.6353893  48.5824251  79.0413237  72.0771265
  48.3363914  79.9653673  72.1200371  49.4008732  79.0341854  71.5808153
  38.5645080  73.6581516  62.0408630  37.7362990  74.1258478  62.1483898
  38.6958218  73.6182833  61.0935497  55.0084925  74.3279839  94.5599270
  55.0102568  75.2267027  94.8893738  55.9338951  74.1155815  94.4384956
  21.9699049  68.7564039  84.3899345  21.9697237  68.2387161  85.1950550
  21.0640693  68.7215376  84.0825558  10.8835828  62.7007771  69.2325592
  11.5111625  61.9877052  69.3504906  10.1686752  62.3099947  68.7301350
  44.6444082  92.2789764  67.8160954  44.1662073  93.1081390  67.8222036
  45.5210114  92.5102997  67.5090265  50.2302647 108.9003849  46.4388418
  50.4028893 108.5356331  47.3068237  50.9949541 108.6533070  45.9188032
  42.6828051  79.1312933  71.7073298  42.5149536  78.8446093  72.6050329
  41.9081020  79.6408510  71.4698172  24.7904801  31.4960003  78.8354254
  24.5074654  32.0478845  78.1063461  24.0778828  31.5557480  79.4717216
 109.4827522  12.6324565  -0.0313499 108.8889373  11.9090611  -0.2321365
 109.9865092  12.3265178   0.7228825  31.4744234  52.1289444  80.4025173
  31.6884017  51.3135481  79.9491167  30.5298710  52.0803452  80.5497932
  44.0168810  93.6400986  92.9862690  43.7841606  92.8539371  92.4922657
  44.4584036  93.3094597  93.7685490  41.3166571 100.3902054  70.8755255
  41.8906879 101.0464573  70.4804802  41.1911583 100.6921768  71.7751360
  34.4108772  98.3955002  86.1906338  33.6823893  97.8960800  85.8216858
  33.9946246  99.0338421  86.7698479  48.8718843  85.1517487  71.4449787
  49.4694471  85.5141258  72.0990705  49.2253351  84.2832184  71.2527418
  47.6381302  67.4419260  83.9225292  47.9544783  68.1906652  84.4280529
  47.0410061  67.8227663  83.2786083  90.3218699  40.1534993   8.4721539
  89.6842528  39.4411618   8.4247562  89.7943212  40.9507520   8.4240410
  47.3149157  85.6678104  60.0661659  48.0653667  86.0751152  60.4987764
  46.7828321  86.4045429  59.7655821  78.6358881  81.5645504  65.7142830
  79.2478752  81.8199539  66.4045572  78.9901686  81.9644833  64.9200726
  29.2283988  54.2055082  83.4035587  29.1185999  55.0589991  83.8227558
  28.6931205  54.2569685  82.6116848  49.1191006  99.8944950  59.2702675
  48.3946180  99.5671654  59.8033810  49.1154337  99.3364239  58.4925890
  55.1089382  86.6520214  80.9815407  55.4953241  87.4517059  80.6245518
  55.3433514  86.6663170  81.9094849  32.9603767  95.0240898  61.3624287
  32.1012497  94.6074009  61.2953043  33.0409145  95.5377007  60.5587196
  37.3727250  53.4662294  53.7937832  38.2277155  53.0516720  53.9093971
  37.0530629  53.6084461  54.6847534  23.4622383  80.3420544  62.8553152
  22.9278398  80.1643848  63.6293221  23.2765889  81.2562370  62.6407814
  17.7740657  57.2589970  56.3335514  17.3934519  57.4047136  57.1996546
  17.5846326  58.0632448  55.8502960  69.1752863  98.6253357  31.5788245
  69.9584103  98.1613541  31.2827420  68.5045004  98.3982182  30.9348559
  68.0747604 107.4351978  72.6189470  68.8006783 106.8134594  72.6710701
  67.9223299 107.5473022  71.6806364  22.7408695 106.9961834  51.1507416
  23.3169889 107.6265335  51.5831566  23.1160450 106.1421871  51.3655949
  39.7139549  96.7949772  75.3343773  40.2537394  97.4381351  74.8748112
  38.8162923  97.0121765  75.0828648  46.5877724  82.4709320  83.9513683
  45.8954144  83.0831623  84.2004681  46.9052315  82.7979469  83.1096363
  32.2324443  76.9307756  73.6350060  31.6968870  77.6041031  73.2154322
  31.6083670  76.2490225  73.8839483  61.1261845  76.3468981  70.1341677
  60.2002716  76.3945913  69.8961592  61.3442469  75.4175997  70.0628662
  30.7004189 104.1566181  81.1360931  31.5424204 103.7036705  81.1818886
  30.6814051 104.5387173  80.2586746  29.1355300 103.6547089  96.2371063
  29.6893764 104.2180824  96.7775631  29.6968222 102.9131222  96.0107422
  23.8631439  99.6163464  78.4632540  24.7920132  99.3951797  78.5304832
  23.4080124  98.7888050  78.6190414   4.6860140  20.7245976   9.5738575
   4.8681372  20.0581319  10.2363464   3.9755219  21.2459189   9.9475739
  41.4975500  64.6652985  69.2862511  42.3842382  64.3582630  69.0971947
  41.3569117  64.4396400  70.2057791  81.2808418  75.6519938  60.3817177
  82.0540905  75.8169270  59.8421621  80.6144142  76.2436962  60.0324345
   8.3582401  58.9202023  67.1296835   7.9982889  59.8062181  67.0892143
   7.8331512  58.4196043  66.5052509  24.6544790  73.2706165  78.5424471
  24.1444111  72.6509571  79.0640640  25.3740191  73.5320044  79.1170502
  50.5703640  85.4703426  82.1853447  51.4134169  85.7341385  81.8166924
  50.2767658  86.2339687  82.6822472  49.6542501  76.8083858  76.2015104
  49.5765018  76.5209770  75.2917957  48.7524843  76.8383360  76.5211248
  81.2680990   2.7991443  82.6390362  80.9645588   3.1173091  81.7888260
  81.8327123   3.4982543  82.9687214  41.4530134 108.1592464  66.4399529
  41.8224382 109.0277290  66.2802601  42.1843624 107.6478195  66.7860889
 107.7957153  84.9503326  59.9009466 107.8062344  84.7854900  58.9581060
 107.6825809  85.8977604  59.9771976  55.4403734  74.3739510  72.6482916
  55.9762430  74.3796206  73.4414148  55.6611347  75.1926661  72.2042179
  81.8618757 109.8051931  10.8524105  82.8060562 109.7935487  11.0093376
  81.7161066 110.5918266  10.3268787  31.6487885  75.5409956  59.2789173
  31.6327143  75.2385664  58.3708954  32.3654580  76.1748695  59.3075943
  59.9861717  93.7230206  69.3300104  60.3371716  93.0277729  68.7735367
  59.2805910  93.3029079  69.8218298  40.0399446  43.6614990  77.7276850
  39.6508336  42.7869654  77.7323532  39.8341417  44.0105915  76.8604994
  52.4611044  91.8293858  68.3042908  52.3017073  90.8882332  68.2331181
  51.7236662  92.2325230  67.8461504  33.5062194  84.9405289  61.6593409
  33.5882807  85.7251930  62.2013807  32.6427794  85.0188923  61.2536716
  76.5211136   1.7799335  40.5159616  76.6632158   2.7082782  40.3309822
  76.0351116   1.7716842  41.3405657  47.5081539  81.6618729  71.7150068
  48.0373621  82.0084381  70.9966326  47.5595522  82.3328590  72.3957157
  68.9617538  86.4391994  92.6528931  68.1035757  86.2843132  92.2582054
  68.8824511  86.0933876  93.5419083  49.8573208  73.0688143  84.0626240
  50.7866096  73.2650042  83.9435768  49.5315313  72.9062796  83.1773663
  95.7155163   6.2598376  94.6476936  96.3392908   5.5557113  94.8247147
  95.3311331   6.0320907  93.8011646  26.8135571  81.8712234  77.2122335
  27.3962402  81.1173916  77.3041916  26.1534214  81.5879154  76.5796280
  11.6053742  18.5791165  26.0271999  11.9177931  17.7166898  26.3007900
  11.2704724  18.4424884  25.1409695   5.3262895  41.3898277  92.1512222
   5.0809062  40.8111620  92.8731346   4.4928980  41.7170191  91.8126392
  27.6368499  69.0114403  72.6881456  27.2873068  69.0119123  73.5792446
  26.9371414  68.6318398  72.1566010  20.3742146  91.1750793  79.8143721
  19.8423612  91.8978596  80.1474857  20.6163669  91.4444256  78.9283419
  21.9455385 102.8218555  53.1114244  22.8050947 103.1641293  52.8659868
  21.5250850 103.5433865  53.5792351  54.3616724  89.3010426  72.4376249
  54.6453714  90.0139427  73.0099154  53.8879156  88.7035275  73.0162096
  77.1935732 106.2403394  18.6787960  77.0006687 105.8152153  19.5144341
  77.8903896 105.7082798  18.2946274  69.7666311  81.3114262  60.6734324
  70.1528978  80.6299400  60.1233339  69.0508318  80.8717442  61.1322737
 106.3159342  44.3247175  86.8667698 107.1352823  44.5177841  86.4111137
 106.4811726  44.5788383  87.7747154  51.9210482  82.6530266  68.1041479
  52.1289873  81.7831612  68.4452200  51.3452864  82.4863338  67.3578596
  22.4625301  57.6784801  96.1482620  21.8636942  58.1471300  95.5668926
  21.9616818  56.9192314  96.4464664  34.6366310  65.4476500  83.0777836
  34.2619205  65.4171896  83.9580631  35.4839849  65.0106382  83.1629181
 117.7308653  87.7782440  77.1059513 117.7105515  87.8768444  78.0578423
 118.0725033  86.8954468  76.9638395  20.7915163  60.8056450  85.3111553
  20.9713221  60.5970669  84.3944168  20.0046587  60.3027391  85.5213261
 117.8969754  15.6296403   0.7169220 118.8027132  15.9255702   0.8080074
 117.6802982  15.2552802   1.5708229  44.8174429  70.6174850  67.8755951
  43.9459848  70.6337690  68.2712317  45.1059914  69.7096109  67.9690647
  48.9440966 106.6160202  74.3450212  49.1738558 105.7866478  73.9259958
  49.7807932 107.0668888  74.4585276  24.8195553  70.8273363  86.4683628
  25.3712463  71.0230732  85.7110310  24.6306658  69.8920918  86.3917637
  91.9035274 102.5343849   1.6715214  92.7944929 102.7071859   1.9757340
  91.9315464 101.6342642   1.3471291 108.3789808  14.2860084  67.6855469
 107.5139553  14.2746596  68.0952215 108.2908041  13.7130313  66.9238710
  35.4385567  54.2490673  71.9858980  36.0257220  54.7183514  72.5785542
  35.9780359  53.5484791  71.6193295   9.6328896  16.5040023   2.5842640
   9.5695084  15.5753047   2.8072807   9.1246098  16.5919263   1.7779419
  79.7073078  97.0657539  47.4662781  80.6392193  96.9478321  47.2822189
  79.2766666  96.3603306  46.9834232  73.1908232   3.4322887  68.0841732
  72.9003078   4.2804675  67.7488899  73.6578614   3.6416965  68.8930321
  55.2492428  95.7008934  74.3940258  54.5376778  95.1957512  74.7873974
  55.2247715  96.5430355  74.8483706  21.2249637  81.1074924  51.0863447
  20.5728960  81.7022324  50.7157707  20.7985377  80.7355213  51.8583727
  26.2765503 100.7930565  65.6470490  25.3315115 100.8826351  65.5241156
  26.5006280 101.4716244  66.2838888  96.7628742  22.1262080   6.5920612
  96.2357820  22.0805079   7.3897621  96.1260367  22.2701747   5.8921024
  65.4744482  82.5034523  59.1987371  66.2678432  83.0336571  59.1236401
  65.5719471  82.0432186  60.0323534  26.1129546 101.5293980  82.5461006
  26.0383177 101.6663170  81.6016865  27.0052195 101.8035603  82.7580833
  34.5549273  76.8711090  54.3332338  35.2855659  77.2249651  54.8403692
  34.0759277  77.6433277  54.0324497  56.3252831 105.4792500  70.0358820
  57.1911383 105.8736897  69.9312449  56.0357285 105.2965164  69.1420174
  37.4743676  80.2223778  81.0529804  37.5168228  81.0463428  80.5676937
  36.9164181  80.4164696  81.8061447  68.3199263  78.0166626  54.7696733
  68.2824564  77.8714895  53.8242865  68.9946556  77.4119186  55.0783014
  54.1276884  97.7079678  52.9391003  54.1155005  98.1615448  52.0962763
  55.0014544  97.8790188  53.2905340  45.3715086  99.9204826  64.1437101
  46.2690163 100.0142097  63.8244534  45.0284481 100.8139515  64.1597033
 110.5504454  45.8599812   9.3244621 109.5947302  45.8576161   9.3777153
 110.7946123  46.7780072   9.4420883  70.4705715 109.7796059  85.9845734
  70.2973270 109.3464661  86.8204021  69.6602106 109.6720695  85.4865932
  71.0979540   1.6930537  83.8800716  70.9799153   0.7595496  84.0557957
  72.0390779   1.7926269  83.7365437  80.6529743   4.5850043  66.7585754
  80.5948431   4.4266849  65.8163500  81.5919382   4.5818572  66.9444942
  66.3836479 109.3552494  50.6536865  66.6809368 109.6647072  51.5093040
  66.2709522 110.1527500  50.1364613  43.1414843 109.0801334  50.0375271
  43.0956984 108.2302761  49.5994997  42.2662449 109.2086029  50.4031515
  37.8369284  85.5070972  75.6670856  38.4278297  86.0322475  76.2067938
  37.0178628  86.0023403  75.6571722  40.1262426 107.0251846  69.0197992
  40.0094414 107.7129745  68.3644104  40.3338242 107.4961472  69.8268557
  96.6632683  10.1503520  44.2391920  97.0490724  10.3865485  45.0827551
  97.4100048   9.8956447  43.6972141  67.0203972  65.8883381  50.9221935
  67.2352695  64.9583960  50.9948111  67.6691866  66.3277054  51.4719772
  71.0375166  79.9587631  86.1408234  71.2031889  79.3986368  85.3825092
  71.9068623  80.2428913  86.4232159  19.9801195  52.2207689  55.3871822
  19.0339220  52.1729374  55.2506018  20.1431370  53.1358194  55.6159544
  32.9780126  78.6873245  82.2691727  33.2169247  77.7787209  82.4524689
  32.3443604  78.9105701  82.9509926  34.7509050  93.4459972  53.6797810
  35.6570411  93.4949684  53.9843369  34.8174858  93.1247330  52.7805662
  91.2614185  34.0759902  58.4447384  91.3921386  34.7271018  57.7553940
  92.0981199  34.0471892  58.9087772  29.7002864  90.2290440  54.9723673
  30.1617193  89.7489738  54.2847252  29.0835190  90.7890320  54.5009422
  69.4328880  96.2223434  53.9465380  69.3922949  96.8208122  54.6924734
  68.6651230  95.6599045  54.0486526  79.7199821  79.4332647  71.0974550
  79.8451757  79.0283680  71.9557190  78.8469791  79.8233175  71.1416912
  59.9349165  65.6490135  91.6463280  60.6045151  65.4725647  92.3071861
  59.1129541  65.3905916  92.0632553  25.8209872  96.9592762  91.0647202
  26.1538148  96.5972328  90.2435112  25.9126306  97.9066658  90.9633636
  66.9428682 108.9461231  58.8930941  66.9827318 108.5680580  59.7715664
  66.5924597 109.8267555  59.0270090  37.1272922  78.1506395  89.7387886
  37.5157309  77.4272203  89.2468452  37.5282168  78.9360332  89.3664360
  38.5672760 101.8159103  81.3386631  37.9504299 101.1599445  81.0139370
  39.0961027 102.0462608  80.5747795  55.5986786  92.2929478  77.8461695
  55.4866219  91.6207600  77.1739769  55.7166338  93.1058216  77.3546982
  66.1644751  26.5564876  85.5871582  65.9798795  27.0381980  84.7808647
  67.1170551  26.4631515  85.5976486  41.6549015  94.9917507  58.3387327
  40.9924221  94.4138145  57.9601336  41.3550711  95.1451778  59.2347193
  56.1052656 100.2647591  70.8424282  56.0277843 100.5853844  69.9438572
  56.1967564  99.3163109  70.7512569 110.8110649  38.2726340  72.4780703
 110.8419782  37.3605590  72.7668715 110.6935579  38.2196765  71.5295839
  52.5492382  86.8177605  81.4284611  52.3051500  87.7102757  81.6735649
  53.5059357  86.8140793  81.4592361  63.1388283 100.4883957  59.2187357
  63.7956238 101.0794735  58.8506651  62.8234625 100.9388447  60.0022316
  37.0995331 102.2473145  48.3575869  36.8226600 102.5605488  49.2186689
  37.0876980 101.2932968  48.4345770  41.2830210  99.1210175  81.2355328
  40.9972858  98.2426453  81.4866066  40.7860470  99.3166351  80.4411888
  50.2822161  93.4895515  66.8335485  50.0996876  93.4971619  65.8939457
  50.9620476  94.1531086  66.9508553  42.9593992  88.8169098  91.5897369
  42.7362728  88.8483143  92.5200367  42.9247570  87.8867722  91.3663864
  66.6553164  83.9240360  71.9132996  66.2548494  84.2316055  71.1001205
  66.8971252  84.7246170  72.3789549  80.5884725   0.9394984  48.4567070
  79.9759943   1.5977149  48.7851191  80.5501348   0.2335506  49.1019964
  24.9394863  77.9216725   4.3517754  23.9996212  77.9711778   4.1773197
  25.0312680  77.1919114   4.9643585  93.0883629   6.8627696  87.1191406
  93.7259657   7.5669627  87.0016193  93.6131412   6.1052661  87.3780441
  68.4268856  97.7041721  77.6707697  69.3386698  97.4358368  77.7842331
  68.0557013  97.0479298  77.0810318  42.8221703 110.5257797  61.7007875
  41.9398832 110.2732658  61.4286709  42.7533579 111.4594936  61.8999529
  68.7338638  86.5667915  71.7520142  67.8974485  86.6560745  72.2088194
  68.5377073  86.8017197  70.8450603  27.5822878  88.8520145  43.7719011
  27.2865367  89.7618389  43.7405109  28.3850241  88.8789368  44.2925930
  74.5785332  71.3906622  44.0500879  73.8614035  72.0233011  44.0085649
  74.4704103  70.8541679  43.2647753  97.5963909  10.0023418  62.9033136
  97.6141292   9.2619376  63.5097218  97.3231060   9.6217876  62.0686102
  98.7481767   1.4804893  48.2054853  99.2540962   1.7166572  48.9829826
  97.8666002   1.3086753  48.5364485  60.9586763  80.2514458  66.9985485
  60.8973932  80.8509159  66.2548304  60.6131506  80.7512665  67.7381611
  41.9419200   0.4563861  73.3451033  42.4086538   1.1645560  73.7888098
  41.0169200   0.6384807  73.5107708 102.3793775  18.3034091  38.0504036
 102.7073795  18.0202537  37.1968985 101.4400512  18.1221252  38.0181742
  60.2821255  85.4613209  77.0459270  59.5033360  85.5357361  76.4944029
  60.6596279  84.6128178  76.8140602  66.2943554  79.6923161  51.0435677
  66.0731602  79.3702555  51.9173956  66.7402744  78.9570665  50.6230927
  88.2530022  87.7017307  77.2734356  87.7243710  87.2670555  76.6042233
  88.5646725  88.5017109  76.8501997  40.8466625  64.2848110  90.0819969
  41.7845726  64.4347954  89.9634075  40.6235743  64.7763348  90.8724785
  57.9269981  92.3227406  70.5095291  57.7553940  92.5706482  71.4180040
  57.3992395  91.5360832  70.3721476  86.3353157  74.6320438  55.5129004
  86.2670708  74.3333340  54.6060658  85.8998489  73.9493752  56.0233545
  32.1736169  89.9341011  38.7749839  31.9540524  89.1203785  38.3212471
  33.1031823  90.0681210  38.5900974  83.3084106  86.2944412  84.9450016
  83.1712437  87.2380733  84.8614597  84.0819454  86.1165619  84.4099903
  72.1480274  96.2982941  83.8123131  72.5087166  95.5686283  83.3086109
  71.2121534  96.1071301  83.8742256  82.5256538  83.8606548  60.4295015
  82.5328541  84.7654533  60.1172447  81.6063690  83.6833668  60.6288195
  92.6048357  19.6199470  91.0195446  91.9038898  20.2677112  91.0924625
  92.4332029  19.1736369  90.1903439   3.3384072   1.7177062  66.9499397
   2.5309597   1.2582831  67.1805668   3.8565098   1.7101436  67.7547598
 104.3726951  16.7909007  70.5672646 104.3029386  15.8375125  70.5181265
 103.5582668  17.1109538  70.1793098  56.9305801  98.8550949  64.7901583
  56.4939070  98.8759995  63.9386225  56.9302607  99.7667408  65.0819349
   5.1006001  51.5224034   7.0543644   5.0307005  52.4748475   7.1191189
   5.6135576  51.2672002   7.8211567  49.9874973  97.7782440  84.7734261
  50.7940960  97.3026085  84.9719334  49.6791840  98.0921936  85.6234932
  88.9725954   0.6617313  65.1320601  89.2626650   0.0557094  65.8138418
  88.0401928   0.4735046  65.0251722  49.4928026 104.6678066  50.1111078
  49.6326351 105.3238964  50.7939148  48.5576248 104.7224140  49.9143934
  42.7872992  91.9460964  58.1552649  43.3722401  92.6922798  58.0238008
  42.2925758  92.1657562  58.9447165 117.7379257  14.5405822  80.2108574
 117.8063614  13.7963252  79.6128321 118.1252224  14.2274242  81.0282707
  40.5514956  94.4512463  67.7692223  40.4997063  94.3412399  66.8197775
  39.7419524  94.9057674  68.0021906  22.7418089 104.1353703  71.8277025
  23.3826852 103.4258556  71.8734789  22.9845691 104.7238827  72.5425053
  84.5885563  74.8235750  82.9783440  83.7351894  74.4026136  82.8745461
  85.1598835  74.1291237  83.3063030  31.5563035  78.4424162  70.7247591
  31.3046360  79.2999220  71.0676670  32.4562716  78.3185863  71.0263443
   7.9044598  36.8081719  29.1834518   7.9253834  37.7172334  29.4824574
   8.5565251  36.3629777  29.7246048  68.2163954  83.8947964  48.3631420
  67.2853708  83.7026215  48.4748936  68.4903526  84.2518139  49.2079592
  46.1248016 104.6562576  53.0200291  47.0682335 104.6817875  53.1797695
  45.7950974 104.0024757  53.6365461 104.9749834  23.2480579  45.8275652
 104.2397386  23.7416606  46.1908865 105.7523615  23.6980586  46.1583471
  51.4548213   3.4025722  82.6610661  51.9158143   2.5895934  82.4542427
  51.6822666   3.9957099  81.9450474  70.8134031 103.2304764  45.8148909
  70.8065271 102.5390720  45.1529694  69.9393463 103.1984615  46.2037754
  46.9753504 105.7013226  46.7220402  46.9042492 106.6539669  46.7823935
  47.0839071 105.4113770  47.6277924  52.2357655  99.3941307  77.6143599
  51.3889885  99.2478466  77.1926975  52.0888472  99.1659451  78.5322809
  19.6161877   2.5995593  49.6608496  19.5981347   2.2983222  50.5692291
  18.7963711   2.2781425  49.2855835   7.3470705  19.2429501  10.6551621
   7.1948832  20.1325805  10.9739563   7.2982186  19.3183810   9.7021935
  29.1779041 106.4731121  59.5031166  29.4019222 105.5426884  59.5222425
  29.6874928 106.8568897  60.2167463  31.9174593  84.1211850   3.5574600
  32.4023646  83.7175423   4.2773029  32.5942581  84.4899995   2.9898712
  63.4127903  91.3732433  83.6092758  63.5284281  91.1454391  82.6867962
  63.4314394  90.5331135  84.0676117 102.5703270   3.9109950  30.3491116
 102.0030290   4.3501048  29.7153997 102.2012741   3.0316978  30.4319787
  76.6484070  93.8290977  68.8195848  75.9920645  94.1039944  69.4598007
  76.4053297  92.9301167  68.5982847  53.3642530 101.2546062  80.0996304
  53.2454681 101.2475204  81.0494041  53.2230473 100.3459549  79.8338175
  55.2242565  74.5902491  83.3596802  56.0895300  74.5582533  83.7677383
  55.4005241  74.7859240  82.4394226  79.2756844 104.2694855  83.0589962
  78.4973192 104.5458794  82.5752735  78.9967585 104.2568779  83.9745712
  60.4364729  80.4384804  49.7572708  60.6044865  80.5406189  50.6940556
  59.4879580  80.5349159  49.6721411  41.0401743  25.6056172  42.1058342
  41.0966128  26.2829549  41.4318440  41.9316881  25.5316979  42.4463627
  62.9398298  90.6460857  66.0678673  63.2368517  90.8390331  66.9571257
  62.4449539  91.4227390  65.8068371  82.0190460  11.4829021  37.9089618
  82.2846014  12.3779731  37.6978827  82.7166492  10.9349780  37.5492883
  55.3788185 110.0718975  78.5920143  56.1050367 110.3991127  79.1228390
  55.7325602 109.2983723  78.1529808  87.2221214   9.8893981  90.0737762
  87.9938537  10.4442268  89.9605465  86.5650636  10.2713637  89.4918728
  54.7620010 100.1114559  62.9326105  53.9743757  99.5750618  63.0229378
  54.6039104 100.8664513  63.4993792  37.0619059  69.7671890  70.4901218
  36.4561343  70.5037022  70.4075336  36.4961481  69.0027523  70.5986691
  77.7567608   4.6460300  81.9165611  77.6470954   4.3425040  82.8177166
  76.9018203   4.5038753  81.5102386  37.9652429  61.3336945  75.2456284
  38.8205528  60.9964752  75.5120134  37.6577878  60.7123423  74.5856094
  96.1861116   8.4864764  75.4746294  96.6062433   8.8071685  76.2726784
  96.5274269   7.5990348  75.3642845  64.3524742  73.1153917  80.9345913
  64.1829205  74.0386343  81.1219406  64.1988516  73.0297947  79.9936867
  11.7414587  72.0275361  -0.0639942  11.7433708  72.5755555   0.7207939
  11.8746775  71.1383778   0.2644512  73.1412846  28.3955054  69.1844416
  72.7701384  27.5580649  69.4622469  73.9852149  28.1661658  68.7953234
  31.2831426  99.5536518  83.8227463  32.1980357  99.8069763  83.7001419
  30.9249115 100.2240181  84.4045734  57.4846315 100.4163933  81.3138771
  57.8671074  99.5715332  81.0769081  56.9529057 100.6595993  80.5560207
  54.9999952  86.4312649  54.4995022  54.7375345  85.6735325  55.0221682
  54.3315983  87.0915699  54.6824884  48.4249353 111.1169815  87.0453644
  48.2076025 110.5404949  86.3127899  47.7937698 110.8863735  87.7270317
  68.4101820 101.8330479  49.1343117  68.5954523 102.7499390  49.3373728
  68.4302187 101.3909817  49.9830818  43.5728025 104.1079330  86.7619324
  43.0934668 104.9137115  86.5690899  42.9020739 103.4978485  87.0687675
  97.9761410 110.0237656  50.9271860  98.2640743 109.1872120  51.2925673
  97.0273113 109.9328899  50.8393669  52.0010662  70.0337172  63.4258318
  52.5633526  69.7124434  62.7209616  51.9405556  70.9767008  63.2730103
  40.7645655 107.1725750  46.4712143  41.3828564 107.5498867  45.8454514
  41.3152933 106.7098808  47.1027517  68.0493784 110.1915550  46.7416716
  67.4604702 110.3324032  47.4830055  68.8718176 110.6027603  47.0076227
  81.7202187  85.8578777  78.2699871  82.2917271  86.3652420  77.6936245
  80.8417797  86.1943722  78.0929232 102.9632128   8.1893784  17.3852989
 103.7953819   7.8231913  17.6846764 103.0795659   9.1369159  17.4550888
  28.9809721  10.5838210  12.1691773  29.6881979  10.3846747  12.7826950
  29.3911904  11.1326176  11.5007660  34.9637198  92.8144741  60.7512951
  35.3463888  93.6681461  60.9538841  34.0770626  93.0145836  60.4512453
 103.0990059   0.8306460  60.1884270 102.6020462   1.2933974  59.5137978
 102.5944931   0.0341373  60.3535557  73.8117981  99.5422554  87.0831013
  72.9738617  99.7808647  87.4795341  73.6597872  99.6132755  86.1407185
  67.8154809   8.8965850  94.9981308  68.3897859   9.2950301  95.6520748
  67.1464330   9.5603328  94.8306942  71.7878277  26.0056071  82.2640991
  70.8951575  25.7959514  81.9894791  71.8413884  26.9589477  82.1970177
 102.0904745  18.6922604   7.4411175 101.2214936  18.5351092   7.0717785
 102.6926292  18.5258872   6.7158863  95.7333017  58.0258805   5.9771606
  96.4357580  58.4794480   6.4430592  95.4782904  58.6308629   5.2805969
  14.0418029  52.3600006  60.9993076  13.3453453  51.8258953  60.6173182
  14.7142625  52.3987722  60.3192139  33.2202721  84.8360825  81.7033291
  32.9366708  83.9336491  81.5569592  32.7368760  85.3473091  81.0543346
 106.9446886  61.1010033  23.5644218 107.4116696  61.5999562  24.2346451
 107.5699938  60.4326207  23.2842514  83.0727577  82.7509022  74.7717190
  83.2720852  83.6420059  74.4845963  82.9028606  82.8339672  75.7100487
  16.5852421  57.0981175  13.1612083  15.7070940  57.2946793  12.8349468
  17.0740813  56.8263394  12.3844120  60.0145864  88.6580753  61.4290237
  60.3461266  88.4941578  62.3118830  60.6545401  89.2539692  61.0396576
  62.3903847 104.5358753  74.3231487  62.2905684 105.4770756  74.1802597
  63.2544851 104.4448948  74.7247458  20.2282255   6.2895877  10.0990364
  20.0632542   5.4396922  10.5073235  19.3861502   6.5403325   9.7192165
  58.0478239  87.9509926  64.2811346  58.3993101  87.4928093  65.0445175
  58.5602093  87.6173782  63.5446596  58.5009909  90.8191109  81.1214542
  59.3947601  91.1549377  81.1895084  57.9698801  91.4519882  81.6047859
  74.8434192  12.7211719  70.9338188  74.8962886  13.4607844  70.3284979
  75.6062991  12.8225093  71.5030050  35.4177046  50.8794355  76.4091301
  35.9650803  51.4579821  75.8781910  34.5494723  51.2816525  76.3841105
  50.5663252  90.5830097  83.5604954  51.2575960  90.5040646  84.2178726
  50.9376049  90.1843262  82.7734566  42.9270411  60.7008076  84.9441147
  43.1922483  60.3126669  85.7779312  43.5618877  61.4011145  84.7932243
  54.9639225  89.6820259  66.8744135  55.5011034  88.9161491  66.6716862
  54.0624714  89.3693447  66.7979097  70.7168579  91.8811893  51.0850096
  70.6594276  91.8090725  50.1322603  69.8673582  92.2337246  51.3501596
  42.4374771  89.0825462  52.5742245  41.7314911  89.4143677  53.1289387
  42.5838470  89.7769260  51.9318533  97.9735088  85.2025032  63.4347153
  97.2061729  85.2783394  64.0018797  97.9580402  85.9983730  62.9031324
  13.1791651  78.8572264  91.8783855  13.0313563  79.6037722  91.2978172
  12.9465866  79.1808796  92.7486610  28.2355690  85.6799889  73.9243174
  28.6411047  85.0258255  74.4933939  28.6457849  85.5420303  73.0705452
  64.5214891  91.6692543  90.5943012  65.3042316  91.4059067  90.1103687
  63.8523817  91.7893600  89.9204350  35.5354476  87.3463917  86.2896156
  34.9319410  87.8840637  85.7768631  36.3929725  87.7474022  86.1479282
  85.5540657  97.9132748  33.9490938  85.3468609  97.7425480  33.0303192
  86.5068340  97.8354931  33.9981985  75.3604555  77.3719263  54.3106794
  75.7524872  78.0475855  53.7574863  74.4478607  77.6432133  54.4097233
  29.1589999  89.9196339  87.0053005  28.9603615  90.6332397  87.6115513
  30.0915360  89.7473717  87.1354485  83.6544258  14.7730403  63.8952541
  84.4221718  14.7071605  64.4631100  83.1590826  13.9724784  64.0683508
  49.4029713  98.9763260  56.6027021  50.1620340  99.3962765  56.1981058
  49.6661472  98.0628967  56.7150021  35.8749843 111.3682652  45.7607841
  36.7395878 111.3674736  45.3500700  35.7287979 110.4565334  46.0129976
  83.7272263 107.5246811  78.3892250  84.1252327 108.3767223  78.2107973
  83.1671619 107.3584366  77.6309872  84.6484596   1.8369727  81.0952377
  84.0360290   2.4185042  80.6446934  84.8717243   2.3023849  81.9013309
  82.1475107   9.3459087  60.0422525  82.9763490   8.9831977  59.7296762
  82.3067457  10.2876716  60.1051378  38.6330390  99.5055008  51.1295223
  38.2436800 100.2279472  51.6221714  38.2071352  99.5426273  50.2730989
  44.4160175  90.6962204  93.7135792  44.7062111  90.1774502  92.9633141
  43.4841013  90.4946518  93.7980652  26.5753961  81.2915707  79.8736238
  26.2681818  81.5944958  79.0191746  25.8082700  81.3599873  80.4420185
  16.4975488  92.8107548  85.2566814  16.9079113  91.9653702  85.4387856
  15.6458497  92.5876236  84.8811150  72.4127340 104.3795776  67.7001762
  71.7296171 103.8421249  67.2992659  72.8096104 104.8490238  66.9664621
  61.5592802  37.7261693   3.8952896  62.2667540  37.7173764   3.2505962
  60.9073604  38.3227116   3.5273621  20.2433651  32.3522145   1.5820381
  20.2741688  33.2824284   1.3584587  19.3928879  32.0559747   1.2577412
 112.8322566  38.4758908   3.9129421 112.0694793  38.2012708   3.4040424
 112.4633110  38.9081723   4.6831677 106.7438537  16.6067653  61.8710995
 106.5358907  17.5391631  61.8109846 107.2679407  16.5291743  62.6683092
  46.8471050  92.1867752  93.7978172  46.2216330  91.4739513  93.6678505
  47.6761293  91.8413353  93.4667206  32.9136324 107.6384926  56.0318136
  33.7802386 107.3865128  55.7128525  33.0763078 108.0106640  56.8985653
  34.9903417 106.2903881  69.7422743  35.2904201 106.6814709  70.5627823
  35.7770920 106.2393475  69.1994572  43.5186815 100.7371712  55.5272961
  42.6865482 101.2076283  55.5767822  43.2998753  99.8373508  55.7695532
  70.7108736 102.5934410  83.5461807  70.2976465 103.3945847  83.2242298
  71.5247059 102.5263500  83.0467701 115.2362997   1.0282951  39.2757583
 116.1912901   1.0673576  39.2237949 115.0548727   0.2101855  39.7383761
  55.0133610  73.0993938  69.2268085  55.8443546  72.7171946  68.9446592
  55.2652311  73.8560581  69.7561979 100.3897650  19.7412353  72.6265669
 100.6707603  20.3439860  71.9381142  99.7783167  19.1477924  72.1904469
  37.7766347 105.1633167  78.8570547  37.0351982 104.6565056  79.1881847
  38.0277181 105.7266331  79.5890856  81.4916801  81.1897755  32.0607805
  81.1544895  80.9645748  31.1937046  80.7087517  81.3189793  32.5960946
  82.3669655  19.6115069  72.2100973  83.0529529  19.6922736  71.5474319
  81.7912227  20.3595119  72.0512295  25.2212501  96.1038017  26.1447549
  25.8022785  95.6702995  26.7698288  25.7342339  96.8401718  25.8118296
  67.1037054  89.9593639  54.4145346  66.6546392  90.8024883  54.3535566
  66.9655514  89.6793079  55.3193617 104.5763904   3.0327468  52.6005363
 104.9167806   3.8944869  52.8408957 104.7390157   2.9648833  51.6596937
 110.8835203  10.8582931  71.9456339 111.7504913  10.4542499  71.9089603
 110.9667045  11.6521411  71.4173317  10.8485001  39.7297341   6.8152115
  11.5688866  39.1033227   6.8850872  10.0803154  39.1911275   6.6254017
  90.2450401  13.5424380  59.6768045  91.1684496  13.7769370  59.5842600
  89.9479276  13.3813338  58.7812567  63.7197208  86.3425159  60.4260445
  64.1232729  86.1443615  59.5809937  62.9598904  85.7620811  60.4705906
  17.3182511 103.8145161  43.2963991  16.3617313 103.8085651  43.3319616
  17.5733161 102.9310417  43.5621834  24.5202279  84.9399471  80.1884651
  25.2130842  84.8398972  79.5356464  24.0936112  85.7658768  79.9602938
  67.6602745  83.6115742  79.7547579  67.0982504  83.4530830  80.5132008
  68.3811522  82.9901600  79.8568058  25.2799582 110.6131554  81.4718914
  25.2945900 111.5058041  81.1266422  25.0819016 110.0657082  80.7120895
 106.2410290  14.4004493  75.7714939 106.4775259  13.4825950  75.9050655
 107.0553476  14.8814921  75.9188557  46.0319662  99.8648262  76.1507607
  45.6693316  99.8340893  77.0360804  45.6454992 100.6488895  75.7607317
  24.4884729  90.4483604  59.0705776  24.2719626  91.0060024  58.3233213
  24.3961143  89.5555878  58.7379122  78.5657508  18.0803447  70.3987169
  78.3198959  18.8732104  70.8753204  78.9485556  18.4008174  69.5820236
  98.2598114  89.3598938  41.0916948  97.6828098  90.1129055  40.9640598
  98.8007832  89.3361664  40.3023767  20.5681818  46.0933167   7.5901482
  21.2291687  45.4031998   7.5347588  20.9947890  46.8641526   7.2159168
  74.0113408   0.8503585  61.5713501  73.7535364   1.7226272  61.8695116
  74.2367870   0.3798347  62.3738575  14.1098845 111.0334873  77.5943518
  13.5451066 111.5897846  78.1308174  14.9522936 111.0383415  78.0488348
  12.6236695  77.4443871  36.5586063  12.5411003  76.5746648  36.1674377
  11.8774908  77.9342801  36.2129757  49.0736675  74.2000580  55.3961182
  49.3300724  75.0176096  55.8228445  49.8706627  73.6699343  55.3956175
  58.1671906  96.3187122  78.0757904  58.0004120  96.8727207  77.3132372
  57.4235058  95.7166386  78.1016731  55.4635477  98.4783459  60.5919075
  54.9771261  98.8587093  61.3233137  54.8629665  97.8366566  60.2127409
  66.0398776  12.5058799  50.3642750  66.5630252  13.2309775  50.7060003
  66.5839941  12.1209006  49.6772814  89.0988476  10.2171092  64.4117594
  89.4850284   9.9627833  63.5736561  89.3163950   9.4972663  65.0039864
  66.0246283   2.2116428  49.1031647  65.1222831   2.5306468  49.0875769
  66.5302831   2.9023414  48.6748266  37.7828312 102.9431057  61.8886423
  38.0206704 102.8400803  60.9672022  36.9932508 102.4121571  61.9930077
  41.4268255  84.4550610  80.2213001  42.0128298  84.1248989  79.5402622
  40.6101084  84.6488476  79.7612476  18.4358597  92.5422764  90.3255272
  17.8365600  92.7537251  89.6097279  18.9103663  93.3572960  90.4892921
 114.3760854  16.6827636  68.0111265 114.1319782  16.9166904  68.9066267
 115.1636297  17.1976333  67.8352976  54.0412235  78.5316181  89.0650177
  54.2419958  78.0302286  88.2747459  54.8496294  79.0057564  89.2596912
  39.6921802  92.0645714  81.6864872  39.3196917  91.2265491  81.9607353
  39.0121365  92.4625492  81.1429882  79.7021437 109.4715405  84.6695805
  79.9711704 110.3184509  84.3137741  78.9647102 109.6765709  85.2443695
  58.2698917 106.3534546  62.2055912  57.4906921 105.8455658  61.9794703
  58.6152697 106.6498852  61.3635254  14.5370495 109.5183945  83.9296913
  13.7466693 109.1173077  84.2911530  14.5448160 110.4033566  84.2943859
   1.0116135  10.3091102  85.5011082   1.8779027   9.9773460  85.2650928
   1.1696564  11.2083488  85.7885456  86.3469887  72.3938942  34.3372822
  85.8234692  71.5986347  34.2386842  85.7671833  73.0994272  34.0504241
  14.5233839  42.8457791  12.7189705  14.1910856  41.9484288  12.7428696
  14.7531336  42.9917485  11.8012878  72.7822399  69.0574121  82.1086121
  73.6523676  69.4525433  82.0540428  72.8068733  68.5335493  82.9093647
  53.1466883  23.5158068   4.1967365  52.8047770  24.2150075   3.6395618
  54.0688341  23.7393529   4.3228600  51.7532635 111.1577320  76.0534334
  50.8026075 111.2012100  75.9505177  52.0595646 112.0346165  75.8221865
  37.3704642  42.1418340  37.4278233  37.8519123  41.3335187  37.2515556
  37.4402207  42.2604520  38.3750793   0.3083931  14.5481639  96.0146141
   0.1738202  13.8897090  96.6962051   1.2012612  14.8620563  96.1577797
 109.5837290   0.5260520  41.5256262 109.0793831   0.2107959  40.7756376
 110.4175026   0.8103137  41.1511278  34.9780846  96.4810467  53.7665129
  34.7355008  95.9533882  54.5274067  34.8021531  95.9138680  53.0157900
   6.8934553  76.1637742  26.7472431   6.8464487  77.0977170  26.9516346
   7.6367443  76.0866124  26.1490700  84.1620142  24.6753936  78.4444141
  83.4341318  24.6891360  77.8229380  83.8354904  24.1635184  79.1844130
  44.4161224  99.0025425  84.8946571  43.5429716  99.0438080  85.2847099
  45.0112152  98.9622498  85.6433105  33.6163449  73.3316326  80.2679348
  33.6732793  73.5314417  81.2023163  34.3887615  72.7949381  80.0902748
 106.0827142  21.1451202  86.7848206 105.4876453  20.8443122  86.0980606
 105.5946237  21.8302970  87.2414684 104.1889507  47.5459342  84.5663166
 103.2494241  47.4668365  84.4012165 104.3290216  48.4819656  84.7094059
  50.4266947  79.1411454   9.1741631  49.8841017  78.4102113   8.8782570
  50.1982039  79.2507321  10.0972149  99.9046547  37.5698524  62.3632479
  99.2147142  36.9084315  62.4155331  99.8660452  37.8853660  61.4603662
  10.2828377  45.2437932  22.9947922  11.1508959  44.9656255  22.7026722
  10.1189678  44.7276837  23.7841007  70.2747869  80.6565762  67.6949883
  70.7447433  79.8685646  67.9677677  69.3629217  80.3763771  67.6160955
 112.9597599  21.0575538  85.5912209 113.0593330  20.2137618  85.1503944
 112.0465547  21.3008742  85.4392815  20.7056737  81.4493942  83.2341194
  20.1071835  80.8428764  82.7980232  21.4893746  81.4492226  82.6845360
  50.8918112  56.3847501   2.7700970  50.8532923  57.3197038   2.5686142
  50.0572031  56.1977631   3.1998703  96.8992805  88.6072731  47.3708057
  97.2866631  89.3523026  46.9113445  95.9994984  88.5675335  47.0467138
 110.8742322  87.7983665  88.1328583 110.5850412  88.6855602  87.9195881
 111.3898130  87.5255775  87.3739147  93.6261112  18.3053069  68.6347485
  93.5740072  17.4577766  69.0765667  93.8357860  18.9264922  69.3321753
  69.9686718 101.2374973  94.8180580  69.4005680 101.6418934  95.4737568
  70.1725674 101.9462967  94.2079258  92.8086645  41.3327651  73.4910250
  92.5750524  41.4759879  72.5738859  93.7599260  41.2266879  73.4821320
  28.8697355  52.5786835  10.0756428  29.6716469  52.8927476  10.4934094
  28.9673155  52.8235776   9.1554615  25.7710808  67.2618253   8.8458988
  25.8762234  67.2390992   7.8947613  26.2088459  68.0690533   9.1160461
 108.8943416  26.0501247  90.8391571 109.2903549  25.3509956  90.3189278
 109.3622381  26.8414645  90.5725479  89.7332079   3.8157230  85.8950806
  89.6584207   3.4735732  86.7859077  90.6614668   4.0277724  85.7970905
 100.7066471  20.3381400  87.5897598 101.1941082  20.7185416  88.3204556
  99.9099237  20.8656173  87.5329113 115.5751878  13.6327891  58.7047052
 115.4515869  14.1867786  57.9339600 116.1360199  14.1492705  59.2834520
   8.1016176  67.8168828   9.3075153   7.3073023  67.3243577   9.1008255
   7.7950161  68.5569817   9.8314068   9.3704831  12.1860843  95.6345749
  10.3213536  12.1967273  95.5251598   9.0269219  12.3842578  94.7634125
  10.4089230  53.1905515   5.4633781  11.0391634  53.8771207   5.2450726
   9.6988934  53.6507184   5.9109661 114.3677837  40.7022815  57.1373510
 113.8571388  40.1281219  57.7081490 115.0216800  40.1262717  56.7412853
  80.0429630  85.6996632  46.3813353  80.2720642  86.5518856  46.7521000
  79.1023159  85.6156158  46.5374136  96.5352440 110.9146309  68.9602470
  97.4650288 111.1379623  68.9172649  96.1407852 111.6271019  69.4632435
  30.6059235  67.4551446   3.1015656  29.8881262  67.3482472   2.4774048
  30.9480303  68.3315808   2.9253361  79.4365436   4.9912028  72.4886847
  79.4047481   5.9177451  72.2504902  80.2624113   4.8939757  72.9627371
 117.4333984   0.1584296  53.4993505 116.7216284   0.7969051  53.5437584
 117.1815521  -0.5246301  54.1208220 113.9880163  14.4702010  64.9042654
 113.2672245  14.4997649  64.2751217 114.6787531  13.9836078  64.4544411
  29.0124243  94.4233662  26.7386219  28.5173529  93.9360864  26.0800621
  29.8010891  94.7126920  26.2797997  87.6940662  23.3703475  63.6136389
  88.2096321  22.9490237  64.3013191  88.2737142  24.0442710  63.2585764
  62.2504061  77.0975167   2.1146652  61.7078131  76.3122613   2.0425770
  62.6237314  77.2117383   1.2406990  83.4554083  26.5126853  93.7354565
  82.7562458  26.7129474  94.3577957  83.0398447  25.9514575  93.0808067
  57.6501101  60.4320866   3.3477757  58.5956019  60.3857762   3.4896347
  57.5366133  61.1470753   2.7215645  98.5754520   4.4943957  66.3102055
  98.2659656   3.7092738  66.7619085  98.4006149   4.3229442  65.3848553
   1.3822590  33.2486968  62.3379374   1.7817437  32.3873668  62.2164917
   1.8275391  33.8107925  61.7038965  67.8124172  21.3972812  90.1754665
  67.1128995  21.7964034  90.6927776  68.5939485  21.4854674  90.7210541
  93.5282070  12.9906993  77.0674515  92.7600700  12.7483420  77.5846148
  93.6374408  12.2690253  76.4481878 103.3837253  36.2738376  68.0995464
 103.4349615  35.4677158  68.6131334 102.7248031  36.8028503  68.5492134
 105.3567065  30.9960229   8.1202194 104.6697367  31.2099320   8.7515327
 105.1464404  30.1088197   7.8288719  53.6584902 107.2889996  66.2783051
  53.4057093 107.5528526  67.1630144  53.2677746 107.9524803  65.7096577
  46.6511106 107.9050064  73.7358904  47.0356703 108.3598328  72.9865742
  47.3128223 107.2622490  73.9912939  90.4639149 100.3559017  77.0607615
  89.5692825 100.0262547  77.1456242  90.8555889  99.8123837  76.3770866
  94.1080314   4.8268180  36.5111470  94.7495586   5.0210815  35.8278203
  93.6118919   5.6391864  36.6118145  60.1164389  93.0805969  32.6207352
  60.0476122  93.6352348  33.3978271  59.2536879  93.1358814  32.2098351
  49.9875546 101.1979103  93.2343578  49.0536833 101.2501526  93.4377766
  50.2536440 100.3345490  93.5506344  37.2526377  60.4874760  36.2420055
  37.1886366  60.9593446  37.0723507  36.3440531  60.3285271  35.9861919
  57.4196738  70.8452184  12.1375820  56.9608420  71.2692315  11.4123795
  58.2865065  70.6417043  11.7862865 100.9352667  44.5089774  77.1884918
 101.6499311  44.1649585  77.7243519 100.2101452  44.6252971  77.8024149
  59.8490095 102.5282097  90.2517605  60.4509068 102.6150799  89.5125675
  60.3256226 102.9004097  90.9937382 115.1117546  12.0564609  43.4512949
 114.3027527  11.5459685  43.4175682 115.2694637  12.3156123  42.5434399
  64.7898691  97.0946557   4.1502258  65.3442591  97.7629906   4.5529816
  64.8271673  96.3551289   4.7568199  55.2817059  82.6230621  78.6472797
  55.2226210  82.8922653  77.7306175  54.3960047  82.7432919  78.9897871
 109.8076517   4.9446540  76.5928936 109.9282486   5.6414943  77.2379589
 109.9941427   5.3619247  75.7518578 112.7617455 108.7754250  90.6766796
 112.0807934 108.8043594  91.3487625 112.4636650 108.1045532  90.0624180
  39.5767260 103.3952045  52.0683813  38.9337564 102.7020931  52.2180939
  40.2672243 103.2237530  52.7087307  87.9970438   9.0536647  59.9834633
  88.1845695   8.4909778  60.7347631  87.8542406   9.9206119  60.3632498
  96.9610388  64.8197608   5.0751609  96.3808328  64.9153571   5.8304453
  97.5626880  65.5614143   5.1399368  50.6864506   2.9795127  75.2272224
  51.0743863   3.7057166  74.7389936  51.0936434   2.1967750  74.8560810
  96.7609150  11.7734199  51.2032270  97.1213752  12.2736793  50.4710770
  97.1960479  12.1329837  51.9762754   4.5748269   8.8102203  60.0548410
   4.9336087   7.9965930  60.4091311   5.3429352   9.3114715  59.7810125
  10.6419407  10.0018268  46.5272522  10.0246655   9.4771247  47.0370579
  10.3931843   9.8461585  45.6161404 106.1008061  32.2017247  12.4262497
 106.1061181  32.4269444  11.4959404 107.0256985  32.1741921  12.6713059
  91.2287552  26.1761432  72.2459269  90.4411251  26.4699321  71.7881536
  91.8631965  26.8791537  72.1063137  70.2800751  88.2828617  40.4486847
  70.8429813  88.9184570  40.8907080  69.3901062  88.5891819  40.6229115
  67.8883314 105.5131245  75.8971357  67.3822069 105.2136898  76.6523933
  68.4482622 104.7695351  75.6740046  60.3136158 100.8751869  62.9365206
  59.9274969 101.5254688  63.5232735  59.5633554 100.4673386  62.5040817
  44.7523689 109.2905807  47.4007797  45.4705048 108.8900185  47.8907394
  43.9599752 108.9575958  47.8220510   7.4225205  38.9986951   4.9508545
   7.4521893  38.4135968   5.7078335   6.7337721  39.6289498   5.1621410
  34.1636502  11.4863734  81.5443325  35.1066815  11.5630870  81.3992786
  33.8185536  12.3557620  81.3410854 105.3358347   3.9755969  71.5708637
 105.8103639   4.3744998  70.8415318 104.9165422   4.7123675  72.0153761
  79.0064669  89.0447140  73.0555105  78.3500099  88.6597538  73.6361170
  79.6093035  88.3258533  72.8656101  47.8651047  77.0135975  67.1948290
  47.3333216  76.3561869  67.6434374  48.3933306  76.5115547  66.5742159
  13.8199173  18.5938888  81.6366768  14.1785180  19.3395953  81.1554623
  14.5648800  18.2432132  82.1248245 107.7239115   2.9671912  56.6138268
 106.8743784   2.8210693  56.1976767 107.5125820   3.3799319  57.4512148
  15.7377087  19.5496326  43.7923336  15.2872597  20.3939586  43.7714005
  16.6127335  19.7531085  44.1227102  81.8871593 103.0951309  20.4689217
  81.0515118 102.6629353  20.6453705  82.4285316 102.8900719  21.2312245
  63.1328297  85.9365177  66.0647535  63.7209129  86.6606617  66.2792587
  63.7089396  85.2540779  65.7203722  22.7968043  72.6170594   5.3921673
  22.3883122  71.9338090   4.8606274  22.9182118  72.2119672   6.2508843
  48.9332485 106.5675640  69.2631865  49.5188475 106.5295410  68.5069704
  49.0232515 107.4623394  69.5910692  64.9409342  96.4288139  56.8079424
  64.4333124  96.4658833  57.6186085  65.8535004  96.4241314  57.0967817
  78.1536770 110.7796669  66.1150265  77.2423553 110.5962276  66.3432312
  78.4923029 109.9448204  65.7916164 111.1493284  15.1046138  74.4716978
 111.2110597  14.7820430  75.3707933 111.9962532  14.8890262  74.0812206
  87.4229431 100.9190845  79.2786074  87.5881100 101.8285561  79.0299892
  86.7299366 100.9727573  79.9367046  60.3687716  81.0936356  35.7010984
  61.1415577  81.5609837  35.3838921  59.7298717  81.1792564  34.9934912
   4.5062863   6.6403632  67.5932646   5.2264058   6.7650275  68.2114220
   4.6614586   5.7743220  67.2162724  52.8207445 108.1428051  45.7502508
  53.2297134 108.6746311  45.0675011  53.4156322 108.2127762  46.4968729
  26.1529194  66.4267974  34.8802423  26.5217816  65.5747657  35.1130843
  25.7805001  66.2963157  34.0081668  95.6896973 111.3043118  53.4976768
  96.0951519 112.1620369  53.6247492  96.3987350 110.6793976  53.6492729
  93.6147291  17.1283774  73.6795235  92.9001934  16.6454940  73.2642031
  93.9039642  16.5607314  74.3939114  57.3870277  67.9659414  83.6467552
  58.0824327  67.4205208  83.2791138  56.8935347  67.3742485  84.2147255
  88.1101448  35.6784396  83.3973312  88.9044124  35.6811862  83.9315224
  87.5738270  36.3824515  83.7619591 102.7711660  33.7896304  29.5273781
 103.0358536  34.4530921  30.1645541 103.5328323  33.2151752  29.4493222
  32.1012371  64.1422517   1.4048550  32.9866284  64.2265469   1.0509941
  31.5982788  64.8219258   0.9561894  10.4073017  29.6056039   3.7988636
   9.5426911  29.9786908   3.6271355  10.6294649  29.1359097   2.9949543
  99.1238195  12.5692706  91.4583111  99.1016609  11.6178184  91.5606022
  99.5662767  12.7099376  90.6212425  13.5794579   7.7233653  47.1073961
  13.1403100   7.6545196  47.9551220  12.9060589   7.4883132  46.4690256
  52.1084070 101.7502975  85.7306290  52.6518250 101.9526291  86.4921951
  52.5658607 102.1574783  84.9949932  23.1821667  35.6406837  92.6495552
  22.2325455  35.7580524  92.6236057  23.5183751  36.2655406  92.0070934
  74.2748785 104.3611622  77.7879190  74.8237944 103.9152241  78.4329462
  73.9105320 105.1098251  78.2601452  39.0191876  45.1919131  69.2031717
  38.6617981  45.2177005  70.0907755  39.8475300  45.6676250  69.2645836
  21.3185954 101.3349056  35.3403306  20.8160520 101.6562557  36.0889411
  20.6795788 101.2768459  34.6300340 111.3996536  41.6590552  76.6653013
 110.9238893  41.0188060  76.1361980 110.7335216  42.0384174  77.2385263
  87.0698816   2.1691661  95.5287743  87.9019005   1.9188361  95.9304047
  87.2951919   2.3801761  94.6227074 115.3956634   5.6039958  95.6188393
 116.3458854   5.4987960  95.6662273 115.0509674   4.9375301  96.2131786
  82.5245094  95.8593178  22.3166108  81.8555164  95.4629803  22.8748298
  82.9166317  96.5422630  22.8607249 109.7066576  11.9199996  57.1700764
 110.5598003  12.2725635  57.4232149 109.1270954  12.6816802  57.1568441
 117.0083648   6.3461738  54.8182487 117.8179962   6.1149364  54.3629980
 116.3641149   6.4581447  54.1192245 102.8520662  27.3859744  73.0375004
 102.5919277  26.6430431  73.5821152 102.5979645  27.1329551  72.1500111
  25.7083672  44.4545132   3.3596012  26.0359686  45.0206811   4.0584251
  24.8508614  44.8181302   3.1389210  87.4479181   2.4179416  80.9986687
  87.4304373   3.3607535  81.1630917  86.5449316   2.1979766  80.7696342
  61.4888651  20.7378535  26.2711287  62.3977429  20.9402042  26.0492563
  61.1335832  21.5629630  26.6015840  91.7980671 109.4439220  70.3437090
  91.5999317 109.8839855  71.1703396  92.5863743 109.8815632  70.0223351
 116.1420376  18.7653213  72.8103638 116.2730629  18.1982761  72.0504141
 115.7239086  18.2012038  73.4608746  52.3493290  93.0609226  85.0527000
  51.4475536  92.8632545  85.3056145  52.7192402  93.5075665  85.8142185
   1.1752384  22.8263146  12.9112885   1.0030192  23.6111266  12.3910496
   1.9591492  23.0412824  13.4167549  52.1317118  88.8492543   3.4889385
  52.4693220  88.0653054   3.0557129  52.9136866  89.3498761   3.7215874
  64.0611553  82.1166897  86.8426037  64.7565222  82.7525902  87.0108891
  64.2115402  81.8301105  85.9417725 117.5063974   2.6693492  83.5090160
 117.4794800   3.5277515  83.9316845 117.5376922   2.8644137  82.5724316
  96.1157703  83.5179329  75.7169437  95.8066559  84.2488956  76.2520790
  96.9947529  83.3335876  76.0480690  85.1710731  11.1040931  62.5030851
  84.4536287  10.5399947  62.7917099  84.7457821  11.7841106  61.9806480
  37.9248368   3.6874251  94.6721745  38.6672722   4.0956073  94.2267418
  37.1541916   4.0820556  94.2640114  67.9425287  72.9178858  52.3455048
  68.4187317  72.2273636  52.8066301  67.9652262  72.6517344  51.4263344
  96.3265896 110.3232670  83.0653000  95.7192707 109.7869682  82.5556087
  96.8018055 110.8348560  82.4105644  92.3770428  74.6306992  91.2917709
  92.7564049  75.4978609  91.4344120  92.9155350  74.0434837  91.8222809
  16.8953961  63.9984757   8.9014885  16.1343783  63.8502652   8.3401272
  17.3748797  64.7073323   8.4727070  95.2682001   3.5064750  75.7505226
  95.4145319   2.6439242  76.1388779  95.7454521   4.1097312  76.3202095
  97.3948986  26.1253886  75.2273941  97.7080518  25.8143764  74.3780136
  97.9938347  25.7321410  75.8621120  88.0003262  90.7465839  84.6013927
  87.6195717  90.9555054  83.7483978  87.4782181  90.0117111  84.9232388
  38.4883326  40.1115758   7.5269386  38.5933941  39.1769463   7.7048370
  38.7887734  40.2188641   6.6244671  64.4811964 107.4777412  56.8424797
  64.4762754 108.4252930  56.7070055  64.3944454 107.3707676  57.7897167
  38.3217978  89.9366951  77.2240925  38.6313128  90.8246803  77.4027586
  38.2139826  89.5419788  78.0894279 105.2909738  13.0581241  62.1569204
 105.1456339  13.5589843  61.3542700 105.8783037  13.6057143  62.6779032
  50.4965830  94.6980095  48.0038071  49.8893881  95.3642559  48.3257675
  50.0896740  94.3707180  47.2016001 103.9068014  20.3997855  65.8723593
 103.2269127  19.7779327  65.6129646 103.4318477  21.2092738  66.0604620
  85.0795078  76.2906456  44.0099239  84.1380215  76.1602879  43.8966370
  85.3156281  76.9289637  43.3368492  62.5132751  83.5406876  75.1003742
  63.2563210  83.5083675  74.4978189  62.9000378  83.4035683  75.9651518
  50.2480238  80.6903512  15.2067444  50.8379191  80.3813893  14.5191357
  50.8272379  81.0777242  15.8630058   2.3531472  21.2097793  89.7968006
   2.8385579  21.3942580  90.6009007   1.4329564  21.2633567  90.0548840
  38.9943051 103.8631058  47.3692703  38.3395195 103.1761837  47.4942875
  39.2967129 104.0695477  48.2536745  68.2737923  72.5903320  73.7693977
  68.2408190  71.6650963  73.5263348  69.1263294  72.6968813  74.1913700
  11.3088070  13.9893108  84.0707397  11.6900193  13.1978183  84.4508076
  11.5447842  13.9476161  83.1440258  51.4498425 111.0702801  62.5348759
  50.8367729 111.4741707  63.1490803  51.0212040 110.2568722  62.2686434
 103.0048258   2.9660850  70.5338383 103.7935669   3.3796363  70.8846903
 102.7710373   2.3049121  71.1853123  99.3034822  24.9641566  76.7092323
  99.4039041  25.9100490  76.6022682  99.8100788  24.7567992  77.4944639
  98.9453632  12.2879558  63.9922619  99.3726808  12.5570159  63.1790972
  98.5482628  11.4418941  63.7855721   4.1875779   6.3359695  94.3987179
   3.4496056   6.8811278  94.1258907   3.8820015   5.8998447  95.1941109
  40.4591625 104.9363953   8.9604733  41.2542647 104.8653466   8.4322712
  40.2213495 104.0305764   9.1583797  63.4511995  99.4444847  94.5276356
  62.8974724  98.8098240  94.0728474  63.5751343 100.1514244  93.8943100
 108.6583215   2.6014762  86.9420338 107.8632910   2.2036510  87.2968483
 108.6978990   2.2916656  86.0372162  23.6205214  52.8201634   8.4132359
  22.9138249  53.3199555   8.8219235  24.3911379  53.0149991   8.9465401
  90.9261448  14.5057540  85.5405426  90.4198200  14.3836360  84.7374535
  90.4160148  15.1336436  86.0521698  11.1906563  25.6050735  66.1229658
  10.6842171  24.8011546  66.0069132  12.0974194  25.3080516  66.1989975
  21.6929024  34.9789101  19.3773720  21.9469469  35.1067883  20.2913448
  22.4620455  35.2479512  18.8751099  11.0746037  17.9952006  77.6349878
  11.3456284  17.1104674  77.8800011  10.1253258  17.9975562  77.7578449
  50.1104498  99.9442959  82.2197723  49.3247366  99.4043541  82.1341133
  49.9846506 100.4218864  83.0397129  65.6669474 107.0274162  83.0075073
  65.5220604 107.9303932  82.7248669  64.9012327 106.5504837  82.6874447
  74.5232541  27.9455333  88.2184792  75.3499610  27.6808601  88.6218929
  74.6889526  28.8293891  87.8904915  87.3803980  10.7348209  73.7157583
  87.0461780  11.4457660  74.2626524  87.3435575  11.0809474  72.8240919
  98.8983089  16.0555129  47.1509981  99.3765718  16.1227756  47.9774189
  99.4324190  15.4720740  46.6119671  31.0704184 109.8638058  48.4568882
  31.9342685 110.2744865  48.4204483  30.9574914 109.6247196  49.3768454
  11.2475430   0.0815158  89.3978977  12.1597706   0.3191714  89.2317677
  10.9541451   0.7064586  90.0609207  67.7832848   0.2154975  80.1451111
  67.9333622   0.7876735  79.3925714  67.1365244  -0.4197163  79.8378134
  92.7960491 105.8291149  62.3188019  92.1392918 105.5199909  61.6948223
  92.8121185 105.1584244  63.0015564   1.0477864  10.4969268  78.2647514
   1.5418183   9.8512225  77.7595425   0.2081334  10.5651622  77.8102636
  43.1667649  14.3267207  75.6230736  42.9270588  13.5109477  76.0627222
  42.5190007  14.4217734  74.9247932 108.5846740   0.0927596  57.7637815
 108.1031305   0.5221419  57.0566940 107.9880268   0.1213794  58.5117292
  11.7590480 106.2647247  86.5821171  11.8422274 107.1393108  86.2021160
  11.3591056 105.7394791  85.8890152  30.3990590   9.4885116  78.8380480
  29.9951493   8.6607890  78.5773754  29.6604191  10.0779109  78.9905167
  68.5720778  88.7664127  91.2607002  69.0153837  89.5197964  91.6507435
  68.9555168  88.0082321  91.7015743 117.2353822  39.4191699  82.9787254
 117.0793277  39.2456107  82.0504189 117.4200851  38.5588412  83.3554935
  33.4089112 109.8723888  72.2960711  33.6888647 109.0585613  72.7150393
  32.4980187 109.9813843  72.5692415  96.3219005  23.7223773  58.1228542
  96.9827825  23.6184840  57.4382544  95.9893162  24.6117263  58.0017090
  42.9084778  93.4283543  63.5825109  42.0993328  93.6314106  64.0518522
  43.4579277  94.2022896  63.7064552  75.1072437   2.6436954  75.2329588
  76.0444171   2.6254802  75.0390434  75.0417668   3.1334262  76.0527802
  82.2668076 105.6781578  38.4056497  81.6798496 106.3513660  38.7498951
  83.1367874 106.0752964  38.4464073   8.8652455  26.8711524  89.7163963
   8.9885937  25.9393554  89.5353699   7.9244076  26.9634967  89.8664665
  70.1100969  87.6280880  58.6547899  70.1481962  87.1853638  59.5026016
  69.9838305  88.5516453  58.8723230  77.8428156  16.0988860  75.4063749
  78.0626017  16.9209437  74.9680328  78.2303530  16.1810260  76.2777519
  85.6760597 110.2786255  48.9108419  85.5399513 109.9106503  48.0377436
  84.8186874 110.6219387  49.1623878  79.0556437   7.2725635  84.6549892
  78.1450350   7.3768096  84.3790245  79.2518336   6.3503318  84.4899940
  78.6355240   7.5775294  89.9010944  79.2607218   6.8716579  90.0657368
  78.8848860   8.2667689  90.5167198  26.1821008  90.6622124  61.1429596
  25.6752825  90.5302334  60.3417444  27.0660949  90.8645248  60.8365917
  79.4736368  17.7178722  74.0736961  79.3711812  18.6691623  74.1015148
  79.9412376  17.5511699  73.2552910  30.8790129  78.1261498   2.6165363
  30.3975886  77.8849465   3.4079144  30.5470818  78.9948136   2.3896763
  73.9780045  93.7408638  95.9377670  74.0417004  92.9144859  96.4165974
  74.8414326  93.8547039  95.5405807  28.4598606  50.1426369  11.3408730
  28.7134951  50.2912099  12.2518227  28.3645695  51.0209519  10.9724876
 115.5026132   9.0634780  60.2010965 116.4031774   8.8614993  60.4549074
 115.5768186   9.4140201  59.3134880  93.7288666  86.3821411  39.2501616
  93.8298702  87.3267078  39.1325426  93.5823727  86.0450363  38.3663440
   8.7295186   7.5535731  67.9369068   8.3304917   7.7513938  67.0896244
   9.3303524   8.2818370  68.0945587 110.0097448  16.5048270  82.7014065
 109.1043503  16.7264896  82.4837971 110.2592642  17.1444850  83.3683491
 101.1932213   8.6633926  77.7338934 101.1771042   7.7669578  78.0691242
 100.7376606   9.1768127  78.4010458   1.3363205  31.1097484  56.0473776
   2.1378647  30.7350879  56.4126015   1.4998948  31.1532264  55.1052570
 105.3386718  53.0064254  85.9566593 104.6727163  53.6841636  85.8409214
 105.4885704  52.9768043  86.9015884 104.2106563   3.0675464  65.1918173
 103.4357006   3.2194476  65.7327414 104.8879034   3.6191516  65.5833483
  89.8536110 110.5097675  51.5073586  89.0082455 110.9348965  51.6518116
  89.8288822 109.7319412  52.0646811  77.9987144  59.6313810  40.5801058
  77.9942465  60.5113935  40.2035475  78.9263487  59.4071293  40.6538486
  71.2923009  12.3300605  84.9258232  71.9369871  11.6408496  84.7658539
  70.8498937  12.0619540  85.7311916  68.9524061  28.0676036  85.3198910
  68.2426531  28.6966472  85.1903248  69.7473222  28.6008220  85.3236485
  13.1087130  20.8437211   7.7308056  12.5865763  20.0568444   7.8871223
  13.0515784  21.3357026   8.5499069  11.9198244  87.6123673   9.3528435
  12.7347296  88.1064851   9.4423077  12.1173352  86.9408566   8.6999294
  85.0135881  30.3672557  76.8549013  85.2317936  31.1113410  76.2936831
  85.7077867  30.3525214  77.5137711  35.3430861  71.3340146   1.1432144
  36.0305756  71.8874413   0.7726643  34.6154326  71.9337804   1.3076565
  92.4933941  20.9605746  75.1527119  93.2360632  20.4512553  74.8282623
  92.1184141  21.3629680  74.3693256 109.7701771  66.1272483  38.7177825
 109.8541862  65.1738029  38.7071037 108.9149791  66.2878852  39.1166115
  40.8032643  16.2925201  89.4983864  41.1429917  15.8117061  90.2531242
  41.2504803  17.1381526  89.5320320  21.8800311  84.5821381  95.2732468
  21.3982444  83.7938690  95.0227737  22.4859385  84.2867088  95.9528351
  86.0518724  25.6690650  73.2377195  85.3221256  25.7373386  73.8533831
  85.6697065  25.8885722  72.3880148  49.0685957  74.5575673  19.0604374
  48.6831682  74.2425591  18.2428619  49.9319475  74.8847157  18.8077995
  56.4733809  78.8733727  17.5514671  56.0727709  79.5179517  16.9681522
  56.2590330  78.0278165  17.1573422  82.0331400  72.8974778  12.9498550
  82.6057833  72.9003007  12.1828434  82.2907561  73.6757523  13.4439632
  14.2975365  47.7869754  45.8943844  13.6549508  48.1327491  45.2749062
  13.7723862  47.3554092  46.5683317  18.5911595  33.7263160  92.6742744
  17.7692257  34.1206889  92.3825073  18.8432728  33.1416564  91.9595528
  17.5721680   9.9437480  59.2266655  18.5209977   9.8250156  59.2698097
  17.4350487  10.8626227  59.4570684  86.7383324   6.0524421  90.1631927
  87.3313271   6.8033271  90.1352310  85.9735810   6.3689761  90.6439972
  99.6616394   3.5394244  96.6980553  99.8728782   2.6094108  96.6163349
 100.2801687   3.9777808  96.1136723  69.0876007  90.7200336  56.8367195
  69.6634197  90.6189060  57.5946379  69.6054268  90.3998566  56.0980940
  86.7242622  95.4642200  86.4779663  85.9250164  95.2880859  86.9743729
  87.0413876  94.5988178  86.2196350   4.4432198  49.1271453  66.8193197
   3.9389264  48.3916240  67.1670485   4.0065228  49.3495422  65.9970856
   8.6065995   6.7227893  77.2743416   7.6494919   6.7131572  77.2659397
   8.8562428   5.8038955  77.1766615   5.1511036   7.5442271  46.7591143
   5.1166760   6.9384723  46.0187721   5.8214795   8.1825214  46.5153503
 111.4165986  38.5243851   0.7293675 110.8441628  38.5528142   1.4960072
 111.5533126  39.4431645   0.4983303  80.6492710 101.9110012  83.1530666
  80.2569580 101.3883781  82.4536514  80.0285244 102.6256847  83.2950020
  36.5918922  93.4065437  45.4840136  37.3065042  93.4854698  44.8520899
  35.9937334  94.1192818  45.2593994 106.4060003   4.3914657  65.9207344
 106.4947063   4.5913653  66.8526125 107.0864660   4.9150710  65.4976130
  89.3280506 111.1217022  93.1175423  88.6848164 110.4742146  92.8290081
  88.9865589 111.4431763  93.9519787 108.4646017   1.9867473  84.2994881
 108.3319027   2.5784545  83.5588741 108.0813200   1.1570983  84.0148735
   2.4272477  34.9053340  80.0540829   2.9549729  34.4367080  80.7007027
   3.0117737  35.0186305  79.3045950  12.0296132  11.7442947  94.7185898
  12.6705109  12.3596530  95.0746918  12.0664727  11.8811565  93.7719440
   0.8086621  25.5986362  50.0667620   1.6416394  25.9033542  50.4266644
   1.0372101  24.8186069  49.5612335 115.3144724  22.4838214  72.5681639
 115.2570564  21.8815284  73.3098984 116.2405950  22.4783282  72.3262978
 103.8224966  12.2909598  51.9783449 104.5318348  11.9255118  52.5070381
 104.2400057  12.9789786  51.4601278 104.9198723 111.6415119  91.9926834
 104.5263290 111.5273857  92.8577518 105.5875683 110.9575748  91.9411945
  25.0894200  29.9471431  51.6938543  25.8747136  29.5712047  52.0916176
  25.3684269  30.8070998  51.3794279   2.9692476  68.3952195  16.3643238
   2.4062079  68.0103165  17.0359394   2.5474947  69.2261941  16.1456177
 107.9118044   2.3057323  81.2719440 107.4561578   1.5771823  80.8502388
 108.8299782   2.0358043  81.2898540   8.3705937  38.9746528  59.1817999
   7.9687344  39.6347766  59.7465754   9.2344033  39.3309169  58.9740896
  34.3005692   7.9459720  66.5962076  33.7291180   7.2559791  66.9332457
  34.1886269   7.9069858  65.6463766  39.3694704  51.3847882  18.5508320
  39.2246311  50.7785756  19.2773029  38.6491602  52.0119054  18.6149380
  73.1996059 109.8862839  74.2066431  72.8229618 110.6430721  73.7575960
  72.7750778 109.8811054  75.0645399  83.3082897  25.4832511  15.3050482
  82.5513584  25.9337669  15.6796515  83.8086731  25.1838927  16.0641468
  23.6350857  49.7837119  72.3130322  24.0491711  50.6461578  72.2823668
  22.7182137  49.9503188  72.0943642  99.3379814  41.8990188  88.7291431
 100.1288826  41.7000537  89.2302704  99.3570644  42.8496604  88.6189747
  92.6465494  26.8399577  86.3130188  92.9772503  27.4603706  85.6634331
  92.8789932  27.2291904  87.1560478  26.3185441  13.1143241  65.3737926
  26.3817250  13.8887363  65.9328270  25.5537163  13.2788329  64.8222351
   6.3432347   3.0197768  56.5053082   7.1550023   3.2846885  56.0727739
   6.5262162   2.1423965  56.8413925  46.2053126  78.6940629   1.1732456
  46.5881651  78.2053143   0.4447052  45.8950632  78.0195481   1.7774078
  10.7248627  28.6944156  69.0027285  10.6365811  29.3832927  69.6614265
  11.6021573  28.8199191  68.6410141  84.8980141  89.3023491  89.1973305
  84.2331219  89.1475868  89.8683071  85.6711483  88.8352489  89.5140362
  12.8854691  12.9240661  89.4145012  12.5264775  12.0436149  89.5247746
  12.9422413  13.2727389  90.3041363  48.2115971  15.1398044  96.3135910
  49.0283906  15.3550582  95.8633137  47.5418984  15.1890330  95.6314564
 112.4379284  13.2735591  60.2176237 111.8518669  12.5329833  60.0616932
 113.2427198  12.8762107  60.5502701  85.1178486  20.7814078  74.6162319
  85.0646908  21.4214854  75.3259516  84.7724945  19.9734836  74.9959803
  92.3805362  30.4667239  71.6050196  91.8868524  29.9675899  72.2556925
  93.2742531  30.1307540  71.6730404  99.0548069  26.0079532  70.3201675
  98.4561855  26.7360740  70.4866838  98.6741955  25.5518108  69.5696354
  13.1823956   8.9650397  52.3518181  13.5725628   8.4018760  53.0202866
  13.7129914   8.8117557  51.5700245 101.5730221  21.4339309  71.0470438
 102.4968034  21.2404304  71.2064791 101.5780193  22.0172649  70.2881384
 101.2892342 110.9647179  66.8829203 100.8333683 110.5398846  66.1563253
 102.1534920 110.5535030  66.8966532 102.9054481  34.6799140  70.6998873
 102.2352201  34.0092616  70.5685472 103.1007225  34.6432452  71.6362381
  89.6503288  14.3728976  82.3523998  90.5859167  14.4041305  82.1525764
  89.2223675  14.6328979  81.5366268  33.1505936  63.1453187   3.6407444
  32.6144713  62.3865945   3.8712666  32.7002352  63.5386140   2.8932640
  27.5381791  29.6512942  30.4052758  27.6765572  29.5998912  29.4595265
  26.6678368  29.2765861  30.5407047  92.7602035  21.2988334  56.4890194
  92.8938467  22.0522266  57.0641518  92.6599437  20.5569606  57.0855093
  67.1509027 105.6950092  66.2446880  66.3653803 105.1793671  66.0622215
  66.9133091 106.5888405  65.9980440  18.0341755  24.3088775  67.1645784
  18.9328038  24.6222739  67.2670031  18.0709874  23.3876662  67.4219561
 103.1025058   8.7617545  65.6668377 102.2822744   8.3857398  65.3473663
 103.2205803   9.5562511  65.1461935  49.7487753  59.4201810  11.7552444
  50.0924414  58.9779908  10.9789726  49.0232962  59.9512822  11.4268658
  80.8352852 103.4025764  78.6748934  81.6135025 103.0979633  79.1416025
  80.8651161 102.9445171  77.8349400  59.9048805 104.7008324  28.0843353
  59.3318558 104.9478722  27.3584962  60.5551147 105.4020691  28.1255245
  42.9528141  99.0243053  45.3509998  42.6585579  99.8923206  45.6270361
  42.2289371  98.4417057  45.5808115 116.5085727  32.2013240  81.1572933
 116.4040167  31.6614776  81.9407940 115.6199295  32.4832206  80.9403324
  15.4472672  29.6590381  62.6948309  15.4087101  30.5791144  62.9559803
  14.9069535  29.2038970  63.3406973 111.0930187  10.5651908  78.5594463
 110.7448179   9.7641807  78.9510679 110.5754024  11.2682681  78.9518547
  96.1573219  92.6694298  90.3439713  96.2172508  93.5904121  90.5977821
  96.1790562  92.6827717  89.3871117 116.2623674  27.8076320  56.7483425
 116.0845882  27.9371028  57.6799345 117.1874792  28.0318217  56.6476345
 103.1071073  19.0260940  91.2692356 103.0988247  19.1844134  92.2132111
 102.4618894  19.6396403  90.9178066   9.8677319  79.9087197  26.1978409
  10.5640190  80.2438218  26.7627499   9.0579146  80.1946408  26.6205475
 110.3863907  83.2508564  59.3207693 109.6808147  83.6730194  58.8306952
 110.3347111  83.6366081  60.1952744   1.4416348  26.6023212  62.7413416
   0.8273064  27.1904044  63.1806517   0.9260355  25.8199077  62.5458479
  94.4642765  53.9358192  46.6649866  94.4082147  53.5728316  47.5489092
  94.9354107  53.2711272  46.1625385  60.6938171  97.2039986  57.5050640
  61.2932158  97.7927971  57.0465040  61.2129831  96.4177990  57.6741505
  18.2475792  38.9614444  79.3060541  18.5639035  39.2337947  80.1674461
  17.9942070  39.7776084  78.8748932   8.4984147  50.8773666  82.4568748
   9.1788517  51.1812835  81.8561554   8.6370312  49.9321990  82.5173378
 115.0817377   0.8274703  75.7838869 114.4473964   0.1266246  75.6333590
 114.5997411   1.4823871  76.2888527  75.3831053 111.2097168  66.9920397
  74.6365595 110.7201099  66.6468000  75.1524496 112.1281528  66.8523741
 113.1053335  17.0430522  76.0927343 113.0554134  17.3787456  76.9877481
 113.4145719  16.1425834  76.1915684 106.3013727  27.0073943  53.9783192
 106.2817651  26.2416225  53.4043455 107.1978552  27.3356776  53.9091396
  34.2311512  45.1573901  56.4529657  34.7134530  44.3436103  56.5992260
  34.4209801  45.3881793  55.5436087 113.0856878   9.9435573  51.8078947
 113.5660345   9.2931228  51.2956142 113.3712131   9.7966914  52.7096367
  77.2414606  91.0945851  11.9090054  77.2382849  90.3212697  12.4731037
  78.0362719  91.5675980  12.1555016 112.8989012  17.7911239  56.2174892
 113.5508806  18.2637458  55.7000160 113.1492359  17.9560142  57.1265411
 101.4079124  19.9229961  75.2011108 100.5903322  19.7967773  75.6826305
 101.1361725  20.0162940  74.2880487  14.5350586   0.3266101  70.3170538
  14.0364872   1.1127620  70.5398130  15.0546299   0.5806213  69.5543194
 103.8035328   3.6370235  61.2468529 104.3083173   3.4667068  62.0421028
 103.6983377   2.7765041  60.8410454  15.8344113   4.5984321  73.8809299
  14.9806248   4.1794162  73.7727594  15.9339653   5.1441150  73.1008339
  48.6279028  80.1233632   1.6994450  47.9661768  79.4486768   1.5473053
  49.2996710  79.9532182   1.0391304  17.6846920  25.2543597  80.2136993
  18.4760891  25.4372649  80.7201195  16.9909226  25.7257419  80.6749153
   7.9152428   9.8635917  88.6557770   7.1838032   9.2703872  88.8270473
   7.5772988  10.7310443  88.8783455  11.5943848  32.0092635  44.4381714
  11.8750512  32.6383357  43.7735367  12.0845734  31.2123828  44.2358685
 113.3474952  38.9743381  58.9210796 113.1546861  39.4234710  59.7440863
 112.4900896  38.7173991  58.5818672  46.4015955  18.5921054  54.8012781
  46.8652386  17.9104667  54.3148279  46.8793005  19.3968444  54.6002340
  12.1157013   7.5759463  84.0377617  11.8304860   8.1707530  84.7313690
  12.7523648   7.0008521  84.4622040  50.6657999  15.5278594  10.8975956
  50.4318732  16.2347180  10.2960560  50.2675360  14.7460706  10.5149338
 103.3909102  32.7778530  67.0150566 102.6552506  33.0072665  67.5828648
 103.2554491  33.3004594  66.2246323  12.9668117  40.4545450  78.3217764
  12.3631370  39.8826170  78.7958097  12.4216902  41.1817122  78.0212736
 117.0380406  19.0409398  53.2339525 117.5346553  18.4425628  52.6757860
 116.6443852  19.6655941  52.6247931 117.1608054   4.4708014  71.3936615
 118.0797044   4.3085957  71.1802483 116.9918539   5.3550434  71.0683870
  89.8383136   1.6188549  68.8002682  90.6240578   1.1069738  68.6083937
  90.1697870   2.4359351  69.1727400  70.0867374 108.5768236  39.5189524
  70.4597355 108.6895965  40.3932476  69.5838190 109.3771575  39.3680549
  52.1348328  96.5117218   1.8438217  52.5152642  96.7246439   2.6959774
  52.2455162  97.3091938   1.3261196 111.8988003  53.8039875  64.5681572
 112.6152839  53.1785536  64.6763992 112.3335750  54.6371937  64.3865871
  24.4053912  42.0965004  75.6471825  24.2792511  42.4335289  74.7602081
  23.5189104  42.0007181  75.9953356  98.4645761 105.0849385  72.9472733
  98.0615402 105.7798506  72.4268007  98.0999125 105.2006872  73.8246870
  18.5273421   0.6418359  64.7601700  18.5737967   1.3095316  65.4444599
  18.4553945  -0.1850846  65.2368832 100.0717605 103.9042140  60.1407051
 100.1116575 103.1672145  59.5312214  99.7185195 103.5290636  60.9473753
 115.6242718  53.4219551  72.2980642 116.1850974  53.9413691  71.7219400
 115.0248013  54.0589714  72.6867533 107.8040309  38.4615993  45.7058191
 108.4721585  38.3989239  45.0232458 107.6698573  37.5584984  45.9932899
  13.0611086  36.7220616  64.9027967  13.2133460  37.0739603  64.0257454
  12.1157229  36.5773559  64.9420357  68.3570612 109.4532652  64.7508478
  69.1417749 109.6519290  64.2399788  68.1877030 110.2521706  65.2501488
  64.3836177 100.4288132  43.6285400  65.3188647 100.2648396  43.7496090
  64.0005268 100.2802665  44.4930696  29.4057131   1.1206566  48.6889982
  29.2730880   0.1735197  48.6493254  29.9519396   1.2537740  49.4636917
  30.4423165   3.5637617  56.6563940  30.4962420   3.2922766  57.5727034
  30.1419234   4.4718704  56.6929293   4.1075698  25.5405188  30.3022981
   5.0132906  25.4702091  30.0007057   3.9575183  24.7363520  30.7993197
 115.1179399  47.1158028  71.2636614 116.0482456  46.9112301  71.3580704
 115.0617073  48.0569744  71.4287949  32.9160047  14.2604101  31.9534254
  32.2195506  13.6951900  31.6191983  33.0578542  13.9603388  32.8512406
  99.1099937  28.3258772  34.8767996  99.6202786  28.2252669  34.0732336
  99.6502395  27.9217052  35.5557775 112.1894301 101.5354694  57.6267004
 111.3890971 101.3728411  58.1259489 112.6206864 102.2520680  58.0922508
   2.3603695 100.4156728  86.7717171   1.9019192  99.5976634  86.5795803
   1.7727679 101.1003418  86.4520550  11.6204321   9.0589857  86.5518570
  11.1348724   9.6836060  87.0906639  11.1370087   8.2378328  86.6426468
 113.9826358 101.6838683  88.4068298 113.2757748 102.0012749  87.8448391
 113.8532389 100.7361157  88.4422493  22.4318760  88.8376470  25.7275558
  23.0472916  89.3893523  26.2103748  22.4703997  89.1654367  24.8290563
  27.4813294  20.4067755  67.9683542  28.1720567  20.2468038  68.6114216
  27.4417138  21.3600659  67.8915358  69.4441027 100.8002121  89.6528816
  69.0432329 101.6363777  89.4154739  70.0492073 101.0174675  90.3620243
  14.6612477  17.1402836  45.6239319  14.2446959  16.4085722  46.0792542
  14.0151918  17.4170411  44.9741268  17.9740191  49.2350388  42.4660158
  18.3660257  49.3376970  41.5988207  17.2170627  49.8208523  42.4575567
  37.1383882  18.0792761  73.7702894  37.5250459  17.7323699  74.5742702
  37.5827885  17.6057363  73.0670834 104.8293050  57.3154259  67.3676348
 104.5576723  57.9741907  66.7285109 104.3918486  57.5740147  68.1788063
  19.2007864  49.4539452  57.8435278  18.5686517  49.1708326  57.1828556
  19.9117649  49.8507309  57.3402357  37.4828792   1.4866734  52.3364496
  37.9579592   1.8386854  51.5837097  37.2698998   0.5876532  52.0861816
  28.9088655  35.7931352  58.1302452  28.5306549  36.6704535  58.1894398
  29.0256286  35.6454730  57.1917391  39.2877555  17.6637113  84.5183659
  39.3600798  18.5681498  84.2134190  38.3606267  17.4494183  84.4147110
  26.8297839   6.9835395  77.5249863  26.5975904   6.7559367  78.4252691
  26.0443234   7.4030083  77.1738005  96.7655552  90.5197687  36.7007542
  97.2837175  91.0781855  36.1211777  96.9041718  89.6336193  36.3664508
  32.7935863  38.5940719  59.6265173  32.9880595  38.8032794  60.5401039
  33.4455705  37.9352140  59.3876600  68.8781435 106.1010743  54.1392517
  68.8382144 106.5960200  54.9575853  68.0727280 106.3353408  53.6781073
  37.9891133  50.5084419  60.3376818  38.6998773  49.8677731  60.3133678
  38.4314251  51.3542604  60.4096889 108.1174464  44.3512487  71.1683559
 109.0494741  44.1909599  71.0204935 107.9094060  43.8465595  71.9546366
 107.5147100   1.9271216  71.4992762 108.2117601   1.9042836  72.1548939
 106.9185956   2.6098281  71.8071604  50.6610632   5.9314239  45.4813385
  51.5155268   5.5234224  45.3411102  50.6698370   6.7052954  44.9180651
  18.3350480  12.8928030  38.4491205  19.0083158  13.5682166  38.3669162
  18.5920715  12.3913300  39.2228746  51.4459241 108.0853058   5.7028157
  51.1765278 108.9760919   5.9267741  51.7365111 107.7071581   6.5327525
  13.1218266  26.1093831  28.9285326  13.5914648  25.2881742  29.0744305
  13.5371459  26.4884520  28.1539059  33.9740944  34.4421935  51.2618923
  33.8194895  33.7831855  51.9386768  33.2372594  35.0475955  51.3443184
  30.1104749  44.8695101   3.3372757  31.0548044  44.7199728   3.2913086
  29.7770411  44.1375126   3.8561508 108.5093559  27.6384592  48.0632639
 108.0579455  28.4821725  48.0385780 107.8432865  27.0190907  48.3615398
  21.5351057  52.6677942  51.7761421  22.3809052  52.2199535  51.7589664
  21.7573786  53.5983038  51.8073988  26.1858773  61.3580084  33.4379292
  27.0972776  61.5858459  33.6214280  26.0593581  60.5119753  33.8674045
 102.6130374  43.0357552  78.7993431 103.4556766  43.0015469  79.2521381
 102.1045192  42.3226357  79.1854906   1.8262132  25.1261067  43.8955545
   1.7977795  24.4850302  44.6057987   1.5738937  24.6312594  43.1160069
  42.0504236  24.6585965  78.5916328  42.9098225  24.3903637  78.9167690
  41.4273167  24.1878462  79.1451311  94.0252794 102.5448556  26.5897489
  93.4303094 102.6513351  27.3319793  94.0097965 101.6061534  26.4031219
  27.5015688  20.8306098  54.3320274  28.3626270  21.2310386  54.4523001
  27.4635315  20.1408529  54.9946165  20.3331208  26.7809439  44.9716139
  19.7849548  27.2730875  45.5827904  20.4152536  27.3536134  44.2090273
  23.0263901   5.6324881  87.4295425  23.0482674   6.4875263  86.9998169
  22.8779793   5.0102788  86.7174625  33.1236982  13.0447042  34.6288157
  32.7585459  13.5679567  35.3423309  33.4964132  12.2765589  35.0615621
  13.4824729  22.2427630  23.7341118  13.0913353  21.6345382  23.1069708
  14.3797815  21.9284415  23.8448811  55.3074778 102.8649081  52.7393055
  54.8800887 103.0456103  51.9020987  55.3597535 103.7178565  53.1705570
  88.7247045  97.8976412  94.8119164  87.9207356  97.3869605  94.9071598
  89.4285453  97.2548897  94.8997307   6.5335912  13.9369607  59.8341560
   6.8526614  14.5814931  60.4658222   6.8613440  13.0989945  60.1606894
  27.5779939  36.5237069  49.2192554  28.3524823  36.8163729  49.6996117
  26.8756557  36.5316153  49.8695564 109.3785705   1.1124714  47.7178383
 109.9953987   0.5645220  48.2031250 109.9182017   1.8118581  47.3492050
  20.3402233  41.0567236  85.0843525  19.5022428  40.6410694  84.8812485
  20.4157996  41.7671871  84.4473553  79.1241732  93.2078226  50.7110834
  79.5825192  92.6365895  51.3273954  78.9211961  93.9937062  51.2184477
   6.5092391  19.1798723  38.8576913   6.5055078  18.2238626  38.8101125
   7.4347502  19.4123399  38.9326572   9.1674918  45.9836626  54.0783548
  10.0370717  45.8835316  54.4656992   8.6990684  46.5559769  54.6860266
 104.9035843  28.9205647  52.8691483 104.5541055  29.3102527  53.6705494
 105.3488631  28.1260467  53.1636000  16.0454309  38.4872556  18.5411334
  15.1682162  38.8283491  18.7154400  16.2543094  37.9587102  19.3113554
 115.1940239 109.2478846  86.0811615 114.7799433 108.3992458  85.9243774
 115.9025801 109.2909364  85.4390335  25.8958697   9.3087971  72.5434208
  26.1483073   9.7250408  71.7192554  25.5650258  10.0269127  73.0829430
 116.6606828   8.3467317  52.3338127 115.9251024   8.5241979  52.9200411
 116.4709170   8.8608116  51.5489960  11.8761480  12.6243198  64.4033432
  12.5119138  11.9087851  64.3967438  12.2611845  13.2920682  63.8358116
  11.6878355  51.1198473  68.3529186  12.5786519  50.7717752  68.3919716
  11.5202463  51.4486885  69.2360973 109.9507566  73.0987835  49.8701477
 110.9032996  73.0860233  49.7767162 109.7531380  73.9794636  50.1888752
  16.9233871  14.5475531  46.8150425  16.8839312  15.4469538  47.1402359
  16.4728713  14.0312338  47.4833822  12.6057112  40.0181293  65.3010702
  13.3182001  39.7323561  64.7292948  12.2425354  40.7886124  64.8643875
  30.7971311  22.8858709  49.4164276  30.9569860  21.9846988  49.1361237
  30.2359581  22.8009820  50.1872110  15.2168882   6.4584225  71.9505167
  14.4601047   6.2593210  71.3992739  15.9699523   6.3610452  71.3677263
  99.2647899  97.6102347  22.4835420  99.0305890  97.9774029  23.3359337
  99.9257530  96.9469054  22.6819134 107.8308554   7.1186936  54.4676399
 107.0564933   7.2201043  55.0210953 108.5423775   6.9382793  55.0819874
  21.8788975 108.2754971  61.2486982  21.9759959 107.3472969  61.0359812
  21.9008129 108.3055912  62.2051716  36.1189866   7.7330762  38.9765310
  36.0177755   8.0832922  39.8615932  36.7985415   8.2779473  38.5796046
  12.7779579  51.8041658  74.0346289  13.6327791  51.9024420  73.6152840
  12.4540484  52.6997328  74.1309452   7.0798004  55.1467133  48.0758238
   7.3704380  55.6175184  47.2947311   6.8930477  55.8347368  48.7145519
  34.5678926  45.4209185  74.8914719  33.6822867  45.7503080  74.7383738
  34.6008754  44.5917940  74.4143009  74.7287516  97.9243131  81.7727280
  73.8347636  97.9704888  81.4337826  75.0001312  97.0208807  81.6102695
  17.6955891  23.3485484  46.1062479  18.4397864  22.8186989  46.3920116
  17.8683436  23.5251212  45.1814747  12.1459663  45.4850149  77.6891661
  12.1451998  45.4665756  76.7321444  11.6711891  46.2852716  77.9136848
   4.5621559  16.9150293  48.7160397   5.3182799  17.4980903  48.6485910
   4.8795730  16.0725760  48.3908510  24.2205620  44.0610695  40.9649563
  24.3873668  43.2160568  40.5473852  24.7435093  44.6846247  40.4610443
  95.2054782  21.0550475  42.5746155  95.5733533  20.9046102  43.4454012
  94.2697783  21.1848402  42.7290583 106.7561312  11.4423728  68.8357925
 105.9000237  11.7835999  69.0943956 107.3342056  11.6686666  69.5643902
  12.9780138  41.0371304  60.5874538  13.6541677  40.5171013  60.1531553
  13.1718111  40.9504747  61.5208197  49.2591619  32.2531509  32.1838546
  48.6087465  31.5806556  32.3861909  48.8446283  32.7923274  31.5102935
 109.5848645 110.1138489  55.6457710 109.2405737 109.4158926  55.0884962
 110.4589761 109.8129448  55.8939981  60.9103478 107.8055904  80.5644512
  60.7108451 107.5422205  79.6660805  60.3396595 108.5568587  80.7261372
   9.2644787  43.1445932  63.5056782   8.3167803  43.1202412  63.6379910
   9.3793958  42.9913044  62.5678492   9.1366214  26.7011166  46.9822168
   9.6330982  27.4519205  46.6565847   9.6792620  25.9429526  46.7655134
   0.5838642  53.3028698  34.7968292  -0.2281762  53.4771538  34.3209672
   0.4091654  52.4959564  35.2811885 116.7412019  43.7460852  73.7106752
 116.4019734  44.6273804  73.5542345 117.0095892  43.7523460  74.6294594
  16.5608478  17.3322010  47.9091167  16.6693473  17.7365351  48.7699127
  15.9140813  17.8815651  47.4662542 108.9927740  10.2369797  65.1617098
 108.3591176   9.6876103  64.7002935 109.5596994   9.6161038  65.6192446
   7.6421893  37.0718670  67.2529650   7.2467434  36.7818522  66.4309263
   6.9114107  37.4295235  67.7572250  16.1950314  33.4919977  44.1555119
  16.9134164  32.8966999  43.9415598  16.4641476  33.9074278  44.9747944
  22.5992489  12.9020190  66.0635567  23.5065913  13.1395733  65.8724213
  22.4648428  12.0761955  65.5985975   9.3503875  25.3473401  72.4740839
   9.2211103  26.2943935  72.4230242   8.7655473  25.0633025  73.1765890
 109.2166771  65.1203871  12.0502770 108.9985181  64.5272923  11.3313341
 109.0414543  65.9943390  11.7013669  16.1620915   5.2942961  40.2420998
  16.2081110   4.3864509  40.5419827  16.0127246   5.8025986  41.0393095
  47.8081417  17.4094820  64.5652771  47.4715376  17.1433449  63.7096500
  47.3732615  18.2430267  64.7450352  16.1803997  53.3093405  53.9696121
  16.8946815  53.5376549  54.5645142  15.4020131  53.6963987  54.3702793
  14.5619249  19.6882761  46.8199205  15.3527856  19.9092424  46.3280392
  14.3371797  18.8048780  46.5278101  78.9488155  84.7371461   1.5237400
  78.3653528  84.5114304   0.7992622  78.8440282  84.0193249   2.1482250
  15.2542818  52.0984221  72.7527857  15.9930456  51.7616510  73.2597828
  15.2594686  51.5795898  71.9484091  67.1531547  96.2555153  27.0794392
  66.9711483  96.3726325  28.0118489  66.3854493  95.7942660  26.7416382
  29.6799374  47.1958971  19.6838868  30.1095819  47.5896549  18.9245522
  29.8792005  46.2622452  19.6144056  19.2971694  14.0932012  62.9413033
  20.1649356  14.4568586  62.7653313  18.7691593  14.8482645  63.2007599
  49.1946602  16.0590494  38.5205913  48.4751320  16.3093793  39.1001129
  49.4008398  16.8582177  38.0357695  32.5355434  32.0591879  39.3330574
  32.5706267  31.3783479  40.0049639  33.0067396  32.7988029  39.7166944
  35.8714867  21.0178399  48.8624334  35.2162623  21.3368511  49.4830322
  35.6473136  21.4460421  48.0362225  90.8747197  94.6911676  62.6025534
  90.9929396  93.8411267  63.0264521  91.3057352  95.3131337  63.1887436
  87.3878784 109.8025608  75.5067396  88.2192058 109.3405214  75.3988218
  86.7207194 109.1415901  75.3216791  12.3254287  12.0916593  45.6167316
  13.0108011  11.7273295  46.1768723  11.6355705  11.4280963  45.6199312
  60.9755087  15.8499849  85.1490593  60.6941175  15.9559786  84.2403221
  60.1617861  15.8484602  85.6531334  80.2030055  99.6760375  78.2129622
  79.2810282  99.8764474  78.3742857  80.5360110 100.4413290  77.7442741
  13.6545992  54.6642017  41.0587692  13.6584044  53.7755537  41.4144611
  14.3191147  55.1286936  41.5675879  19.9105978   8.7466627  91.2181759
  19.0737700   8.7789905  90.7545948  20.3482699   7.9705012  90.8685303
 113.2818694  46.3291025  90.5086327 114.1060336  46.7969370  90.6432247
 113.2271196  45.7229567  91.2474346  58.5444892 105.1365472  56.4885569
  59.1782952 105.8340074  56.3210154  58.7392081 104.4721199  55.8276081
 116.6185320 111.2335045  72.8092957 117.1866191 111.6534650  72.1634340
 115.7645143 111.1826138  72.3799992  48.9003140  34.8813249   7.5490448
  49.4942719  35.6100728   7.3691151  49.4598157  34.2049624   7.9307816
  33.4407663  36.9254112  46.3533020  33.3258152  36.7501068  45.4193354
  34.2917323  36.5421820  46.5659666  69.5900900 105.6399841  84.1466236
  69.8614574 106.0511989  83.3259583  68.6810721 105.9160406  84.2637253
   5.0595182  28.9592147  43.4406233   4.2990464  28.3799195  43.3923435
   4.8257717  29.6063709  44.1060400  18.4914231  27.5666595  47.1425533
  17.5373769  27.5695562  47.2201347  18.8020444  27.3289156  48.0161810
  96.5605427 111.2649908  13.0723739  95.6351782 111.2021747  12.8357553
  96.6828943 110.5915957  13.7415528  20.3396177  24.7264957  42.9998922
  20.5302906  25.3222513  43.7244272  19.6010363  24.2019868  43.3091164
   8.2293195  21.2602687  49.4132328   7.9420125  20.6669354  50.1072407
   8.1473261  22.1338511  49.7958040  23.1711864  29.1149426  29.6055675
  22.2805953  28.9823461  29.2807651  23.2359171  30.0592017  29.7484422
 113.1677742  46.9685316  62.5198841 112.7294244  46.4590740  63.2014513
 112.7128984  46.7295170  61.7122984   6.1999631  12.6288188  73.3977461
   6.1879158  12.0941103  74.1915798   6.5510017  13.4725428  73.6825848
 103.5244436  58.2367611  62.8338337 102.6127632  58.2733774  62.5444746
 103.9395113  57.6118612  62.2393131  43.1769657  13.3595717  43.1426048
  42.9716110  13.9454913  43.8711357  44.1330719  13.3602571  43.0968714
 117.9945303  46.0043001  93.1899548 117.2273564  46.1081362  93.7528896
 117.6332207  45.8970737  92.3100758 115.0990854  39.7862339  37.5607085
 114.2233275  39.7489715  37.9452753 114.9830003  40.2782202  36.7478704
   6.2191308  36.0447097  91.8027592   6.8429923  35.9923816  91.0786819
   6.7521888  36.2821794  92.5615025  32.0035267  49.1331720  48.7098503
  31.6339016  49.9753809  48.4447289  31.2774134  48.6757565  49.1338396
  26.0544920  23.4059238  32.7869844  25.2830744  23.0717301  33.2446551
  26.1002421  24.3287563  33.0370212  45.4817152  52.0755672  18.9726818
  44.9231434  52.8291559  18.7820697  45.7749319  51.7714214  18.1137574
  23.3585477  19.3747163  38.2335997  23.5341477  18.7188339  38.9082956
  24.2180872  19.7416902  38.0268335  25.3832078  45.2090168  13.3209956
  24.9439812  45.7145262  14.0049326  25.8616662  45.8621120  12.8103375
  50.1280928  37.3477674  58.3736753  50.7883978  37.3532748  57.6807117
  49.5296860  36.6419840  58.1287003  18.9266360  11.7257929  85.1440430
  18.3378053  11.0719717  84.7671795  18.3952713  12.5195885  85.2054596
  11.9948077  54.8664474  37.8370214  12.6431894  54.2009926  38.0672479
  11.2245893  54.3668079  37.5661850   5.5034506  27.9798675  78.7743139
   5.8503234  27.3757386  79.4307709   4.7069886  27.5554466  78.4553337
  12.6642430  59.5692062  78.9604902  12.1701729  58.9996862  78.3707619
  12.0174265  59.8738813  79.5969152  98.5037495 106.8415533  83.6302280
  98.7997712 107.2541757  84.4416142  98.6999298 107.4847410  82.9490089
  65.3341246  16.0900736  83.8614750  65.9154034  15.6014311  83.2787418
  65.7567358  16.9431257  83.9611435  18.2161582  63.2288599  14.9119890
  17.5476289  63.7336254  15.3751457  18.7154639  63.8837051  14.4240308
   5.9159172  39.2105651  86.0977077   6.2639183  40.0994778  86.0272503
   5.3222889  39.1259146  85.3516006   4.4469672  36.0430193  70.9961128
   4.6795687  35.3047657  70.4329872   3.5013223  36.1407089  70.8845615
  19.9371386  28.4488368  59.8218298  19.0400314  28.7195420  59.6265125
  20.0982761  27.7113247  59.2333221  27.8020334  25.8766460  64.6575546
  27.8435493  25.0917006  65.2037859  27.7056170  26.5970540  65.2804089
   9.0420502  12.3306787  57.4155998   9.5685786  11.6288257  57.7982235
   9.0349913  13.0162072  58.0836058   8.2187349  34.6961832  51.6518497
   8.8382298  34.5340014  50.9404039   7.6848400  35.4279137  51.3424015
  80.5524469 110.4688912  75.2833080  79.8257855 111.0653321  75.4634571
  80.1514473 109.7380448  74.8128891  71.8980122  12.3958242  37.1018696
  71.4328051  11.5831065  36.9036245  72.6640463  12.1170461  37.6035714
  36.2332773  39.6473408  14.0025580  36.7930007  38.9134431  13.7489128
  36.6729641  40.0332165  14.7601926  45.1448536  32.8122306  50.7664728
  44.9962473  31.8761778  50.6324911  45.3569984  33.1481242  49.8956108
  16.8251562  11.2778294  63.0015326  17.1036351  11.7942834  62.2452545
  17.5230730  11.4000440  63.6451197  40.6693029  40.2438354  12.8121030
  41.1807299  40.0907850  12.0175934  41.3157797  40.5117273  13.4651959
  13.1879723  61.5123367  56.3496304  13.6066711  60.6575441  56.4508867
  13.2639217  61.9199371  57.2123718  38.1897473  17.4989486  35.7156157
  38.2021952  17.7699637  34.7976685  38.5679889  18.2397974  36.1892271
  14.4744337  33.1383038  81.4558315  13.5378790  33.2587171  81.2989902
  14.5226848  32.3988438  82.0617199  59.3097401  16.7743099  67.8129339
  59.6762943  17.5893950  68.1557226  58.5577536  17.0513535  67.2894907
 109.2603405  29.7756457  51.5717411 109.2271764  28.8205791  51.5171671
 110.1262887  30.0048995  51.2343884  21.6921806  16.4579630  36.3891435
  21.3499403  16.1764765  35.5406928  22.2582293  15.7388258  36.6696119
  22.0660114  27.3428273  31.3895798  22.7580833  27.6566792  30.8075428
  22.1644831  27.8680062  32.1837568  47.0892000  11.7699003  75.8150768
  46.9616938  11.4255238  74.9311209  46.7351532  12.6584983  75.7793188
 110.6644763  28.1761408  64.8120928 110.2868606  28.6913013  65.5250072
 109.9088807  27.7888608  64.3701410   5.0628793  14.7739863  66.0908175
   4.9763957  13.8343441  66.2515163   4.1663265  15.0753546  65.9438419
 110.1780982  37.6312590  50.2620411 109.5582856  37.6941943  50.9887505
 110.2631898  36.6916323  50.1005125  11.9969141  38.4838271  52.1601963
  11.8437815  39.4174290  52.0146942  11.5372491  38.2901931  52.9771709
  29.4427538  42.9454994  43.1388998  28.7909532  42.4964523  43.6771774
  30.2833915  42.6956463  43.5224771  76.0373444  93.6060936  65.9327507
  75.4173298  94.3352647  65.9438181  76.6744376  93.8230736  66.6133881
  35.0155735  36.9788885  59.7766542  35.6477499  37.5573730  60.2031994
  35.0879431  36.1519957  60.2533579 112.4934805  87.4683757  51.8192291
 112.5690783  88.1068678  51.1101151 112.1982420  87.9804416  52.5721264
  33.3756518  31.9826508  32.7771664  33.0057406  31.6865969  33.6088824
  32.6926184  32.5326633  32.3935175 102.3011387 108.9122153  38.7095785
 102.1967209 108.8612572  39.6597004 101.4818324 108.5623641  38.3594751
  32.1083784  61.7866802  73.9534950  31.7405701  61.1186743  73.3749437
  32.2135258  62.5563574  73.3942318  10.1216674  45.8952045  62.0444489
   9.3490666  45.6666565  61.5276432   9.9813616  46.8086243  62.2938681
  93.3346237 108.7792192  66.4726305  94.1328145 108.8613279  66.9945288
  92.7294637 108.2956780  67.0349455 107.3537798  27.5282049  68.2389307
 106.8921979  27.2427464  69.0274000 108.2724626  27.3219514  68.4112978
  26.1552238  35.6429887  53.9942408  26.7656469  35.2071190  53.3995676
  26.0551286  35.0323868  54.7245693  49.2711115  33.7825370  74.1603613
  49.6984529  34.2754316  73.4598827  48.7121964  34.4244194  74.5983410
   3.5155833   6.4847153  70.4021788   2.8959996   5.7824320  70.2043295
   3.4657663   7.0683897  69.6451664  15.1113653  23.6311436  58.2565832
  15.8731484  24.0271831  58.6797523  14.9068356  24.2209768  57.5309849
  53.9428491  79.2633336  74.3456271  53.7684042  80.1906174  74.5067003
  53.6312777  78.8203829  75.1348975  62.9497433  32.2827125  56.8383026
  62.6760435  32.3004103  55.9212351  63.3811426  31.4346981  56.9431782
 105.0623102  34.2501855  72.5116968 104.8851223  34.5590448  73.4002018
 105.9988744  34.4036508  72.3870945  97.0285316  57.7376413  69.5691156
  97.4047084  57.5271749  68.7144661  96.0949679  57.5494623  69.4727945
  23.6218095  26.0818577  82.6296806  22.7167511  26.0790873  82.9412842
  23.8313723  27.0082450  82.5108433  36.4873195  27.1310234   3.3614820
  37.2632694  26.7448831   2.9552460  35.7641864  26.5732622   3.0747512
  15.1853817 110.9033504  57.6055622  14.6965426 111.2052179  58.3711624
  15.4611843 111.7072649  57.1652365   0.6082424  12.9888260  31.6218805
   0.8968118  13.7426460  31.1073756  -0.1556351  13.3059657  32.1036959
   6.0153198  18.4294176  42.7704287   5.5921406  18.9729893  42.1058369
   5.4502499  17.6605463  42.8463364  35.1599741   3.9728227  57.7368927
  34.5009685   4.6624634  57.6572800  35.0576758   3.6458123  58.6306667
   4.0439567  55.7527637  68.4398127   4.9680591  55.9842062  68.3465290
   3.6062643  56.2241077  67.7309465  17.1078742   5.1252550  37.7535796
  17.0799768   5.1768929  38.7089777  17.3559558   4.2192063  37.5698304
  65.4018974   1.6764697  43.7938213  65.9446287   2.2636212  44.3200636
  64.5040703   1.8832599  44.0533972  22.1909881  10.6740654  49.4853783
  22.0198965  11.4192021  50.0613403  22.2804356  11.0603440  48.6141586
  18.7042272  43.3918619  38.0799174  19.4889450  43.6396074  37.5909662
  18.1536722  42.9434490  37.4380088   0.1640981  95.9498317  51.6165113
  -0.6052238  95.8590097  52.1787643   0.7611960  95.2637977  51.9149446
  32.0570946  41.3915062  35.6177330  32.1559167  42.2804689  35.9586287
  32.8318429  41.2567616  35.0719833 117.1512250  59.2531824  16.1974144
 117.7922084  59.3923903  15.5002832 117.0706319  60.1069403  16.6226602
  19.0696514  20.4238200  54.5862913  19.8928332  20.6771421  54.1686392
  19.2925990  20.3193521  55.5112839  42.2817564   7.1860772  92.4289608
  42.2625494   6.2820387  92.1149921  43.2027626   7.3495644  92.6320744
  21.6658854  43.0983686  73.4509850  21.4519715  42.4561167  74.1277266
  21.1296868  42.8429556  72.7003241  24.9571800   7.8635800  55.5568123
  25.4809189   7.5208032  56.2809896  24.6977329   7.0873433  55.0604486
 111.7932738   0.4728514  49.2447329 111.6197021   0.9925508  50.0295973
 112.6996441   0.6792390  49.0164137  29.4444513  40.0244331  96.0715771
  29.4380021  39.8684239  97.0159626  29.7197342  40.9367514  95.9814072
  92.0304556  28.7826061  53.1978035  91.1262293  28.5504556  53.4092569
  92.5281425  28.5440016  53.9798546  94.7872968  51.1700726  40.1524353
  94.9266262  50.4088640  39.5890689  94.1693015  51.7170286  39.6675062
 103.7767394  49.6641779  59.9370146 102.8277774  49.7886992  59.9229670
 103.9010794  48.7442684  59.7034645  28.4015131  12.8503954  89.4561005
  29.1663003  13.2229102  89.0172768  27.7543616  12.7425277  88.7591171
  46.6062450  32.3932242  44.2470121  46.1865091  31.7037654  43.7325239
  47.5369501  32.1700525  44.2323971 112.3600645  28.0538344  87.6860905
 111.9067664  28.8724518  87.4845409 113.2847668  28.2481599  87.5331306
  44.6990824  56.0174274  58.5151672  44.5918179  56.3080549  57.6094818
  43.8116455  56.0189676  58.8738966 113.2641591  42.8254843  55.4609632
 113.6453830  42.0122862  55.7920313 112.7981295  43.1943989  56.2112617
  93.6010761   1.3721263  71.9392681  94.3730469   0.9836680  72.3508358
  92.9058047   0.7293902  72.0796871   3.9979416  49.7507858  58.0855465
   3.1844166  49.3420935  57.7899456   3.8478351  50.6897736  57.9760027
   5.2415740  28.1079340  53.7026024   4.5376605  28.5023737  53.1876707
   5.9222996  28.7802172  53.7322474  71.5038282  65.5162855   2.0379707
  72.4535996  65.5438461   2.1537659  71.3793689  65.4693218   1.0900662
  41.7389822  44.1925621  38.4604740  42.0308161  43.4857941  37.8846741
  41.0168934  44.6049881  37.9864240   9.3271858  15.5976987  53.8062763
   9.3901962  14.6878827  54.0969563   9.5960480  16.1115956  54.5677567
 113.4092010 111.2247835  62.6239777 113.6375535 111.3743648  63.5414267
 114.1103877 110.6647789  62.2908688  36.9617224  42.2780991  40.4996347
  36.3547587  42.9577303  40.7927752  37.6950574  42.3313475  41.1125135
 109.8433484  35.8197308  64.9371910 109.0283956  35.4962230  64.5532322
 110.4548402  35.8606625  64.2019129  29.4349551  49.3035698  21.2141538
  29.4571638  48.5385323  20.6392956  28.5029244  49.4821262  21.3393259
  16.0312629  61.2766123  54.4491529  16.1637497  61.1345530  55.3864336
  16.8674469  61.6242647  54.1390467  26.1585689  34.3696761  70.0111961
  25.6386352  35.1300049  69.7508097  26.3288784  33.9041781  69.1923332
  99.6773542  94.7939117  11.7818034  99.3413533  93.9553316  11.4653909
  99.7101582  94.6951313  12.7333283  14.8656714  39.1057873  86.8939972
  15.3389966  39.2491174  87.7135468  14.8390234  39.9678755  86.4788818
  75.3913520  16.1404282   4.9323628  75.2215696  16.4705760   5.8146450
  75.9974716  16.7758138   4.5513985  98.9846428  15.8041394  56.6496754
  98.1220741  15.5899227  57.0050907  98.8165791  16.0354888  55.7361841
  16.2382698  14.4917822  44.2075348  16.5207577  14.4415712  45.1207209
  16.6107368  15.3129888  43.8864136 110.6643934  38.7596655  37.6938820
 111.3422103  38.9626884  38.3385348 110.6350566  39.5300126  37.1264863
  56.5052795  48.4913206  90.0598145  55.7767773  47.8707266  90.0793076
  56.0908270  49.3429041  89.9210358  18.2520783  39.6129179  50.2399397
  17.9823554  39.6477985  49.3221903  17.9307461  38.7670040  50.5520344
  -0.1184748  35.7659078  65.1938391  -0.1996864  36.5200901  64.6100187
   0.7530674  35.4146242  65.0115013  13.7428737  46.7654848  60.3364325
  13.6028910  46.5834045  61.2656736  12.8701770  46.7092848  59.9472380
  17.6310110  48.0590391  59.6505165  18.2461262  48.7777567  59.5045471
  16.7683113  48.4728432  59.6231985   7.1953160  27.5496268  81.6424370
   6.8004447  26.6781306  81.6707230   6.7845178  28.0223179  82.3663425
   8.2007235  54.8530769  84.1926098   8.1680858  54.8455620  83.2359982
   8.5704899  55.7080412  84.4129372 114.8251562  27.0353723  31.6145277
 114.6451719  27.5701356  30.8413100 115.6509910  27.3783398  31.9559979
  20.4869962  39.2723179  64.7228098  19.8976362  40.0255775  64.7614002
  21.3062859  39.5895171  65.1027822  97.7725554 110.5097694  40.4262924
  96.8469692 110.7266648  40.3145838  97.7711309 109.6001078  40.7241917
  13.8710845   6.0801679  85.5989361  13.5550928   5.4742843  86.2692165
  14.8246968   6.0102093  85.6432247   9.9215871  52.4017906  33.9787817
   9.7914135  52.4887562  33.0344701   9.0456504  52.2352743  34.3269753
  26.9307375  43.6643839  52.6318979  26.1772299  44.0780497  52.2107792
  27.3123217  44.3558359  53.1727505  40.3012991  66.8589687   9.0852118
  40.7172728  67.6358223   8.7114489  39.8892307  67.1719408   9.8904943
  66.2213100 106.2881572  35.7555056  66.3398124 105.4769601  36.2496185
  67.0350243 106.7732136  35.8926964 101.5380271  56.8881845  36.9699383
 101.7387338  57.7704906  37.2821546 102.3520859  56.5855742  36.5674853
  27.5832629  46.6620827  47.9930544  28.0526567  47.4332857  47.6750231
  27.4948430  46.1009264  47.2226524  64.3386633 106.5578367  12.5378964
  63.7396795 107.0961286  12.0205090  64.0339619 106.6595508  13.4395859
  75.6011114  34.4634778   4.1697475  74.6726982  34.6390874   4.3228504
  75.6746868  34.3754823   3.2194397  48.5910606  37.8920126  29.1004515
  47.9117203  37.9026103  29.7747064  48.3588934  37.1530104  28.5381293
 115.8786690  39.3338513  72.7142620 114.9795808  39.5983315  72.9090023
 115.7926616  38.4673977  72.3166561   7.6951647  61.9951057  48.1952381
   7.7474767  61.0411024  48.1371307   8.4899378  62.3054314  47.7613449
   8.7011212  95.6555338  35.5523729   9.0727871  94.9202199  35.0651264
   7.8803557  95.8517940  35.1006508  31.3617754  47.3313284  59.9997330
  31.9644237  47.9523563  59.5906258  31.9304061  46.7097282  60.4541588
  50.1574564  38.7724400  79.2192650  50.5138254  39.2624974  78.4782648
  49.8602772  37.9457951  78.8390350 104.3271728  34.3421984  75.4566240
 104.2817552  35.0529480  76.0961580 104.6163113  33.5828400  75.9625959
   5.7808280  41.9295025  29.1471958   5.3961784  42.7466917  29.4641733
   5.3909451  41.8008375  28.2825184 113.0871905  53.7223768  77.0172071
 113.0988820  53.0700922  77.7176523 112.1653367  53.7904024  76.7686319
 103.8936622  64.2402267  76.2597370 103.5370858  65.0424671  75.8783054
 104.8135276  64.4437790  76.4289856  29.0820074  14.6291447  36.7317581
  28.8828111  14.1978824  35.9007549  29.6237373  13.9979160  37.2053719
  19.9987411  46.6357660  32.1087623  20.1127315  47.5768757  31.9762659
  20.8008909  46.3572025  32.5505614  97.9113079 106.3485618  75.7616854
  98.5689188 106.8410901  75.2705717  98.4119130 105.8821876  76.4311028
 117.0650830  41.0688686  29.7912955 117.1357734  40.2570772  29.2890716
 117.7688359  41.6221857  29.4524670 113.6687578  23.5333061  85.1175880
 113.6007063  22.6039886  85.3366089 113.0529065  23.6547923  84.3949604
  10.1535654  19.4408917  45.6801891   9.5120341  18.9415753  45.1748657
  11.0009480  19.1643858  45.3313065   9.6599007  23.9430356  53.7544441
   9.5159179  23.4325862  52.9576159   9.3781602  23.3649182  54.4634104
  20.9048748  15.3064656  34.2792296  21.7382669  15.3085816  33.8083935
  20.3256583  14.7694743  33.7385082  19.5860910  16.4577854  54.9588823
  19.6580470  17.0108318  55.7368231  18.7614799  15.9860134  55.0758362
  28.7478614  58.8728619  48.1357908  29.4262671  59.1695023  47.5291586
  28.7715745  59.5085144  48.8510609  71.7517138 108.4500856  56.5966988
  70.9875537 108.9779730  56.3651276  71.4613623 107.9215838  57.3400784
 106.1800690  24.7151899  52.6777697 106.9012208  24.1514802  52.9577780
 105.3919394  24.2017603  52.8551817   8.5955757  52.0122576  75.4238701
   8.4181291  52.1859646  74.4994402   9.3310642  52.5860357  75.6385088
  46.5078092  81.1900284  19.2374203  46.3671381  80.2460338  19.1645214
  46.0746187  81.4342810  20.0553009  98.7526954 100.5049474  66.9565153
  98.5586394 100.8538897  67.8264666  98.3216239  99.6504755  66.9395590
  29.6582794  15.2450562  66.2775946  30.0919843  14.3917680  66.2719345
  29.9979997  15.6915510  65.5020523  52.2485924  51.6478014  55.2780676
  52.3968267  52.0180178  56.1482430  53.0409288  51.1431456  55.0943375
  31.3115191  34.7987509  11.4361417  31.5217233  34.0772915  12.0290518
  31.3340831  35.5787230  11.9905496  16.7698705   7.4088818  66.2165117
  17.4888194   7.3081785  65.5926514  16.0424078   7.7429920  65.6917238
  22.2840333  40.6623316  47.2941637  22.0533180  40.8591843  46.3862848
  22.9541922  41.3086128  47.5165176  47.3872709  50.0371265  68.4719896
  47.5510311  49.1149044  68.2747126  46.4533663  50.1567745  68.2995558
  11.7834485  32.1718597  41.0245848  12.5954640  31.6732907  40.9335279
  11.8154037  32.8133607  40.3148746  91.5561362  34.2292762  30.4647946
  92.2313519  34.7324467  30.0096774  91.3049002  34.7808743  31.2056398
  11.6199684  50.7896090  37.4948931  10.8827472  50.3448725  37.9131579
  12.3700345  50.5878544  38.0542922  30.9281826  66.2407064  82.1719456
  31.0500169  66.5188169  83.0797100  30.8002663  67.0558834  81.6868114
  59.9673713 104.5563532  63.2174253  59.2427684 105.1072718  62.9213333
  59.5964015 103.6749728  63.2596302   5.6201369  43.2169437  72.2038507
   6.2145531  42.7255535  72.7708054   5.2290857  42.5539589  71.6348505
  17.4614108  41.7064762  81.6810894  16.5652871  41.9574881  81.9051170
  18.0054939  42.3960543  82.0614719  10.9487045  22.3833108  18.4617972
  11.7954147  22.0183635  18.2046449  10.8813918  22.1956635  19.3980074
  33.5087895  42.6965570  40.9172153  34.0441203  43.4075260  41.2695980
  33.9032626  41.9005013  41.2734699   4.4220912  36.7240953  56.0792303
   4.9468553  36.8059659  55.2828932   4.9780050  37.0838404  56.7704439
  50.9540415  40.6983328  57.8577185  51.3420725  40.8157730  56.9906139
  51.6692972  40.3599501  58.3963633  40.7141399  31.6133499  64.1719723
  41.4926577  31.2724996  63.7315607  40.0449038  31.6409421  63.4881639
  16.9594121  55.9544802  67.0662308  16.0801685  56.2060833  67.3488283
  17.5161958  56.1395502  67.8225183   2.0192556  24.1603255  56.6556787
   2.6885647  24.6589112  57.1243668   1.2508258  24.7310662  56.6567326
  14.7387779   2.7988970  26.5069389  14.1743910   2.3317827  27.1229768
  14.1496289   3.0763218  25.8053899  98.3463574 107.5435878  70.8994102
  97.7444888 107.4889065  70.1571178  98.2439078 108.4376908  71.2254715
  93.5768915 103.4368802  69.2224073  94.3987192 102.9781712  69.3968153
  93.6180104 103.6564500  68.2916403  32.2730994  33.0276465  20.2979636
  31.6592789  32.5662732  20.8694458  33.0730367  32.5031090  20.3325248
  38.1966853  17.9722095  48.8000870  38.4860468  18.0418801  49.7098351
  37.2410202  17.9602981  48.8529587  57.8217030  21.6441631  87.7963161
  58.5481167  21.1469936  88.1723118  57.8987360  21.5041018  86.8525600
  18.3432174  34.7168899  25.4058862  17.4014771  34.5639396  25.3286624
  18.6911702  33.8967156  25.7558513  32.5563407   9.2261684  51.8564129
  33.2512259   9.0747607  51.2157536  32.3088121  10.1420355  51.7293406
 114.1596593  64.4056225  69.8139715 115.0131650  64.0656424  70.0826263
 114.2477639  64.5576000  68.8730288 118.4384487   7.6327181  39.3071866
 117.9654070   7.9913944  38.5563111 117.8156177   7.6891536  40.0318432
  54.6366262  14.8311257  80.8525372  53.7911367  14.4852698  80.5665874
  55.1800919  14.8167944  80.0647068  33.4782147  37.2479248   6.8906027
  33.2695961  37.6582432   7.7298582  34.4320822  37.2992086   6.8294674
  10.0666451  23.8350463  50.9713364  10.5883324  24.4652677  50.4744530
  10.6674004  23.1101346  51.1440420 118.2356750  30.7632875  70.5041838
 118.8527467  31.1592793  71.1195278 117.6074968  31.4598417  70.3133011
  13.4646344  53.4260416  30.2089691  13.2320654  54.2094231  29.7105193
  13.3639276  53.6861086  31.1246419  16.5106893  26.5241599  35.8626533
  15.9975493  26.6701555  35.0679183  16.4634728  27.3557162  36.3343716
  19.8620033  93.4212494  70.0977755  19.6542668  94.3122387  70.3792191
  19.7782314  92.8935432  70.8919668  31.0921144   7.0471168  60.1312733
  31.2009978   6.9173223  61.0733604  31.4501834   7.9194361  59.9667168
  -0.1805830  32.4942398  44.7485542   0.3018104  32.8927183  45.4729462
  -0.0780306  31.5519667  44.8821068  46.2052298  10.2047694  42.3617554
  45.3642082   9.7648120  42.4856472  45.9849453  11.0201120  41.9112873
  97.7719856 107.5903587  79.8212242  97.5729562 106.6556872  79.7663736
  98.3768285 107.7493728  79.0965796   4.0025854  21.3819313  35.6025982
   3.5923854  20.7164168  35.0502777   3.8735774  21.0642505  36.4962816
  30.5865026   8.8370705  85.3754139  31.2560344   8.4272712  85.9231567
  30.0653982   9.3597716  85.9848976   9.0058058 109.1090519  74.6965981
   9.2131012 108.1888879  74.5336294   8.8693827 109.4817397  73.8255501
  31.3170052  11.7427361  31.2171984  31.4116311  11.1578703  31.9690013
  31.7552114  11.2841415  30.5003309 113.5823251   3.0310851  85.1793575
 113.7098013   3.5278556  85.9875679 114.2263932   2.3246768  85.2283001
  15.0084066  26.5781355  19.2258990  14.9200106  26.1372232  20.0708914
  15.9042835  26.9152331  19.2241967   9.7990566  29.3244314  78.9348459
   8.9513958  29.3220544  78.4902143  10.1686263  28.4609079  78.7505245
   8.6485618   4.6144024  74.3601656   9.6033221   4.6730575  74.3251657
   8.4626454   4.2478552  75.2246332  34.7323799  29.9857712  62.9131985
  34.3697572  30.7095408  62.4024200  34.9935198  30.3853679  63.7428713
  31.6345501  37.4699640  55.2255440  31.4778018  38.0707932  55.9540129
  31.7112827  38.0379272  54.4588900  15.8599031  29.5875025  70.2732992
  15.9118366  29.6345353  71.2279320  16.1004841  28.6848593  70.0645256
  10.6602299  35.6728196  65.5987453   9.9647897  35.1205325  65.2415752
  10.2161872  36.4809561  65.8556032  53.7198782   9.5672750  59.8445606
  54.2934895  10.1991081  59.4109869  52.8360319   9.9005067  59.6896267
   6.5252084  24.6113849  84.0575981   5.9378254  25.1941490  83.5763454
   5.9619540  24.1819906  84.7014904  24.1591907  39.0425777  73.9806604
  24.1436195  38.2919478  74.5744133  24.6718788  39.7044277  74.4447041
  87.4296762  95.4408998  74.8312283  88.1826998  95.9164698  75.1819706
  86.8991173  96.1136634  74.4044638  24.8443222  35.2123022  45.9262037
  24.4197655  34.4045305  45.6372595  24.3347931  35.4918671  46.6867638
  15.8526373  37.1207786  42.2605801  15.9341645  37.6749611  43.0367661
  14.9669635  36.7617536  42.3145771  18.0116701  41.4574480  74.1058731
  17.2724068  41.0452509  73.6588669  18.6115098  41.7020512  73.4011793
  28.6187363  44.7635126  62.9934740  28.5632348  45.2746868  62.1860981
  29.4747782  44.3375540  62.9488945  15.9050810   8.2542562  78.1497383
  15.7126558   8.5969102  77.2769308  16.3078117   8.9892393  78.6121655
  37.0278406  37.7171040  29.5266247  36.5149856  38.4226489  29.9208570
  36.5360618  37.4727774  28.7426019  24.0060806  31.4966393  73.8132048
  23.8051081  30.8140635  73.1729460  24.9326134  31.3687992  74.0167379
  30.5744100  20.1470780  57.9606819  31.0091305  19.7278023  57.2180796
  29.7271562  19.7059715  58.0224752  56.1209393  37.9970050  59.6647263
  56.0254288  37.9321647  60.6149387  55.4453230  38.6204457  59.3980885
  88.0437095 110.8484427  80.6937885  88.3250601 110.2358441  80.0142288
  87.1929390 110.5153368  80.9792042  28.2162094  33.9110231  59.9590158
  27.5779080  34.1373420  60.6354666  28.2545233  34.6851063  59.3972683
  39.8178601  17.5452638  24.7528911  40.0730133  16.6899133  25.0985861
  40.2470016  17.5961208  23.8987947  17.9630125   1.6400367  81.4988518
  17.9110765   2.5871703  81.3705063  18.8553381   1.4116225  81.2384319
  43.5453939  38.1058574  65.3240585  44.2680597  37.8672242  65.9046125
  42.8068733  37.5809097  65.6326866  48.5745335  12.3160791  51.0833740
  47.8421211  12.9018784  51.2748003  48.1690645  11.4576268  50.9613800
   7.1671331  34.0263176  68.3434343   6.9204944  33.9248633  67.4241352
   7.7105308  34.8141456  68.3600855  53.0303335  36.7354083  51.3562727
  52.4606943  37.2778654  50.8108521  53.0236673  35.8779883  50.9308147
  30.4703236  71.6296911  85.0092125  31.1084032  70.9161901  85.0108528
  30.8499479  72.2891617  84.4285107  34.3225193  40.4592323  69.8944759
  33.4779382  40.8847332  69.7466230  34.1686940  39.8723722  70.6348562
  44.2376280  61.1566067  78.4208441  44.4049311  60.5154133  77.7301121
  43.5612631  61.7285442  78.0580139   3.3880776   6.2506682   8.0716679
   3.3401077   7.0647771   8.5728237   2.5235241   5.8534867   8.1766579
 117.1911263  41.6900778  71.9786072 116.9790259  42.2609043  72.7171230
 116.9124344  40.8190918  72.2613478  31.8755698  51.3866425  47.0682526
  32.0798230  50.9421492  46.2454939  32.4889374  52.1206951  47.1026039
  23.9739823  36.9373631  75.7659817  24.6511459  36.2611127  75.7851839
  23.1595802  36.4566708  75.6179428   5.8063513  52.7485943  53.7130594
   5.8823085  52.9940271  54.6351385   6.0677439  51.8281221  53.6878967
 112.3744680  61.2058687  73.8612509 113.1663050  60.6769085  73.9583635
 111.9535430  60.8643293  73.0723238  60.6374550  16.8629742  52.9310179
  61.5174913  16.8076730  52.5585890  60.1680422  17.4602938  52.3486996
  42.7003574  20.6346416  55.3777122  42.9401445  20.1310897  54.5997906
  43.4239769  20.4919600  55.9878302  22.5709748  53.0420065  54.2468452
  22.3997259  52.3834848  54.9200916  21.9892955  52.8034830  53.5250521
  47.6322460  46.4406872  63.9481544  47.9400921  46.6114187  63.0580330
  46.6933346  46.2820959  63.8505793  39.5621419  42.6313257  93.5848618
  40.4177618  42.2066355  93.5233402  39.3307829  42.5707865  94.5117092
  41.6587114   7.6194447  65.8499908  42.2780704   7.9314613  66.5097427
  42.1964025   7.4555743  65.0752211  27.0460176  58.1863546  76.8474245
  26.5211606  57.9082823  76.0968018  27.2171211  59.1147614  76.6892767
  35.9223676  27.9217672  19.8415875  36.1653137  27.0366669  19.5699096
  36.7396832  28.4181762  19.7990775  37.5425220  43.1509638  73.8748217
  38.0866170  42.4002504  73.6368704  37.5278592  43.6952591  73.0875731
  47.7137613  35.4477239  75.9127235  48.2485867  35.3799272  76.7036724
  47.0398760  34.7766185  76.0210180  25.5401039  31.7713094  60.4597187
  25.6505799  31.8930364  59.5167398  25.6860304  32.6409078  60.8321953
  22.3928118  74.9323463  17.5334775  21.5436220  75.1282549  17.1375895
  22.6085544  74.0555143  17.2159004  26.3064599  21.0624385  73.6847353
  27.1746302  21.4584851  73.7599802  26.4460564  20.1382947  73.8913727
 117.0522506  52.6691532  81.2371159 116.7973193  53.5861015  81.3393497
 117.9353074  52.6237631  81.6036987  29.3856931  48.6978006  85.1080608
  29.1265559  48.3831596  84.2419910  30.3211975  48.5029364  85.1636600
   6.6554785  17.3831046  67.7482939   7.5704908  17.6528525  67.6694298
   6.6286314  16.5098977  67.3571157  22.6099682  84.4688702  72.6948214
  23.0085731  83.6976910  72.2915411  23.0292296  85.2108002  72.2589540
  22.5588298  35.6022525  21.8495512  23.2027745  36.2100101  21.4859629
  22.6590490  35.6861210  22.7977896  44.3534327  42.6791000  60.8298540
  43.5372496  43.1772041  60.8741856  44.3000889  42.2052956  59.9998569
 116.2944849  35.6449866  79.4441986 116.8122859  36.3390446  79.8521137
 115.6982376  36.1062050  78.8542843  22.4315023  59.2359781  28.3389401
  22.5964284  60.1765919  28.4042859  23.1806326  58.8305569  28.7755990
  49.8336124  74.6089029  70.8591127  48.9815807  74.4597721  70.4492044
  49.9228144  73.8965130  71.4921856  49.9176598  36.7780066  68.3000517
  49.7417116  37.2795367  67.5039768  49.0852785  36.3512468  68.5031509
  19.5937455  47.1483278  70.5820560  18.7960410  47.2564030  70.0641537
  19.3131566  46.6575909  71.3545036  15.4196298  54.3876600  18.9072371
  16.1973476  54.9452877  18.9281309  15.5528831  53.8190985  18.1488085
 112.2260190  84.5318508  43.4038210 112.4345739  85.4569817  43.2739496
 111.2694879  84.4980335  43.3921576 116.3761392  51.4954710  78.3369637
 117.2343251  51.3601065  77.9351854 116.2680672  52.4463558  78.3563709
  41.7548037   3.8521069  60.8391714  41.2921047   4.3227425  60.1458883
  41.3387632   4.1484436  61.6486931 110.4350801  58.5513353  54.0472746
 110.4505618  59.0658998  53.2402992 109.6108301  58.0663919  54.0063381
   6.4554101  41.1307144  49.8662996   5.5348963  41.3929987  49.8760033
   6.6205323  40.8034182  50.7505178  15.4875910  50.4507589  42.7551222
  15.6763291  50.4463816  43.6935186  15.2307487  49.5499182  42.5582647
 101.7765749  93.6373789  58.5407639 102.6844562  93.6926694  58.2425547
 101.8420447  93.3885653  59.4627380  18.9952314  38.5089827  62.4740839
  18.0937350  38.7909341  62.3190308  19.2448032  38.9425898  63.2901287
  35.1238108  45.1926088  26.4832377  35.3634906  44.7892952  25.6488991
  34.1815877  45.0424051  26.5599561  31.5024400  41.1646414  46.8068981
  30.5539656  41.2863255  46.7642212  31.6149259  40.2645159  47.1124363
  42.8047657  31.7425728  76.9724083  43.0097389  31.2781763  76.1608934
  43.4945488  31.4775157  77.5808287  45.0587225   7.4794370  90.7216644
  44.6859837   7.7727216  89.8902321  45.8021688   6.9312143  90.4707336
  47.5822020  23.7143469  69.3985367  47.2995472  24.4664240  68.8782310
  46.7710543  23.2548428  69.6156263  40.4897499  49.9788332  31.6783476
  41.0760927  49.9454546  32.4342060  40.8578396  49.3461370  31.0615540
  48.5013199  22.4328113  75.5360889  49.1735077  22.7398682  74.9277258
  48.7299824  21.5186524  75.7041931  74.3491650  31.6158795  40.3404045
  73.5577059  31.1544323  40.0631094  74.9554539  31.5136719  39.6067834
  20.0712276  20.5961633  75.9242964  19.5755565  20.2517915  75.1813602
  20.6473494  21.2579560  75.5417442  61.3020706  11.0585022  36.0776806
  60.9101105  10.4918659  36.7421532  61.7994308  11.7055774  36.5778375
   4.9694639  45.7736015  39.3608594   5.7983154  45.7643223  39.8395562
   4.3842477  46.3001013  39.9054241  24.7819823 103.3414246  76.6686583
  25.0916594 102.5225551  76.2816381  25.5448550 103.9192326  76.6489124
  14.7114038  53.2276058  76.0218382  14.3370533  54.0037298  76.4386415
  14.8296535  53.4808969  75.1063633  36.1884713  54.7421074  63.9719343
  35.8555388  54.4944000  63.1093645  36.7311907  55.5131006  63.8068390
   7.1210754  40.6051922  66.9350576   8.0486029  40.6033230  66.6985798
   7.0910406  41.0478115  67.7832413  94.6155632 105.1789285  78.4007502
  94.8820902 106.0982437  78.3933020  93.7312771 105.1888866  78.7670469
  19.6344030  25.6660509  77.1556807  19.5214498  24.7257090  77.0170021
  18.7427020  26.0130143  77.1824884  12.8646374  39.3055820  84.3204308
  13.3352399  38.6935854  84.8863125  12.2890711  38.7508011  83.7939548
  27.0699859  92.8695869  79.0579510  26.3821602  92.8267288  79.7222471
  26.8038917  92.2312832  78.3961344  27.0823026  41.4872789  75.3556108
  26.1390948  41.6420984  75.3044367  27.1678281  40.5341196  75.3756618
  29.1932273  61.6396618  67.6578522  28.7493324  61.9717264  66.8775177
  28.5360932  61.7001677  68.3512115  30.3904533  55.9589577  74.7656679
  30.6880713  55.1728010  74.3078279  29.4963551  55.7531691  75.0385618
   5.2625018  11.5593600  84.6997929   5.5337584  12.0781171  85.4571247
   6.0831666  11.2641621  84.3053341  34.4628716  58.5000515  71.4822483
  33.8440609  59.2285109  71.4307690  34.3759656  58.1748295  72.3783016
  20.9204865  59.0260983  50.5492735  20.7916141  58.1062698  50.3178835
  21.6399217  59.0157366  51.1805725  31.0775638  55.9188032  91.0610771
  30.2397323  56.3469076  90.8850288  31.4902592  55.8373642  90.2012634
  24.7875595  32.9979253  33.8703513  24.5303512  32.4623752  33.1198430
  24.7803760  33.8954759  33.5378075  12.1245384  54.3599224  70.7854509
  12.6974118  54.5672321  71.5237379  12.1517277  53.4052181  70.7219028
   8.4724396  41.2219143  37.6852775   8.3127141  41.7738676  36.9197273
   7.7549136  41.4292479  38.2839417  58.6164713  50.5209064  25.6260252
  57.8185558  50.7448912  26.1049795  59.2717028  50.3732347  26.3080049
  33.4418917  36.2852526  20.2470350  33.8686991  35.4291415  20.2808499
  34.1607499  36.9139791  20.3116703  44.1467047  21.6593862  51.4898825
  43.5884953  22.3776388  51.7877817  44.9391842  21.7356896  52.0212841
  37.2401690  25.1294613  37.4054050  36.8811727  24.5196795  36.7607975
  36.9933867  24.7562170  38.2515836  55.2115822  23.1526828  62.8804684
  55.5739212  24.0368605  62.9367781  54.2894745  23.2852769  62.6605558
  28.6843252  52.2482634  71.6212940  29.1715932  52.6395035  70.8962202
  28.8917303  51.3150358  71.5733099  33.2512665  39.2872405  44.4163609
  33.8568711  38.6569405  44.0262413  32.4690485  38.7740588  44.6188784
  66.4129836  98.4994079   6.2332890  67.2456199  98.9574959   6.1188099
  66.1084158  98.7690736   7.0997498  32.8142118  22.0187068  53.3548021
  32.4333787  22.8968334  53.3452368  32.6135826  21.6611981  52.4898338
  15.8593380  25.5514097  67.9626036  15.8686614  25.3051877  68.8875437
  16.6305971  25.1218700  67.5926208  14.7447622  51.9875431  89.8274231
  15.6967294  51.9024897  89.8799133  14.5972586  52.5743055  89.0856838
  18.5012877  12.9931295  49.9450922  18.3266473  13.9243627  50.0812435
  18.2880330  12.5843048  50.7839108  11.2329888  10.8407044  53.1335926
  11.8945301  10.2485073  52.7759647  11.5866649  11.7165530  52.9785633
  61.5029049  29.2745447  55.3610611  62.3677969  29.3043184  55.7700968
  60.9335613  29.7446728  55.9702110   9.3869591  49.6071529  15.2368879
   9.1465360  48.7395477  14.9117827  10.3234446  49.5418262  15.4238594
  25.1323199  25.1635885  41.8739033  25.7697034  24.7637200  41.2822247
  25.0136232  24.5175219  42.5701380  53.4045267  40.6988001  53.8204670
  53.9214897  39.9459124  54.1070652  53.9976215  41.4447308  53.9102554
  43.2086420   0.8006414  33.6428571  43.1295395   1.6762878  33.2644153
  43.0906391   0.2075019  32.9009056  19.5926857  23.6395574  39.9042964
  19.1536403  22.9169607  40.3529882  19.1607022  24.4261217  40.2373695
  43.5700464  35.6852627  72.7583981  42.6938868  35.3333569  72.6011133
  43.4424162  36.6326523  72.8073168  30.1869917  65.1928329  87.9916668
  29.7570634  65.4005432  88.8212681  30.4299474  66.0442877  87.6280403
  46.0929155  19.5792806  64.2300367  45.3905392  19.8859143  63.6565590
  46.3901043  20.3663158  64.6866417  18.1909990  52.7897072  87.0182896
  18.7457931  53.4818935  87.3778915  18.0114508  53.0688381  86.1204720
  14.2958677  35.9791589  82.4870300  13.6657500  35.5332923  83.0530643
  14.9666202  35.3198099  82.3093224  40.6211615  61.0845804  75.8848190
  40.5936480  60.3309822  76.4743614  41.3497829  60.8988237  75.2925014
  48.2699442  27.4075556  73.8710880  48.5161591  26.7118335  74.4806623
  49.1028166  27.7908039  73.5959911  20.5455184  57.5977564  74.8299074
  20.1836514  58.4446573  75.0907516  20.7913780  57.1781731  75.6543684
  94.3992699  24.7458607   1.8002960  95.0075532  25.0880391   2.4553844
  94.5831359  25.2573830   1.0124085 107.2346552  27.7756476  79.9403048
 107.3329516  28.1570029  80.8127403 107.0080216  26.8600559  80.1032829
  54.1140556  36.1448073  55.2464390  53.4006310  36.5602136  55.7308912
  53.6805487  35.6919932  54.5230722  17.4269915  36.9438934  51.3151360
  17.5430954  36.9330740  52.2652054  16.9607198  36.1306643  51.1215448
  43.3940315  59.5913649  68.3729744  42.5631523  59.3760872  68.7966776
  43.1891918  59.6068668  67.4380732 111.9690712  44.7882366  67.3099804
 112.2890539  45.1390266  68.1411171 111.5228243  43.9758062  67.5488377
  14.9338186  63.5592556  23.3575583  15.2185524  63.2439327  22.4998140
  15.6738520  63.3782291  23.9370513   1.8813428  49.2111349  34.8587298
   1.3249268  48.7275410  35.4692817   2.6488328  48.6516809  34.7395539
  23.5993886  15.5990791  75.8580828  22.7625012  15.8381236  76.2564611
  23.9180231  16.4113796  75.4645443  34.0281224  27.0510507  70.1365805
  34.1293621  26.1287189  70.3717184  34.3655896  27.1087766  69.2427063
  19.6803999  42.8111553  60.0404358  18.7770104  42.6847267  60.3304958
  20.0346518  41.9249535  59.9670839  26.0874963  39.6274662  78.4163094
  25.6801748  40.4924154  78.3695555  25.3567481  39.0140939  78.3387566
  25.9316349  31.5807772  57.6862764  26.8446970  31.6276908  57.9697275
  25.7836533  30.6520700  57.5078535  46.8802452  12.0239699  13.9895141
  46.6546440  11.6383290  13.1429815  47.4192238  12.7840650  13.7704360
  45.7035685  45.8914280   4.6504843  45.2621365  46.6806793   4.3367165
  45.4666758  45.8365059   5.5762804  22.0507121  25.6031942  59.4789171
  22.8375816  25.3391910  59.0020895  21.4651346  25.9458303  58.8036919
  24.7836328  35.5542207  64.1626644  25.5129337  35.9667754  64.6254301
  24.1407490  36.2552452  64.0554428  74.6669275 107.8022482   3.3486626
  75.1163012 108.6418010   3.2514641  73.7891013 108.0341293   3.6517880
  44.1278696  48.2852077  58.3156252  43.6717939  47.4974680  58.0194998
  44.3575478  48.1008911  59.2263985  35.9951496  12.3373795  28.5366535
  36.9391680  12.3030937  28.6912060  35.8487248  13.1951749  28.1379342
  19.8359752  69.4296694  52.2167397  18.9228439  69.1806459  52.3596048
  20.0556183  69.9773216  52.9704380  33.9974546  18.8808405  52.8646898
  34.8991466  19.1489863  52.6878214  33.8332868  19.1699505  53.7622976
  13.4198260  62.8366184  47.3626089  12.8236401  63.3188820  47.9355097
  13.0597878  61.9501734  47.3339653  43.5132313  67.1223354  66.9590855
  44.2999887  67.4042797  67.4257183  42.8138447  67.1840477  67.6096869
   8.8170642  24.1970181  60.3264761   8.3245575  24.1383052  59.5078039
   8.4208333  23.5344744  60.8924007  99.7590483  21.5867621   8.2104370
 100.2176298  21.7417151   7.3846504 100.1515735  22.2089917   8.8228008
  16.7475200  33.5849333  65.8146620  16.5528691  32.6490068  65.8635283
  17.3718596  33.6623740  65.0932503  88.4040481 102.0119526   5.1605675
  87.6959020 102.5301696   4.7782013  89.2047722 102.4353172   4.8509857
  48.3072138  70.8296871  93.8732719  49.2539454  70.9706640  93.8659382
  48.0735016  70.7249737  92.9509640  22.8492570  47.0357847  79.8728323
  22.8430080  47.1305656  80.8253098  22.8595781  46.0899210  79.7263193
  23.9118528  53.9501524  68.4228086  23.1006432  53.6968040  67.9823685
  24.5963979  53.4660578  67.9609776  70.2659351  72.7104689   6.5354511
  70.9956056  72.2316982   6.9286320  69.4926721  72.3948898   7.0031139
  36.7383480  55.4048252  68.5102367  36.9187260  56.3180637  68.2873249
  36.0596776  55.4521894  69.1835833  41.0241032  27.1881509  61.3647079
  41.2959671  27.8586888  60.7380486  41.2863541  26.3614416  60.9597254
  29.6903634  41.8298769  68.7846279  29.6623540  42.1722937  67.8912067
  29.7473693  42.6088285  69.3379927  23.5008645  54.5356512  81.0603428
  22.6747608  55.0173235  81.1024666  23.7589264  54.4222784  81.9750977
  59.2689037  24.9941492  64.1276836  59.4416904  25.9022760  63.8793230
  60.1349545  24.6230984  64.2965364  45.4883814  41.9611645  26.8484831
  45.9990788  42.0707989  26.0463595  45.9733868  41.3088369  27.3539305
  11.0436392  48.2296801  84.5819855  11.4956248  48.0043983  83.7688541
  11.2964058  47.5398493  85.1955605  22.8903031  41.9778395  82.8216457
  23.0989003  42.1976709  83.7296104  23.0914617  42.7741909  82.3301220
  26.2018561  60.3673983  47.2511292  26.8997431  60.0582647  47.8287315
  25.6545973  59.5962238  47.1027040  19.9278569  40.9446621  44.4389248
  19.3152177  40.8806610  43.7062502  19.8182261  40.1217413  44.9153852
  36.3665748  48.3517313  23.4911990  35.4912090  48.5521889  23.8225365
  36.8637753  48.0953789  24.2679286  30.9115362  10.0383031  58.3040380
  30.8352923   9.1701633  57.9081202  30.6212187  10.6403625  57.6188612
  50.9093571  44.6789503  47.8744745  50.3208065  45.3133631  47.4653816
  51.5680933  44.4965792  47.2043753  40.1509666  44.3809462  51.7254972
  39.4659710  44.1409254  51.1014748  39.9202752  45.2667618  52.0054102
  35.5000830  16.4783335  53.8176394  35.0471091  15.7757640  54.2839479
  35.2758121  17.2718561  54.3036985  11.8056250  40.2453947  43.2096529
  12.1265256  39.8346806  42.4068022  11.2224042  39.5922184  43.5962391
  86.7004342  57.1271086  49.1882753  87.0547934  56.4802361  49.7983694
  85.7815738  56.8799496  49.0841389  46.0052967  28.4943938  44.9302626
  45.7248783  27.7105832  44.4577885  46.9463587  28.3737612  45.0570917
  60.4871273  40.0090599  22.7242756  61.3436556  40.2103186  22.3473263
  60.6451941  39.9633312  23.6672258   4.5149207  39.2615628  73.6758566
   3.8326818  39.8424482  73.3391762   4.7013664  38.6654544  72.9505157
  46.0463095  55.9213352  79.1468430  45.5568838  56.5579414  79.6678257
  46.5976095  55.4649019  79.7824287  42.5686502  25.1199484  66.8156004
  42.0645809  24.4875693  67.3276949  41.9205952  25.7589817  66.5191412
   8.0713475  45.2384806  60.5674839   8.5412383  44.4089317  60.6527948
   8.0079830  45.3818464  59.6232033  58.5721159  32.0104027  59.0736103
  59.4969559  32.2348666  59.1761684  58.1926918  32.7610874  58.6167288
  40.0247812  17.7902937  41.4477587  39.7094870  18.6940217  41.4378929
  39.2355013  17.2600436  41.3377476  26.7656565  33.9837480  56.3135338
  27.6252842  33.6689782  56.0339069  26.2657475  33.1874347  56.4929914
 117.4781502  43.5953522  52.3665237 117.7442207  43.8445187  51.4814520
 116.5295912  43.7232971  52.3764181  11.3998079  42.4797249  77.2841835
  10.7969666  41.7515564  77.1338892  10.8852828  43.2617664  77.0844269
  10.2704906  48.8166904  78.7451077  10.8690023  49.0022421  79.4686985
   9.5339125  49.4117832  78.8849211  37.4482059  28.8191772  46.0938931
  37.7210546  28.7366247  45.1801252  37.0648193  29.6943665  46.1512470
  34.0992713  47.0795727  67.4196911  35.0279689  47.2135782  67.2305059
  33.6429882  47.6179886  66.7730522 116.3968955   9.9732357  71.6531515
 116.3821249   9.0161502  71.6518164 116.2507830  10.2137518  72.5680494
 115.9872132  89.6221256  49.9990606 116.4994199  90.1196575  49.3616152
 115.4703064  89.0149975  49.4694948  56.1417723  29.5894790  69.2826080
  56.5118551  29.3179655  68.4426355  56.7084455  29.1812396  69.9371719
  24.2623997  27.5853515  42.7436733  25.0242496  27.9993439  42.3381758
  24.3764710  26.6510677  42.5695133  21.5188980  20.4718447  48.0674601
  21.0517240  19.7345233  47.6746035  22.1078801  20.0694919  48.7057781
  68.2866001  22.5270891  49.3909693  67.4382067  22.3327112  48.9926338
  68.2290792  23.4498763  49.6387339  11.8117130  19.5041049  67.3597479
  11.9695878  20.4445076  67.4431181  12.2406006  19.2610514  66.5392542
  54.1216993  76.5941572  71.0494184  53.7340784  77.4629879  71.1548233
  53.6736155  76.0516453  71.6983652  48.3475542  31.2340140  35.5570436
  47.9024982  30.7630324  34.8525333  48.2557392  30.6647205  36.3210511
 115.8239442  62.3659515  73.7034035 116.0239679  63.1568861  74.2040539
 116.6619112  61.9086790  73.6330891  11.1451882 101.5674539  72.4825430
  11.2653368 102.4528129  72.1391296  10.2118128 101.5149386  72.6881838
  49.0540361  66.1611032  79.4313669  49.7007990  66.1839676  78.7260962
  49.2441654  66.9388199  79.9560022   6.9095016  41.7002535  85.4602814
   6.6727370  42.1844387  84.6692467   7.2767019  42.3626375  86.0456371
   4.3757933  73.5174274  73.9812231   3.9267305  72.7731800  74.3820620
   3.9501125  73.6241674  73.1305552  55.8111620  80.7630730  70.0942278
  55.7606506  81.6181850  69.6670628  56.6859674  80.7403946  70.4820871
  64.5011854  67.6273680  54.6456194  65.0942087  67.4074984  55.3640985
  64.0954208  66.7940760  54.4064379  37.0468402  51.9865131  83.2309151
  37.5041771  52.6207638  83.7830067  37.1390438  51.1544991  83.6951160
  47.1107674  62.0782280  76.8518162  47.1355247  62.0127630  75.8971786
  48.0309677  62.0872021  77.1152210  43.0619764  64.1570616  73.4291220
  43.4750414  63.8274288  72.6310301  43.5398626  63.7300110  74.1401005
  49.8899221  46.8473721  19.4808519  50.7836199  46.8114901  19.8218036
  49.7257996  45.9658527  19.1458607  34.3457198  53.2849979  79.6817923
  34.5192671  52.3460197  79.7483206  34.7447300  53.6585855  80.4675770
  40.6905413  54.0614462  70.7755327  41.2979412  53.4312057  70.3881025
  39.8761272  53.9404058  70.2873611  32.2040009  49.4543600  57.9186344
  32.9177523  48.8423634  57.7390480  32.3019218  50.1377439  57.2555876
  41.2137032  69.5731831  78.1838369  41.0656691  68.8932037  77.5266123
  41.4801121  69.0939808  78.9684534   3.7949150   0.1191718   5.7127354
   3.4351700   0.9175116   5.3261253   3.0270069  -0.3753560   5.9990856
 108.8961775   1.5817599  69.0298748 108.2022030   1.0701804  68.6140394
 108.6438495   1.6223769  69.9523258  27.6054358  44.2325878  90.6164360
  28.1585979  44.9957132  90.4494572  27.2789598  44.3636036  91.5066528
  22.7329159  59.1605711  92.7570438  22.9834843  58.2997990  93.0924797
  22.7242565  59.0537167  91.8058586  22.5456953  42.1305323  64.5657063
  22.1618938  41.4664698  65.1383734  22.9028058  41.6342497  63.8292217
  25.6220603  44.2337561  27.5077415  25.4213190  43.9339018  26.6211653
  24.8840523  44.7959805  27.7432847  42.4066639  43.4928513  56.3033772
  42.1302652  43.7242508  55.4166460  41.6027355  43.2087469  56.7383718
  34.4151711  57.2635984  73.8491201  34.3921471  56.3194990  74.0052557
  34.6303678  57.6421595  74.7015333  50.5612040  53.0827427  70.3425646
  51.4709187  52.7958298  70.4221153  50.1818275  52.4972105  69.6872377
  34.1562200  45.6124496  53.9863920  34.1445160  44.9347067  53.3105564
  33.8844275  46.4093828  53.5311413  60.3387833  46.1367226  54.3487358
  59.8788166  45.4304552  53.8950348  60.1742268  46.9126749  53.8129616
  28.1407261  42.3893356  82.1565533  27.4506092  42.7139807  82.7349758
  27.7891469  41.5743732  81.7981339   7.0975602  64.6779919  68.3452702
   7.5223231  64.4750690  67.5118256   7.7822846  65.0958061  68.8675880
  46.6155481  53.7522316  58.6159468  46.1756992  54.5861053  58.7815332
  46.5374279  53.6238050  57.6706219  40.4759169  52.8744888  63.1437826
  41.2363100  52.9827261  63.7150240  40.0813007  52.0487309  63.4241915
  45.2446651  68.8626194  82.2883511  45.7476854  69.0406752  81.4936829
  45.4490566  69.5946407  82.8702450  47.0602083  75.1847935  75.4677153
  47.7497292  74.7827148  75.9960365  47.0313454  74.6569538  74.6697330
  89.3813896  79.5755959  60.3142452  89.8572445  80.3079510  59.9225235
  88.4659958  79.8553610  60.3105545  48.7752819 107.2271919  63.9164782
  49.1485119 107.5653744  64.7304535  48.9946604 107.8880310  63.2596684
  50.2915382  73.4284830  66.9908524  49.7495174  73.7939215  67.6900673
  49.7283459  72.7830267  66.5637302  26.1402822  44.4457817  71.5529633
  26.2396264  44.5704174  70.6091261  25.8490276  45.2977991  71.8777227
  38.5219932  53.1755352  69.2572212  37.9927993  53.9310551  69.0015459
  37.9804611  52.7079678  69.8931074  64.9362230  26.7167902  40.4850912
  64.7540474  27.6148319  40.7617998  64.9305677  26.2101293  41.2971830
  21.6448522  85.7223701  82.8008747  22.2538376  85.1422310  83.2578278
  20.8300281  85.6541824  83.2985210  50.6034422  73.7905598  77.4767542
  51.2750149  73.4636879  76.8781042  49.8392487  73.2411528  77.3024178
  43.9224148  64.6789837  89.2128944  43.5230923  65.0000620  88.4043789
  44.8473644  64.5651293  88.9944077 115.8177949  66.9826794  83.0584812
 115.4232968  66.6945171  83.8816261 116.7515890  67.0594358  83.2543564
  41.1679840  64.2981052  66.3361645  41.1355829  64.5428848  67.2609711
  40.2529573  64.3019772  66.0551882  32.7675581  43.9387894   0.6268141
  32.2137594  44.5791197   0.1801477  32.5844240  43.1116104   0.1813114
  60.1394176  35.5338383  38.7809300  60.9913778  35.2828789  38.4239817
  59.5151854  35.3100419  38.0906510   2.7397728  77.6142693  78.5846519
   3.4963438  77.6590776  79.1693115   3.0892098  77.2585154  77.7676058
  13.5746336  13.5745835  62.2541523  13.6066461  14.4708431  61.9196033
  13.0596578  13.0949795  61.6053009  30.0038552  56.7898655  94.0960312
  30.1621199  57.2297049  94.9313259  30.1833749  55.8665895  94.2737198
  38.8080168  39.7003984  55.3857231  39.6487594  39.6311164  54.9334145
  38.3572173  40.4202843  54.9443865  24.9532485  64.0719271  74.3364096
  24.5658636  64.6955490  73.7221956  25.4407477  64.6161652  74.9547768
  37.4780035  47.2641754  71.8814564  38.0773664  47.6741648  71.2578344
  36.6342282  47.6840448  71.7141676  46.4775515  41.1225796  72.0912647
  45.8808041  41.8416739  72.2987032  46.5110254  41.1074591  71.1347675
  39.8878670  58.0070210  56.6504717  39.5543337  57.8882313  57.5397825
  40.4921770  58.7462568  56.7180634  62.1439934  41.7578936  41.2473774
  61.2990332  41.6773844  40.8048916  62.5365210  42.5463152  40.8724880
  24.0369034  55.5750847  73.4373569  24.0617776  54.9402952  72.7213621
  23.7655854  55.0648928  74.2004585  47.3224258  16.1931586  67.6833868
  47.1933270  15.5784607  66.9610929  48.2403660  16.0823393  67.9310417
  18.2782447 103.3646011  49.3366528  18.9014149 102.8737259  49.8723125
  18.6439908 103.3313751  48.4527111  43.0580854  31.0872173   1.0805868
  43.6780405  30.5985951   1.6220111  42.4451971  30.4249382   0.7612433
  48.8229418  34.3044639  95.4613209  48.7017059  33.6836338  94.7429085
  47.9512787  34.3997645  95.8451843  39.7172832  47.4995327  81.8189430
  39.5601010  46.6343069  82.1969795  40.4922390  47.3835325  81.2691975
  13.0931013  60.6152875  17.6794502  13.2095688  60.7458455  16.7383740
  12.1455878  60.5458123  17.7961609 114.6857966  66.9076633  94.1309738
 114.8390062  65.9752703  94.2839527 114.8002444  67.0174789  93.1870079
  30.3982091  45.5696392  39.9686980  30.5140543  44.7536945  39.4818234
  30.1768160  46.2180328  39.3002677  17.7911901  36.6304636  59.2738628
  18.1737721  37.5063920  59.2227602  17.4496198  36.5699625  60.1659966
  22.9744172  30.8012962  89.2457867  23.2202792  31.1765385  88.4002209
  22.7510476  31.5579891  89.7877789  38.8861060  53.1185818  60.4475927
  39.3615103  53.4176207  61.2227106  39.3032002  53.5780001  59.7187614
  23.0491233  28.5449386  52.9435968  22.4820924  29.3155050  52.9130363
  23.9209533  28.8806987  52.7352524  17.9801130  54.1420317  55.8839655
  17.4875450  54.7165823  56.4700556  18.7572098  54.6490574  55.6488514
  57.2443771  43.8763046  53.8532972  57.7571487  44.1982937  53.1119347
  56.7582083  43.1302309  53.5022402  44.4554090  62.2305298  74.9817324
  44.4143200  62.8638601  75.6982756  45.3539801  62.2932196  74.6578932
  33.2373881  37.1214128  66.5370274  33.1202626  38.0258203  66.2462378
  32.5081706  36.6456366  66.1393976  16.4780736  58.4700537  64.6436405
  15.8288932  59.0671349  65.0155163  16.7492330  57.9221630  65.3802013
  53.6828423  68.1986094  36.3850236  54.0313768  67.4550343  36.8768072
  53.1607628  68.6844683  37.0234632  29.9110889  56.7556000  60.2331305
  30.5947924  56.6501760  59.5715666  30.3674316  56.6507816  61.0679913
  49.5575237  77.0168400  73.4955406  48.9104176  77.5835276  73.0755997
  50.2691555  76.9528723  72.8585768  38.0245996  63.5258055  66.8099880
  38.0690742  64.4786215  66.8899202  37.0882607  63.3329153  66.7620802
  58.2755899  77.2087479  68.9002895  58.9400101  77.1291065  68.2158709
  57.4556398  77.3395538  68.4240484  22.8086090  31.0200882  63.2233286
  23.0297184  30.0890589  63.2004070  21.8657231  31.0464168  63.0605268
  18.3149350  29.6589184  64.5810699  19.0937650  29.7138882  64.0273237
  17.6213384  30.0630260  64.0596724  45.3704262  57.8449965  86.2625885
  45.2396297  57.9427147  87.2057629  44.4878769  57.7358103  85.9084320
  50.1790476  67.6677608  86.8367195  50.6469488  68.0245399  86.0817242
  49.5634079  68.3574677  87.0847607  31.5282798  66.0808516  90.3544712
  31.7308283  66.2963152  89.4441032  30.5721140  66.0495996  90.3861713
  42.7496433  85.0513268  55.1541853  42.4508905  85.7152462  54.5327425
  43.2766819  84.4503117  54.6276474  36.1418724  95.7594109  86.3222790
  35.9358001  96.4763641  85.7224941  36.2098551  96.1773396  87.1807384
 116.4880306   4.6208243  62.2216177 115.5884344   4.9395709  62.1484613
 116.9925720   5.1927810  61.6432285  42.9958439  72.9520369  84.4256783
  42.4483919  73.7275791  84.5484257  42.6668644  72.3226309  85.0674438
  20.8938742  95.6383228  76.6991520  21.7913675  95.9300423  76.5390301
  20.7652855  94.9127197  76.0882521  56.2558365  68.3888245  57.1799850
  56.2046814  67.6795816  57.8207541  55.5657339  68.1900978  56.5471363
 103.5410196   6.5879779  45.9855509 103.0569917   5.7786231  46.1495161
 102.9996664   7.0680385  45.3588915  79.1520739  73.9271832  69.4848299
  79.7756767  74.6501017  69.4160175  78.3147001  74.3070698  69.2188978
   8.3385319  61.1368322  65.0360394   7.4371135  61.0030508  65.3289175
   8.3070487  60.9922791  64.0903378  50.1155901  62.2376204  61.3720703
  50.8058691  62.6959562  61.8513107  50.4606295  61.3543844  61.2414026
  56.7970425   0.5854468  64.6909094  56.6207237  -0.2798982  64.3216848
  57.4758608   0.9534412  64.1252041  70.7046890  89.6866322  62.7525759
  69.8929739  89.2410183  62.5101376  71.3518238  88.9847279  62.8216648
  51.8654346  61.6933966  56.9663239  52.0337629  62.5953341  56.6935492
  52.3787498  61.1599112  56.3595819  83.5996532  79.7625971  50.7922602
  83.9444828  80.1961803  50.0116634  82.7880287  79.3492842  50.4978514
  46.4923239  92.1251965  84.6171570  45.9471512  92.8210926  84.9842358
  45.8771086  91.5606594  84.1491413  89.4548035  84.6690178  35.2109146
  88.5288239  84.7601128  34.9862289  89.8358250  85.5231762  35.0072742
  50.9800863  96.6081238  75.4208851  50.8929873  95.9952164  74.6908283
  51.2039900  97.4421692  75.0079966  85.5669117  83.2663250  66.2893391
  86.4984322  83.1033707  66.1411905  85.1558304  82.4067879  66.1974955
  55.7545042  66.1446524  58.7221956  55.8931446  65.4261017  58.1051874
  56.6038656  66.2622929  59.1476154  45.7318068  61.2865543  86.3762569
  45.5115652  61.8746996  85.6538868  46.2450600  60.5887461  85.9689999
  24.2526674  55.2110147  64.1326809  23.7355614  54.4105291  64.2224407
  25.1547360  54.9323702  64.2903566  54.1190767  88.8164139  55.9208870
  53.7332010  89.6314907  55.5999708  55.0593853  88.9926720  55.9523010
  58.6026478  97.0247078  38.3132386  59.0708685  96.8776703  37.4914217
  57.8423643  97.5505829  38.0649543  66.1968660  97.6098442  51.6870785
  66.1555624  98.5661411  51.6833687  66.2741184  97.3770332  52.6123142
  29.6581483  76.1937141  88.9978695  29.1871691  75.4436684  88.6347771
  28.9721704  76.7556524  89.3582821  65.8400583  72.4545622  58.5139084
  65.6839275  72.2936964  59.4444847  66.5272570  73.1207037  58.4979963
  60.1039314  90.4386806  86.8613911  60.4863405  91.0925007  86.2761497
  59.1784859  90.6772327  86.9149303  41.9621038  71.2792349  93.6768532
  42.3911524  70.6216526  94.2243385  42.0783472  72.1009016  94.1539097
  33.5477424  82.3323441  72.4946308  32.6056886  82.3446178  72.3254633
  33.9448047  82.5663185  71.6556883  79.1462612  74.2512321  58.2797289
  79.7141552  73.7246466  58.8422585  78.4908962  73.6334848  57.9555178
  18.1831490  15.7379298  36.7216754  18.8032376  16.2062984  37.2805572
  18.7234150  15.3633647  36.0259366 107.9947699  35.8046967   0.8043072
 107.4920262  36.6189439   0.7821724 107.3369277  35.1146371   0.7189438
  76.1956167  99.5978069  88.5486031  76.3373995 100.4671192  88.9233398
  75.4380083  99.7055149  87.9735756  41.0666800  87.6062584  85.6727409
  41.8402815  87.3310089  86.1646843  41.3788843  87.7101040  84.7738647
  93.3334064  93.0139160  38.1259704  94.0422821  92.7652931  37.5327492
  92.5332928  92.8154564  37.6395011  43.3585215  75.6754923  62.2478390
  43.0819035  76.3267851  61.6032219  43.7501621  76.1890554  62.9543114
  57.6959276  64.8555470  93.0320930  56.9162464  65.3744936  92.8345490
  57.8800011  65.0408506  93.9529610  45.9457970  64.0169907  93.0422211
  45.2451849  64.2533207  92.4343395  45.5866909  64.2099333  93.9082718
  30.8331609  68.0902815  66.9356012  31.1056519  67.1751881  66.8678951
  30.0546193  68.0678177  67.4920225  63.6170912 110.2742100  57.6150370
  62.7375937 109.8994637  57.6627541  63.5345507 111.1326027  58.0304623
  55.7211018  66.2109804  77.7229548  55.9968328  66.7220020  78.4839153
  56.5292645  66.0529375  77.2349739  15.0151217  70.8947706  79.2640877
  14.2042732  70.6344652  78.8270569  15.1145196  71.8227625  79.0515184
  62.7084446  92.1017456  54.3384695  62.2327089  91.3827515  53.9225912
  62.4169636  92.8841877  53.8704443  65.5625725  82.0509148  53.0437946
  65.8978796  81.6884613  52.2237778  65.9926224  82.9024124  53.1228542
  42.7943945  60.2696991  74.4541359  43.4079790  60.9780550  74.6490049
  42.8757429  60.1353407  73.5099077  64.0118361  84.6874905  38.7741184
  64.1798258  85.6256866  38.6858606  64.8508596  84.3188953  39.0505552
  54.1133022  69.0974760  61.7230368  55.0331163  68.9276266  61.9263029
  53.9174366  68.5115576  60.9918928  52.4546337  61.8281460  59.6165895
  52.2339678  60.9117270  59.7830868  52.2805262  61.9506884  58.6833715
  44.5419693  63.0292654  84.3961143  44.3967438  63.9362907  84.6652603
  45.1704550  63.0905867  83.6767578   8.7227379   4.2365413  67.7471781
   8.9673554   5.1559215  67.6416492   9.5413720   3.7954097  67.9740667
  24.2902255  68.3502245  82.8020096  23.4458876  68.2720995  83.2461071
  24.6457362  69.1844606  83.1084347  23.9767903  70.2871949   3.3958504
  23.5828226  71.0975224   3.0727741  24.6694248  70.0896508   2.7654049
  43.9166355  55.2374125  77.4455166  43.2690716  55.4104233  78.1288624
  44.7412872  55.5587149  77.8101397  70.9889746  70.5603123  55.5052900
  71.6342878  70.1385689  56.0726786  71.3518524  71.4294481  55.3345394
  50.4734612  72.3710632  72.2532034  49.9906731  71.8835115  72.9206181
  51.3459349  72.4907875  72.6282835 110.6559545   1.9559627  44.9175406
 111.6100771   1.9272285  44.9886370 110.4106790   2.7885490  45.3211117
  48.2831478  86.8909168  53.1884575  49.0882015  86.6014099  53.6177635
  47.6216984  86.8689537  53.8800001  60.1265812  82.1208954  77.2757101
  60.1975155  81.1672211  77.2342539  60.0651026  82.3160744  78.2107830
  76.7156172  68.1316042  43.6392307  76.8920374  68.4721899  42.7622414
  77.5708485  68.1221533  44.0690184  14.5551026  74.2295265  71.8838453
  15.3895950  74.1972303  71.4160728  14.6448576  73.5777378  72.5790787
  43.7417459  64.7289705  80.2531719  43.8174629  65.4229021  80.9081268
  44.4403839  64.9145555  79.6257305  50.1845407  81.7053890  59.6378231
  49.8711014  80.9813404  59.0958500  51.0710430  81.4484310  59.8914289
  30.3271437  92.7704430  62.0112371  29.4823384  92.7288151  62.4593544
  30.1736856  93.3486843  61.2640285  68.1757641  77.7602816  81.8654346
  67.8348923  76.8774033  81.7220497  68.9870977  77.6271009  82.3555756
  53.7716532  66.8531132  66.6488886  53.5595322  67.5795269  67.2350264
  54.5089245  66.4121580  67.0710468  58.0271053  67.3078012  59.6361876
  57.9005384  67.9100752  60.3693151  58.9646626  67.1150255  59.6436977
  51.5753603  68.4099674  59.5325232  51.9361782  67.6270294  59.9485159
  51.7591810  68.2923126  58.6005354  64.0091705  85.9066200  55.3715944
  63.5315037  86.7116833  55.5714464  64.5275593  85.7343006  56.1576033
  25.0646758  77.4003506  65.3884888  25.5137563  76.6421461  65.0147438
  25.7555223  77.8941774  65.8301926  49.4309378  62.5273991  58.3034849
  50.3045273  62.5610113  57.9136896  49.5873213  62.3161507  59.2238951
  70.0618458 100.8581543  38.8074350  69.7232819 101.7315006  38.6102676
  70.7262135 100.7016945  38.1363440  27.8764868  49.7543764  69.2109013
  28.1883144  49.3614054  70.0261164  28.5028172  49.4615459  68.5489416
  45.4610205  91.3925171  51.8737888  44.5911121  91.1964893  51.5258360
  45.8350801  90.5359173  52.0800591  46.7986774  85.4669189  85.4612064
  46.3037729  86.1124039  85.9658432  47.5770855  85.2944660  85.9908867
  83.5861301  78.8902712  47.1132231  84.4594860  78.5558605  46.9091129
  83.7195492  79.8236895  47.2780228  78.4104300  80.5411530  55.4662275
  78.7375355  79.6416330  55.4561663  77.8716040  80.5912495  56.2557793
  48.4727573  47.1335888  90.8447838  48.6514616  46.4420700  91.4820385
  47.6488352  47.5225639  91.1381626  45.6561422 107.6675797  66.0041428
  45.5781746 107.6812267  65.0502205  44.7756195 107.8714085  66.3193655
  49.7589588  88.4827328  75.2125168  50.3744459  89.1886902  75.4100847
  49.8654175  88.3278275  74.2739534  40.6799507  69.7148514  61.2175083
  40.5051279  70.0020075  62.1137285  40.3938913  68.8015938  61.1985159
  27.1079469  54.5433187  64.1962862  27.8189325  55.1542950  64.3897820
  27.1766591  54.3863773  63.2545424  41.3221931  77.6471138  79.1978455
  40.5199862  77.1433449  79.0603352  41.9097853  77.3569727  78.5001469
  76.8936777  82.7650833  29.8235178  76.3925934  83.5805988  29.8327065
  76.8298292  82.4346352  30.7195997  44.3884563  75.6782532  80.1302719
  43.5102558  75.3597498  79.9216032  44.8681021  74.8963547  80.4037857
  37.3773479  69.6688890  65.7226467  36.5703034  69.1990614  65.5124855
  37.1130991  70.3200436  66.3725758  67.3643827  75.4519939  38.2456589
  67.2075939  75.7169056  39.1520071  68.1988811  75.8615351  38.0173635
  58.1600046  89.4566917  83.9672852  58.0581522  89.3235111  83.0248833
  58.9008713  90.0577068  84.0455532  51.6457367  72.9273462  63.3517504
  51.7849255  73.7966013  63.7275887  52.0171499  72.9847622  62.4714184
  45.0471306  71.9833517  65.3785801  44.3732166  71.6281796  64.7989941
  45.1279879  71.3345718  66.0777044  65.2034146 106.0299112   1.3735172
  66.1131865 106.1284019   1.6543076  64.7337372 106.7245580   1.8351433
  50.3712702  79.6754122  57.3480368  50.6838846  80.1195145  56.5598297
  51.1317825  79.6548080  57.9289198  61.1714697  87.5921059  63.9473057
  61.9246674  87.9716682  64.3999147  61.4989042  86.7679501  63.5870314
  42.3698616  92.7981281  60.7433033  42.4439144  92.4370384  61.6266870
  43.1345987  93.3665180  60.6520033  55.1426554  70.9645557  75.3244972
  55.7830954  70.3061724  75.5939293  55.3326511  71.7233562  75.8761883
  16.2335777  97.3982143  54.9189663  16.8251908  96.8370056  55.4202366
  15.9420645  96.8492317  54.1910410  53.1243324  64.4184923  56.6834307
  52.9375172  64.6844864  57.5837517  54.0351391  64.6764421  56.5415668
  73.4409666  76.2773466  68.5254478  72.7783108  76.9201517  68.7782764
  74.2187738  76.7996454  68.3293676  53.2973719  79.6325302  69.5791006
  53.1568527  79.5890427  70.5249310  54.2039776  79.9247789  69.4848347
  39.3307400  90.9329414  59.0785360  40.0507593  90.6025791  58.5412645
  39.0646076  90.1826096  59.6099615  38.9086890  84.3116570  59.0405512
  38.7107372  84.0057087  59.9256706  38.3586144  85.0866604  58.9264059
  52.6286650  96.5182114  84.7060204  53.4749556  96.0912704  84.8392296
  52.1875048  95.9765530  84.0516376  50.3475237  81.9980812  66.1223555
  49.4260263  82.1062088  66.3576841  50.3640652  81.2143898  65.5730104
  60.5994892  73.4365177  58.4062099  60.8960295  72.5264072  58.4079075
  59.8441076  73.4411955  57.8183270  71.4906597  95.5224514  69.4404459
  71.4404678  94.7969532  68.8180447  72.2610426  95.3274059  69.9740171
  72.6818275  81.0090733  71.5627623  73.6129999  80.8100510  71.4651108
  72.4884558  80.8070946  72.4782085  54.8902178  74.3419552  77.3759270
  54.3254042  73.8051605  76.8199825  55.5477858  73.7316132  77.7095652
  72.3378229  85.9645748  46.4230442  72.4025917  86.9109726  46.2951231
  72.3955250  85.8465385  47.3711824  81.5670490  97.4045467  59.9790478
  81.1679077  97.1652222  60.8154917  81.6859055  98.3528042  60.0329924
  62.4556971 109.9627781  71.4416504  63.1788826 109.3559170  71.5995884
  62.0538759 109.6507072  70.6308603  90.3764629  81.9387150  66.4017105
  90.8225536  81.2365150  66.8751478  89.6428013  82.1802902  66.9670582
  31.7567396  71.5069008  78.9524364  32.6059198  71.5772009  79.3885374
  31.9545817  71.1057758  78.1061554  43.6327028  81.7951584  57.7555084
  44.4508934  81.7160225  58.2459450  43.7981987  82.4961376  57.1250582
 112.0513231   2.9669051  55.4272652 112.1117717   3.0656867  56.3774347
 111.1518747   3.2180171  55.2170992  94.1018295 109.4857216  64.0492487
  93.8323593 110.3733253  63.8130951  93.7265873 109.3447685  64.9184752
  51.8304777 110.6201553  56.8028784  51.4674473 111.0425663  56.0244179
  52.7716923 110.7855415  56.7481995  60.6062889  83.1004810  65.0278902
  59.7053766  82.9060841  65.2863550  60.8704805  82.3492527  64.4967604
  41.3204336  80.4497623  83.9692593  42.2378445  80.3668118  84.2294693
  41.3079166  81.1963367  83.3703423  61.3856745  95.0936604  60.1707983
  60.6148100  95.5865383  60.4519844  61.6108084  94.5499420  60.9257221
 103.5789997  29.3091159  55.4105330 103.1434900  28.6737399  55.9787369
 103.0182010  30.0841193  55.4438353  61.7053175  90.4093456  60.3534651
  62.5368404  90.1202297  60.7292414  61.9548941  91.0284710  59.6674442
  65.3839922 110.3532791  42.6694250  66.1630392 110.0027275  42.2376490
  65.7036448 111.1071968  43.1650591 115.4404623  10.5245452  63.7358809
 114.6646864  10.1661258  64.1670942 116.0051853   9.7656779  63.5894394
  14.0767353  46.4984090  15.8836338  14.9429720  46.8666798  16.0575268
  13.4710758  47.0890195  16.3314983  80.9220982  87.6315022  47.9461575
  81.7929077  87.4990749  48.3208418  80.4107666  88.0155563  48.6583996
   2.5997006   7.3392253  72.7564430   2.9690205   7.0874553  71.9100142
   2.5362813   8.2934528  72.7157974  27.5075603 103.0669403  56.7468405
  28.3115625 103.4355545  57.1128035  27.3613000 103.5634041  55.9416342
  22.6373625 108.7261391  74.3007374  23.0332375 108.9586544  73.4608269
  22.4566531 109.5668125  74.7212601  74.7677565  91.2315178  31.8883300
  75.6740332  91.1236763  31.5997696  74.4199371  90.3404331  31.9234276
 104.2616463  72.6424885  52.2282791 104.4702053  71.7973948  52.6264668
 103.7215233  73.0880117  52.8809786  65.0151920  64.3708181  59.1881418
  64.2663813  64.5331669  59.7618675  65.1921940  65.2182388  58.7797546
  68.8062716  75.2232504  73.6338520  68.3977365  74.3874741  73.4084415
  69.2569065  75.4931021  72.8336430  74.2642736  62.5448465  60.0610304
  75.2100182  62.5775433  60.2049923  74.0999651  63.2134867  59.3960810
  67.9694080  75.4839993  50.7778502  67.9301834  74.7554445  51.3974476
  67.1387815  75.9445858  50.8968401  85.5974770  66.3280296  86.6197872
  85.6113529  65.7053804  87.3466682  84.7380543  66.7454052  86.6783237
  40.7622957  72.0974445  79.8048544  40.7869673  71.3395739  79.2206860
  41.2007189  71.7997885  80.6019878  45.9605598  77.8909254  70.6283426
  46.2307453  77.5485468  71.4804029  46.7059278  78.4138584  70.3330517
  96.2494373  88.0435658  35.6224775  95.9251022  87.5716019  34.8554778
  96.6899776  87.3747063  36.1466742  84.9341804   0.4788165  15.5358112
  84.6500236   1.3734870  15.3485763  84.3412430   0.1783900  16.2245774
  87.3379421  72.7123737  74.9090767  86.9608784  73.5436726  74.6209908
  88.2301903  72.7212143  74.5625925  35.0754976 106.9946098  61.4503193
  35.5624104 107.4963951  62.1040487  35.6965637 106.8699741  60.7327032
  90.6715679  85.7581711  10.4405832  90.9099197  84.8361588  10.3439999
  89.7943211  85.7399654  10.8231318  52.6541424  81.6132927  60.9628105
  53.5888767  81.7136955  61.1428738  52.3375177  81.0342312  61.6561174
  94.4595510  18.6414676  23.6493993  94.2385465  18.4728103  22.7334619
  93.6661369  19.0279918  24.0199685  86.5142137  20.4009776  60.4154348
  85.8253175  19.7365527  60.4016018  86.3425047  20.9075408  61.2092495
  57.6737595  67.4921989  86.8607712  57.2011185  66.7669439  86.4522934
  57.7120924  67.2606707  87.7887535  99.7370625  70.2491665  25.3015137
 100.3713894  69.5407200  25.1921415 100.2578831  71.0494661  25.2344489
  86.0972977  94.1166306  32.2167516  86.1929417  94.4180775  33.1201982
  86.9332218  93.6963367  32.0147371  52.8463840  67.2079039  64.0772200
  53.1618071  66.9966984  64.9559307  52.9997015  68.1484604  63.9873457
  64.3738127  85.9975529  52.5644922  65.1719141  85.5208015  52.7924824
  63.8623285  86.0090542  53.3734941  92.7271748  99.3069172  41.0162163
  92.5316143 100.1690197  40.6491137  91.8691349  98.9089012  41.1631346
 104.8256683 101.0609913  88.1132126 104.6036911 100.3397846  88.7021160
 105.3740692 100.6596470  87.4391079 114.8071510   2.7919440  70.4222727
 115.6126053   2.7030521  69.9127960 115.0793154   3.2368140  71.2249231
  54.4867325  83.1336021  82.4253654  53.7070179  83.4597969  82.8746605
  54.2493343  83.1405258  81.4980984  71.0712242  63.1797218  60.1123333
  70.3159809  63.3427763  59.5473051  71.8176699  63.5185766  59.6181393
  95.8800793  85.2211857  65.3795052  95.6455517  85.8886051  64.7346926
  95.0607681  84.7578335  65.5534458  73.4134674 110.4742718  64.9244928
  72.9699087 111.2957096  64.7130108  72.7538586 109.9583817  65.3881741
  62.0422840  76.7899418  74.7581005  61.8274784  77.0827293  73.8724566
  62.6511240  76.0627222  74.6288824  74.8468351  83.8812447  74.3849897
  74.9137497  84.1573143  73.4709167  75.3431988  83.0637836  74.4252491
  85.9163189  96.4325523  50.7136869  86.0382938  96.4593792  49.7646713
  85.3579998  95.6693172  50.8619404  43.0952311  78.1906414  57.9894209
  43.9206696  78.5254669  58.3398104  43.0778027  78.4975243  57.0829153
  48.5497856  77.0356798  62.9745817  49.3345261  76.8437910  63.4879971
  48.8566256  77.0602226  62.0682240  78.6798620  61.7715120  51.7084742
  78.0652618  61.0686016  51.4977169  78.5907555  61.8921280  52.6538563
  36.9181204  75.7269192  73.4701824  36.0300732  75.3709936  73.5004091
  36.8320441  76.6151953  73.8162899   5.5532109  29.3537860  66.6407776
   4.6633946  29.1815333  66.3329124   5.6887375  28.7221770  67.3471308
  79.8808622 102.0911694  40.7426500  80.1175690 102.8646946  41.2543678
  79.4583988 102.4425507  39.9588823  56.0313654  89.9374294  64.2507172
  56.6205549  89.2010117  64.4143248  55.2277279  89.7096348  64.7181559
  65.8664036 108.3272934  65.6732178  66.6669226 108.7411880  65.3505898
  65.2660179 108.3538437  64.9281931 114.1050417  27.5578265  27.0088959
 113.9896423  27.4561267  26.0641360 114.8759109  28.1183868  27.0970559
 112.0156193  83.8135433  19.8459697 112.6454639  83.1249142  19.6330917
 111.4745331  83.4370136  20.5400085  92.6282978 109.0889645  40.0837803
  92.5780487 108.7425900  39.1928649  91.9893551 108.5745907  40.5771351
  66.6209888 103.4035015  46.5293360  67.3325920 103.9445782  46.8715096
  66.9976759 102.5259972  46.4635420  86.7760116   1.6870933  63.0187941
  85.9315473   1.2814479  63.2151747  86.9402296   1.4665370  62.1019411
  47.9721403  94.3440819  71.8062544  48.0090094  94.5868874  70.8810949
  47.6732206  93.4347630  71.8035078  52.5195789  92.0523071  93.8092136
  52.7303743  91.5024376  94.5638275  53.1355953  91.7748547  93.1311417
  82.3231792 108.4092045  74.2704439  82.4681187 109.3547535  74.2364120
  82.0682049 108.1737137  73.3783913  95.8929729  82.9840183  53.6820602
  95.0755596  83.4713840  53.7847519  95.8200550  82.5727749  52.8207827
 117.8664095   7.3971706  83.7566566 117.9575569   8.1783347  83.2110214
 118.1569082   6.6779952  83.1957436  45.7919598 104.7084522  66.3738012
  45.0930882 104.6043205  65.7280684  46.1849213 105.5563736  66.1668015
  73.1833029 111.3371468  25.8763623  74.1348219 111.3600540  25.7748151
  72.8445768 111.4838123  24.9931931  73.6016798  80.6107044  33.1563950
  73.1490707  79.8629522  32.7662182  74.5314980  80.4053402  33.0589628
  40.2226830  76.0271168  62.4045420  41.0212374  75.9949207  61.8777466
  39.8287630  75.1615715  62.2955132  24.2014425  44.3306405  10.6497070
  24.7382038  44.5606858  11.4081261  23.9223545  43.4306199  10.8179352
  56.8483829  63.4057426  59.8748732  57.6276016  62.9458714  60.1872396
  56.7650604  63.1408739  58.9588308  49.0605307  82.3392391  56.7317295
  49.7823238  82.8426933  56.3551950  48.6778069  82.9226494  57.3870039
  74.4695646   9.7967296  82.1952343  73.9259845   9.0138393  82.1067619
  75.2058250   9.6453433  81.6025829  72.9701805  75.2536297  57.0542526
  73.6596918  74.9042034  56.4897060  73.3385706  76.0624695  57.4096441
   3.4147679  34.4054179  60.4953241   4.2168747  34.0601306  60.8872938
   3.0311524  33.6578231  60.0368738  54.0280294  66.3112593  60.7243681
  54.6331024  66.3283587  59.9828720  54.5778418  66.0940552  61.4772034
  66.9231033  71.4467525  91.4930725  66.2430906  71.0485363  90.9497070
  67.6247978  70.7960415  91.5137291  74.3425274  74.4090652  66.3805676
  73.7451267  75.0597858  66.7492199  73.8092375  73.6195946  66.2879992
  91.2119770 100.3238201  51.4720726  91.3381195  99.7290993  52.2114038
  90.6715202  99.8290253  50.8561754  70.8722067 102.7416229  52.9271412
  71.7558050 103.0065346  52.6715946  70.7090664 103.2100582  53.7457895
  70.5333567 104.1942883  60.9733582  70.4445505 105.0802135  61.3247585
  69.6434116 103.8419819  60.9842396  27.1086264  57.8288507  70.8004618
  26.9728303  58.5889864  71.3661385  26.2833667  57.3460293  70.8458614
  71.9404554  92.9605579  42.7725792  71.9234467  93.9090061  42.9006100
  72.1972656  92.6083946  43.6247873  96.8781883   6.9105868  85.0302029
  97.7526218   6.6732173  85.3388309  96.9536239   6.9136577  84.0759850
  71.4673376  73.9954948  39.3474627  72.3066378  74.4488573  39.2682624
  70.8558416  74.5341301  38.8452935  84.7946436  27.7129607  38.4677076
  84.5171482  26.8574195  38.7952375  84.3798191  27.7864318  37.6081991
  70.1246166  77.1914530  47.6901722  71.0168266  77.4941587  47.8591633
  70.1750326  76.2391853  47.7730894  52.9435825  93.8866043  63.7862921
  52.3326778  93.3333397  63.2995415  52.5685549  93.9418125  64.6652317
  98.9424133 103.3686256  44.0602827  99.5831299 103.2318783  44.7581434
  98.1076431 103.1031418  44.4461679  71.9317245  84.9800110  49.0715265
  71.9475603  85.5301189  49.8546982  71.0492754  85.0919628  48.7179947
  56.0167360  88.5379219  53.1314802  56.6094589  88.0438328  52.5650978
  55.9030819  87.9819489  53.9023304  57.5239801  90.6334114  58.2712364
  57.4225283  90.4889393  59.2120171  58.3769131  91.0591888  58.1849051
  88.8200474 108.4758663  52.8457737  89.4019508 107.7986050  53.1906414
  88.2857418 108.7371922  53.5957479  42.4918079  85.5762577  69.8114967
  41.8751907  84.8453331  69.8535061  42.0453691  86.2360382  69.2808199
  97.3112613  14.4563441  68.7526083  97.8501016  14.1688304  68.0155754
  96.9448454  15.2939277  68.4690428  64.2026997  79.4904757  46.6041756
  63.5620070  79.3433714  45.9083986  64.3951750  80.4270077  46.5584326
 102.9977703  83.3596039  79.1322279 102.3525143  83.7985611  78.5779858
 103.8185787  83.8185883  78.9537954  67.3766279  90.7392406  23.6465859
  66.6881037  91.0426140  24.2383051  67.7668285  89.9902725  24.0971708
  43.6643219  82.7148628  73.9599991  44.0186787  81.9463348  73.5127497
  43.2677746  82.3658085  74.7582102  60.7070923  97.4971008  49.3581390
  60.9324121  97.6772118  50.2708387  60.1729822  96.7036438  49.3953943
  99.7425842 102.9504395  65.5901718  99.1485119 102.5320625  66.2132883
 100.5859375 102.5229168  65.7392406  45.2313328  45.9698677  62.4170876
  45.7521057  45.1773500  62.2869301  44.6495199  45.7569981  63.1467533
  34.0432262  74.7580290  76.5012074  33.4824705  75.1848269  77.1489954
  34.8770428  74.6299076  76.9534969  24.5630871   8.6608272  33.7611556
  25.0878560   9.0772967  34.4448256  23.9574753   8.0923991  34.2369318
  51.2528849  89.7138023  43.4969091  50.4394102  89.2546844  43.7059402
  51.6390133  89.2045689  42.7842999  14.0780103  64.6097517  57.9219627
  14.8820937  64.6643162  57.4055243  14.3676114  64.7163010  58.8280582
  90.9689617  93.4432888  55.9686041  90.1363564  93.6826038  55.5615139
  90.7256699  93.1042004  56.8300343  43.4214306 106.6214085  67.7726984
  43.1314421 106.3394833  68.6402559  44.0427971 105.9474659  67.4971294
  83.7837791  84.9110222  65.0295687  84.0751362  84.6360588  64.1602325
  84.3423843  84.4232559  65.6347752  51.0489273  88.8391590  56.3908243
  51.8322515  89.0147877  56.9121599  50.3255081  88.9124680  57.0133352
  80.8870602  92.9841328  61.8862581  81.4209843  93.2357693  62.6398087
  80.0036812  93.2769394  62.1101475 115.0362808   1.3388305  54.3300486
 115.0260240   0.9778457  55.2165127 114.5819313   0.6842761  53.7996197
 117.4377472  15.6087642  39.0540385 118.0503494  16.2405639  39.4305825
 117.9906875  15.0061851  38.5566545  86.6509342 106.2454987  48.4669828
  86.7279148 106.8275547  49.2229700  87.1707726 106.6696262  47.7842522
  62.8231668  86.6315556  20.7428670  62.7803326  85.6762505  20.7006001
  63.7592888  86.8304062  20.7238007  41.4012098  78.7586784  74.1150904
  40.7908630  78.3517981  73.5001421  40.9035730  79.4763136  74.5069933
 112.6270294  66.9053888  58.6266327 111.7881584  66.9520807  59.0852785
 113.2809639  67.0694065  59.3061161  54.7100401  74.8562145  65.3852367
  54.6990490  75.8103180  65.4613638  54.6640015  74.6905279  64.4436073
  82.3702699   3.9962916  85.5719948  82.7619869   3.9066177  86.4407539
  82.9167444   4.6451907  85.1286793  97.1439075  82.0929050  47.6415968
  97.0281124  81.4281464  46.9626904  97.4910355  82.8534317  47.1753979
  88.4731579  85.7881546  66.7725992  87.9145813  86.5650654  66.7976809
  89.3126202  86.1073017  66.4413977  53.8889742 109.9335957  16.7694080
  53.4104919 110.7240391  16.5194082  53.2759762 109.4466972  17.3202217
  57.7384138 107.0634556  46.5210962  57.6856709 107.6199341  47.2981310
  58.4080362 107.4763489  45.9757996  72.6466703 103.5165119  38.1325555
  71.7296457 103.3608913  37.9065442  72.6339340 104.3281937  38.6397386
  86.5026188  96.0988998  66.9493771  86.2488461  96.7808056  66.3274240
  87.0142555  95.4790020  66.4295816  67.6706171  69.4422674  48.5804129
  68.2371855  68.6810970  48.7063122  66.8877649  69.0906334  48.1564713
  49.4754124 108.3284855  91.6903496  50.4142475 108.4629822  91.5610123
  49.4146538 107.4924278  92.1524715  62.0604992  74.6240520  54.9801636
  62.6973343  74.1266394  55.4932499  61.8242836  74.0395546  54.2598867
  87.0605404   9.9144416  67.4055433  87.4695331  10.6824737  67.0066881
  87.6878959   9.6261554  68.0685329  72.1148396 110.4639435  54.1878796
  71.7463827 109.7434235  54.6990728  71.9982672 111.2352848  54.7425699
  49.0947914  89.9079514  95.3193760  49.2085791  89.3546200  94.5466518
  49.4651747  90.7532406  95.0653267  57.9539776  81.6485786  64.5295286
  57.7029085  81.1362934  63.7609196  57.9078960  82.5585938  64.2363167
  91.7002708   9.2986732  57.3517466  91.9765503  10.2148967  57.3307419
  90.8185083   9.3057971  56.9793558  81.9720078 104.0560627  55.2057362
  81.9758034 104.8831272  54.7238684  81.6842937 103.4064579  54.5642805
  61.3686752  87.3007870  58.8502026  62.0299530  87.3375893  58.1591272
  61.7783260  87.7371979  59.5971775  87.7864170  94.9069977  52.3108101
  87.2209835  95.5397701  51.8679523  87.1835232  94.3528366  52.8064489
  50.4958582  84.7972679  96.0005093  50.2461338  85.7202148  96.0455799
  50.6068516  84.5342731  96.9141483  69.5374298  72.7048349  42.2715616
  70.4228163  73.0648804  42.2197104  69.6661854  71.7844725  42.5008774
  73.8241434  74.6834517  77.0212746  74.0545368  74.6649218  77.9501486
  73.1352091  74.0249109  76.9322062  97.2850019   9.3203979  91.1743164
  98.2108719   9.4261317  90.9556389  97.1441967   8.3736282  91.1687660
  77.5602579  71.8876362  91.0947609  78.4325886  71.8953705  90.7007885
  76.9867134  71.5634394  90.4003716  69.1871357  68.7637520  45.5352545
  68.3314133  68.3348656  45.5401134  69.7122335  68.2576466  46.1552238
  87.2970009 102.9439545  93.5764503  86.4916229 102.6319122  93.9890289
  87.9706097 102.8255367  94.2461300  66.3349056  66.3128901  60.9544516
  65.7414150  66.4518595  61.6924763  66.4401436  65.3626585  60.9073639
  47.3808384  97.4957371  52.1264267  47.5444126  96.6897392  52.6161671
  47.5653362  98.1971741  52.7510738  57.6422262  79.4689083  61.4063311
  57.0950556  78.9583921  60.8094978  58.1273508  78.8128853  61.9068480
  88.9122326  27.9649024  54.5577574  88.8339597  28.0615859  53.6086750
  88.2554418  27.3072295  54.7864866  98.6614704  75.8064508  61.2175941
  98.5564137  76.6959429  61.5552330  97.9405212  75.3144217  61.6104937
  86.9300938  67.4094009  35.1491523  87.7934265  67.0561790  35.3639269
  86.9003487  67.4040270  34.1924310  94.4262695  88.6733246  46.5452576
  93.7680244  88.3341408  47.1518040  93.9870930  89.3940735  46.0937262
  28.2411133   6.2582259  38.0878448  27.5018536   6.0213237  38.6478591
  27.8485905   6.4251857  37.2309399  46.2396765  93.8330650  75.3945780
  45.6249857  94.1550350  76.0539150  47.0422411  94.3303204  75.5522680
  67.7619553 108.8198662  25.2676725  68.0756474 107.9158115  25.2905011
  68.3167267 109.2818165  25.8962083   1.1573826   0.8329253  17.6159751
   1.9379269   0.3257899  17.3928118   0.4331433   0.2155643  17.5131011
  79.0197277  63.5294771  64.8781919  78.7887287  63.3513212  63.9665270
  78.3345652  63.0969524  65.3878021  76.5858555  73.4407377  45.7920074
  76.1174774  72.9299355  45.1317549  77.4124527  73.6762238  45.3706741
  80.4310226  75.9762859  64.8079872  80.3847027  76.8236589  65.2507544
  80.2148247  75.3384876  65.4882097  24.1358781  89.3361855  55.6144810
  23.7429166  88.9702988  56.4069080  24.0812254  90.2840996  55.7357407
  55.3531027  76.6184473  75.9761953  55.4753017  75.8687353  76.5586376
  54.4037724  76.6956091  75.8810663  82.6578236  40.7635164  53.7406635
  82.8017616  41.7098284  53.7437534  81.7978001  40.6533861  53.3351278
  70.3287697  62.7094507  41.3912344  71.0674286  62.8629065  41.9803619
  70.6277752  63.0352783  40.5423164  59.5521355  85.2976513  79.6722174
  58.6381197  85.0137997  79.6569443  59.7667789  85.4635525  78.7542629
  85.5173397  85.2074146  55.1474714  85.4814720  84.2943764  54.8623419
  84.9896908  85.2299309  55.9457874  78.7025738  81.0642529  59.7447491
  79.1569376  81.6007519  59.0951633  79.3714571  80.8627605  60.3991365
  83.0504227  91.4291096  79.4519234  83.7134743  90.7924652  79.7189140
  82.3807240  91.3777351  80.1338959  62.5340605  83.6825562  60.0674343
  62.4242496  83.8896847  59.1393852  63.1308126  82.9342079  60.0768328
 106.0693390   0.7789760  44.5353270 106.1903745   0.9445052  45.4703045
 106.9577152   0.6829505  44.1921139  62.3607063 101.9624710  69.3895817
  61.6241550 102.5459003  69.2070103  62.4236393 101.9478130  70.3445959
  88.8283253  81.1145210  55.4800034  89.1834736  80.2258492  55.4992056
  87.9094982  81.0106468  55.7273579  75.4518318  84.1934872  63.2873487
  76.2818718  84.4204140  62.8680992  75.5740404  83.2932758  63.5888863
  27.1539950  90.5473423  90.5463219  26.8274117  91.2194633  91.1445045
  27.8871441  90.9648514  90.0942039 117.8264314  11.6365485  14.5001161
 118.2924539  11.3496738  13.7147772 117.4792082  12.4986415  14.2710829
  20.9535759  39.1135556  14.2449257  20.7492607  40.0329644  14.4157669
  21.1079663  38.7374837  15.1115009  66.5290117  92.5923061  62.2970104
  65.9035254  92.3269463  62.9712391  66.1523438  93.3877182  61.9205952
  94.8821926  86.5263844  63.2067633  94.8846340  87.4533176  62.9679680
  94.8898220  86.0632324  62.3691082  62.6564026  43.2479239  24.1763783
  63.5606623  43.3771992  23.8903141  62.2924757  42.6259470  23.5463500
  98.5476017  86.3253307  55.9538698  99.4548321  86.1202717  55.7277918
  98.5649681  86.4786720  56.8985510  29.9283695 110.0628853  70.3159237
  30.5693984 110.3835011  70.9503698  29.1956544 110.6748486  70.3856373
  75.7375765  70.8357763  34.4896889  76.3782024  70.3963661  35.0489306
  75.1733303  71.3110876  35.0995588 109.6618748 109.5609760  51.1933327
 110.2571583 109.0703011  50.6266689 108.8029671 109.4599628  50.7830906
   6.4230221   0.9020001  26.0597107   6.8563193   0.0515563  25.9873840
   7.0279234   1.4359719  26.5746948  59.9506283  89.9246120  54.6615648
  60.7008505  89.7102356  54.1070938  59.2550611  90.1539326  54.0452576
  51.1770535  87.4300480  95.5041885  51.3381386  87.3363304  94.5653057
  52.0411777  87.3390198  95.9057236  46.6788578  59.0598392  84.2703724
  46.5731001  58.3419943  83.6460686  46.4850283  58.6674261  85.1216507
  10.5069481   6.6971545  59.9535561   9.9589764   6.1110644  60.4755306
  11.1196648   6.1151176  59.5040560  76.2173796  82.7858543  54.1057253
  75.3501701  82.8124237  54.5100451  76.0558796  82.9692268  53.1802416
  57.6161814  74.9636984  84.4483376  58.1704330  75.6252146  84.8623753
  58.2326174  74.3263531  84.0877342  24.0696734  94.9734074   4.5104954
  23.4122580  94.7240407   3.8609955  23.6089485  95.5694730   5.1009724
  80.7899094  99.4826126  39.3817067  80.4574680  99.8271942  38.5528636
  80.5424404 100.1407623  40.0311899  99.5937443 102.3853302  38.8938379
  99.7364330 103.2162762  38.4406137  98.6418056 102.2903919  38.9259076
  78.7631464 108.8330841  93.6263180  77.8647614 108.8731289  93.2983971
  79.2632818 109.3819332  93.0222797  59.0975332  99.5108223  68.3355474
  59.9356031  99.7014523  67.9141998  59.2939520  99.5153046  69.2723656
   9.4455372  16.3684611  40.1589108   9.3831192  17.2932010  39.9197578
   9.6538006  15.9223132  39.3380499  12.5388085   4.7547584  78.2759476
  13.1766068   5.3890090  78.6033058  11.8839680   4.6928744  78.9713573
 105.4842312   0.3335910  39.3943572 104.7572262   0.3659015  38.7725425
 105.1508695   0.7746844  40.1757240  11.5223729  36.1245017  75.0841284
  11.8797909  35.2921729  75.3934813  11.7800938  36.7591243  75.7527590
  91.7661363   8.9927058  29.6525431  92.2893602   8.7863307  28.8780236
  91.7753870   8.1871276  30.1694441  67.5966215  97.1629620  62.2196388
  68.2244825  96.9160461  62.8986549  66.9267130  96.4800739  62.2531223
 106.7458660   6.6420131  38.9187121 105.8106357   6.4388614  38.9359498
 107.1768600   5.7977061  39.0514469  35.2604043  17.3969703  60.8333731
  36.1795365  17.5483375  60.6131220  34.9599015  18.2313209  61.1936378
   0.5004918  53.2018714  89.8485184  -0.0016368  52.7859359  89.1477394
   1.3556420  53.3801322  89.4571304  99.1191513  20.2491622  53.6192703
  99.9471266  20.3693156  53.1542397  98.5044414  20.8269935  53.1670809
  61.5415513  13.9071612  54.2959881  62.0496594  14.6055656  54.7086334
  61.0200154  13.5374122  55.0083923  99.6409988 107.1880436  61.3040590
 100.4874802 106.8597984  61.6072989  99.6853924 108.1334114  61.4473915
  98.5149956 105.1003170  89.2148972  98.9877892 104.5238113  88.6146069
  98.8302803 105.9785843  89.0016651 115.0522787  23.4957461  81.4421368
 115.5354149  23.7770038  82.2191238 115.6219036  22.8478675  81.0273933
  75.3494978  89.3120480  70.7790089  75.4711103  90.0214577  71.4100266
  75.0474977  89.7489738  69.9826908   4.9682747  11.8390327  66.8995190
   5.0644146  10.9827571  66.4826584   4.0913807  11.8216758  67.2829199
  27.8544426  98.3446980  46.8249083  28.0471468  99.2518520  46.5879011
  26.9181991  98.3428955  47.0240974  92.4086696   6.4784484  46.2743950
  92.5207931   7.4284225  46.3091755  93.2889206   6.1282115  46.4112425
  59.9215031  92.2177696  77.5261068  59.1168880  91.7579174  77.7656078
  60.4203415  92.2681713  78.3414888 116.1781216 110.8078194  45.0681734
 116.4727497 110.3934956  44.2571449 116.8954563 110.6633282  45.6852531
  83.8525391  93.3979034  66.7998171  83.7165546  94.3450069  66.8267012
  83.5583973  93.0892754  67.6568270  55.3090000 109.6706581  54.6461535
  56.0869455 110.2221298  54.7293377  55.1314974 109.3708515  55.5376863
  62.0789909  82.9560757  71.7271948  62.8617764  83.2467365  72.1951628
  61.7312384  82.2425556  72.2621584  28.2979809   3.8772540  20.6124616
  29.1918217   4.0531879  20.9062886  28.3729302   3.7785392  19.6633208
   1.3264023   8.4876876  49.9201202   0.4522501   8.3933406  49.5417213
   1.8109833   9.0056758  49.2773914  56.0770416  87.0508289  66.5242910
  55.7918072  86.6703415  65.6935644  56.8979263  86.6010380  66.7244291
  38.9567995  94.7587013  93.9552402  39.9005747  94.7592831  93.7954903
  38.8378453  94.1512775  94.6853924  78.0300140  98.1499004  59.3635225
  78.5203075  98.9718914  59.3763494  78.6876583  97.4760437  59.5357180
  67.4968147  79.1845465  89.0326595  67.6908302  79.5569849  88.1725025
  67.4346495  79.9428320  89.6135044  92.2234232  11.1315780  67.8934669
  93.0926449  11.0953479  68.2926798  92.3861438  11.0300784  66.9556761
  98.0111725  12.8327708  48.8378048  98.3661300  13.5833030  49.3141890
  97.5018293  13.2200675  48.1259012  77.2632551  89.0451050  52.5997877
  76.8772554  89.8976135  52.3986530  78.2031155  89.2160416  52.6604319
  56.2370729  67.7933168  79.9945545  56.8428993  68.5329962  80.0401020
  56.2139797  67.4473476  80.8867455  74.2336035  83.2285213  48.7869024
  73.7130213  83.7485313  49.3991280  74.2532587  83.7511635  47.9852247
   2.4458825  31.6574149  52.9020596   2.9912316  32.4225669  53.0847216
   1.6281640  32.0215373  52.5629711  91.6566372 111.1596966  43.1310272
  91.7267132 111.7630196  43.8708448  92.4875927 111.2541771  42.6653862
  94.2136699   6.1432605  60.5309010  95.0344354   5.7071643  60.7597971
  94.4094736   6.6115241  59.7193480 108.5101682  12.5533347  54.3273878
 109.3960506  12.4740558  53.9736128 108.6069710  12.3630767  55.2604818
  74.9814606  91.8741131  34.9093723  75.4527426  91.9773293  34.0826488
  74.7844076  92.7690029  35.1860785 106.3062746  20.0230937  67.2221231
 107.0157367  20.2075820  66.6066027 105.5084020  20.2406936  66.7401648
  89.0446758  76.1029720  94.2691422  88.3702087  75.8175611  94.8854733
  89.8137665  75.5806160  94.4969082  94.4861204  15.9088092  51.7450809
  93.9261133  16.0965304  52.4983263  94.2841417  15.0014644  51.5166903
   9.7485005  36.0047107  81.2489986   9.6922909  35.7822280  80.3197193
   9.1778122  35.3699737  81.6821957  85.6814289 109.7089577  95.4001236
  85.0794315 109.5875359  94.6658897  86.1753559 108.8901520  95.4428101
  44.6899271 103.7522602  77.4985170  44.4471121 103.5798645  78.4082127
  45.4765081 104.2943287  77.5591803  54.2294138  68.5827309  19.2383930
  53.8025873  69.1493184  19.8810646  55.0635927  68.3464200  19.6440193
  23.9432114  41.7911298  11.7313454  24.8627871  41.5597970  11.6006252
  23.4659689  40.9777600  11.5673325 102.0492536  27.6495223  61.7963505
 102.5648863  27.3944717  62.5613976 101.4389593  26.9237189  61.6660357
  61.7259741  94.1777992  42.8073263  62.5085735  93.6507130  42.9684067
  61.5582275  94.0773392  41.8703079  54.4778269  64.6386773   4.9876759
  54.3102186  63.7376172   5.2637836  53.8269442  64.8052651   4.3058941
  68.5986185  79.3402481  25.2567101  68.6591434  78.3855057  25.2244592
  69.3294573  79.6448755  24.7188401 117.6311666   6.1430030  75.4256868
 117.2763664   6.7554813  74.7813082 118.5805494   6.2380271  75.3490543
  48.0250376  56.9013936  15.8942959  47.8846186  57.0632893  14.9613926
  48.9226740  57.1921212  16.0553906 103.6445141 102.9405594  74.5123625
 103.6377335 103.1106186  73.5704136 104.2983341 103.5468197  74.8604965
  65.5489111 110.6025505  62.6805019  65.2669430 111.0133648  63.4977865
  66.4281511 110.9492970  62.5290394  80.4716015 101.4272118  49.0978765
  80.6927776 101.8170261  48.2520914  79.9265194 102.0850563  49.5295811
  33.3004796   8.5414748  54.2665863  33.4278046   7.5937514  54.2237616
  33.2034432   8.8116126  53.3534336 110.7302982  28.5086684  42.8792095
 110.4840881  27.8256278  42.2554588 110.2563793  29.2857413  42.5828981
  80.0213146  80.7260323  62.0806026  79.9435043  81.4175129  62.7378941
  80.8511353  80.2944756  62.2840548 100.8983261   4.8207812  60.5846548
 101.5296776   4.9383502  61.2944460 100.6737930   5.7110171  60.3139162
  61.6535425  79.5043945  55.6054497  61.5717030  78.9979362  56.4135551
  62.5569582  79.8206711  55.6114578  20.2738415   2.7281337  44.4409847
  20.5255543   2.3128944  43.6160898  19.3952404   2.3928886  44.6195745
  74.7074270  77.2402430  81.2741661  75.3034019  76.5044212  81.4141941
  75.2390671  78.0161905  81.4516354  77.0634747  75.2792692  68.4233570
  77.1431065  76.1198187  67.9723883  76.7023945  74.6868944  67.7638531
  20.2772652   6.4123778  75.8061314  19.9081646   6.6321998  76.6615105
  20.9312092   5.7389312  75.9933567  50.0626230  99.3648529  71.7937374
  50.4690409  98.5061169  71.9104290  49.1509438  99.2359066  72.0553732
  60.8225489 104.0148735  57.8896284  60.0113106 104.4485855  57.6250124
  60.6308603 103.6564636  58.7562466  74.0010118 105.5622196  65.6556845
  73.9716339 106.3106346  65.0596666  74.5596075 104.9242115  65.2116728
 117.7267391   7.1595912  70.2183294 117.1301014   7.2020965  69.4710350
 118.5960514   7.2864299  69.8382759  13.7458741   4.4788413  53.3292484
  14.6754109   4.5333438  53.1073809  13.2950436   4.8235088  52.5584173
  85.9205532 109.6946239  81.5043640  86.0322952 109.6887112  82.4550056
  85.2196789 109.0633297  81.3416481  82.3571665  12.4910026  68.7648678
  81.9916279  12.1077590  69.5622015  81.6261417  12.9672008  68.3710814
  96.7194444   4.5717483  35.4195046  97.4518472   5.1727252  35.5560350
  96.4871437   4.6828036  34.4975877  99.1545517   4.3996577  49.1279697
  98.9507372   5.0292544  49.8195601  99.3058426   3.5757403  49.5911264
  89.4670296  96.4761639  57.0770693  88.7849617  96.4158821  56.4082050
  89.1645908  95.9012127  57.7800560  88.7404919 104.2646694  63.2139111
  87.9893875 104.8579311  63.2032299  89.3603516 104.6738720  63.8177013
  14.9869858  11.0164504  67.2386789  14.4242321  11.6482406  67.6863194
  14.7003876  11.0450606  66.3258410  92.6445866  95.8751011  64.8594427
  92.3379517  95.8946419  65.7659912  92.5055790  96.7667675  64.5403147
   4.2789971   8.1589370  74.7820044   4.7705876   7.3846297  75.0558996
   3.7002598   7.8422694  74.0884542  75.1909494 103.1387234  80.3382778
  76.0431957 103.1600857  79.9030209  75.3904915 103.2852936  81.2629032
  98.2150364 104.3075848  91.6604805  98.3308697 104.5007992  90.7301712
  97.3809528 103.8401890  91.7059994  13.0593716  11.2700229  56.1716843
  12.4132477  10.5825000  56.3331461  12.5637757  12.0858626  56.2425327
  21.2532746   3.7903266  93.7663555  21.3392006   3.9837604  94.6998596
  22.0679986   3.3424621  93.5385799 112.4242813  23.1113010  55.1429319
 112.5973112  23.3475452  54.2316246 113.2615215  22.7798038  55.4675341
  53.3377028  87.8737736  63.0466652  53.3805180  88.8276196  62.9789734
  52.5170660  87.7030563  63.5088825  69.8852968  76.5713835  41.1531591
  69.5250654  77.0605516  41.8928719  70.7069111  76.2080765  41.4835978
  92.1580505 100.7379627  32.7182317  92.1306229 100.2635765  31.8873048
  92.9380703 101.2890148  32.6537895  88.6128998  82.4197483  80.4138851
  89.0160751  81.5773678  80.2039242  88.9895630  82.6612759  81.2600613
  67.8800886  27.5168092   7.0197269  67.9617518  26.7728955   7.6165173
  68.0967444  27.1583134   6.1590550  85.3073436  19.8481517  70.4701757
  85.1580841  20.7105403  70.0825548  84.6874172  19.2732768  70.0213575
  72.1697712  77.1283531  63.9715910  72.4794483  77.3332024  64.8538446
  72.4246168  76.2160015  63.8341188 110.4814941  22.2778278  75.0671291
 109.6839363  22.4568133  75.5652237 110.7841760  23.1399016  74.7817469
 108.2582170  16.4621978  39.4575644 108.3319504  15.5650001  39.7828770
 108.4920627  17.0089202  40.2076578 101.9712353 101.9014359  62.9055738
 101.3150787 102.3239517  62.3513460 101.4792919 101.5930939  63.6665869
  15.5072056  30.5305343  72.9824591  14.6454178  30.5572944  72.5667191
  15.4993283  31.2639861  73.5974455  87.0157940  30.4593616  38.5628843
  87.2012455  29.5290332  38.6906099  86.6853124  30.5168300  37.6663852
   2.6848923  12.3808532  79.5042229   2.0635926  12.0104461  78.8773060
   3.5367047  12.2958713  79.0759420  85.1356220  88.6954308  60.6256342
  85.4540348  89.5014572  60.2192450  85.1209068  88.0572128  59.9124098
  13.7872063  33.0831580  23.9085102  13.4954201  32.1715217  23.9057684
  14.4109093  33.1371932  23.1844258  80.2994919  86.4667988  51.3851166
  80.9578991  86.0439777  50.8337975  80.4406834  87.4039650  51.2508488
  19.6320473  17.4580531  87.0899391  19.9859845  16.5716510  87.1624756
  18.6824643  17.3375373  87.0901203  92.7581978  89.9843407  34.9781561
  93.1183434  89.5953941  34.1811299  91.8373680  90.1444244  34.7715998
 105.2842218  24.9905734  64.1091347 104.5125896  25.5099444  63.8831568
 105.3814632  25.1049476  65.0544882  94.4210083  46.6048293  95.0288105
  95.1981622  46.9091468  94.5601368  93.8981420  46.1597114  94.3619442
  95.6556017  21.3008838  63.6047125  94.7597772  21.3873725  63.9306831
  96.1933357  21.7425113  64.2620087  47.0398140  95.3173733  54.3439102
  46.3347483  94.7083759  54.1242933  47.3815346  94.9971581  55.1787233
  56.1085272 107.7393818  63.2798529  55.8358669 108.1254482  62.4474812
  56.7464209 107.0689011  63.0353498  54.7504807  84.6194839  90.9085274
  54.4304466  83.8043499  91.2950134  55.5867577  84.3823624  90.5077171
 108.0524761   6.3932376  64.7780228 107.5607759   6.7115264  65.5350971
 108.3351499   7.1875625  64.3248367   7.4725091  15.4238944  64.5222473
   8.1450211  14.7779994  64.7385168   6.6802632  15.0965934  64.9482346
  97.5116617   9.9397044  46.9134712  96.6254932  10.1688151  47.1935558
  97.7558691   9.2013698  47.4715614  56.4914513 107.1261501  56.3075066
  56.1873150 107.7819824  56.9348955  56.9870949 106.5007401  56.8361139
  80.8544827 106.7901421  42.1786928  80.7423782 107.3302555  42.9609585
  81.1601925 107.4006939  41.5078783 108.4222603 101.9713020  49.3906164
 107.9391003 102.6573467  49.8511982 109.2609692 102.3762035  49.1695690
  98.5984516  83.0045223  76.4440250  98.4997654  82.3903656  77.1715641
  98.7166119  82.4474239  75.6746626  98.6197567  86.6718769  66.5440559
  99.3433380  86.3127041  67.0575237  97.8355026  86.2811661  66.9294405
  95.9206421   4.4547134  78.5592842  95.8500225   4.4368510  79.5137119
  95.1785404   4.9878364  78.2741499  57.0508671  74.6477652  66.9181108
  56.1759615  74.6493292  66.5298223  57.5332403  75.3108835  66.4243317
 102.8905088  16.6380935  81.3236237 102.1584827  16.1592155  80.9349728
 103.1848556  16.0816627  82.0447159  97.5592024   7.7138095  53.0601549
  96.9262487   8.1880145  52.5209522  97.1422941   7.6510100  53.9195013
  63.4167385  91.8014908  70.6435490  62.7134752  91.5270710  70.0550365
  62.9900122  92.3850155  71.2709475  70.0235748 103.9064026  55.5215502
  69.9373150 104.6989632  54.9918079  69.2696333 103.9289665  56.1108685
  57.1614790 101.0510540  54.2529964  56.5889120 101.6074753  53.7249947
  57.3128080 100.2783108  53.7087584  68.4897596  12.3981052  90.8576870
  68.5176450  12.9458385  90.0731850  67.8634650  12.8364711  91.4337254
  60.9546488  48.2818562  12.7727863  61.2443941  48.3465916  11.8627998
  61.5310400  48.8781983  13.2506821   1.8675171   5.7792621  62.3659897
   1.3258015   6.0519462  63.1065464   1.3274228   5.9568839  61.5959311
  68.1904697 100.9474373  76.7520142  68.5133553 100.0821781  76.5003920
  68.4293604 101.0331440  77.6749563  37.1068716  98.0731106  74.2490244
  37.1596766  97.2524166  73.7592173  37.3320985  98.7486839  73.6094141
 112.4392700  73.7829971  73.9807320 113.1424522  74.1661358  73.4563494
 112.8799057  73.1465960  74.5438194  80.4769230  87.2155285  54.8595142
  81.3739777  87.5446701  54.8028755  79.9300909  87.9987240  54.7977400
  36.7596531 103.3954048  23.7572289  35.9550118 103.9070129  23.8411474
  37.1763420 103.4617043  24.6164179  24.5453297  17.6011520  70.3414202
  24.9553620  17.3770957  71.1768246  25.2632176  17.9370170  69.8047066
  88.7882597  22.1008258  39.8036695  88.9861232  21.1678462  39.8850203
  88.3716375  22.3306232  40.6342459   1.9697701  62.2404723  61.1605930
   1.9851529  61.6640144  60.3965902   2.7702748  62.0251899  61.6392231
  58.8680220  83.3082962  57.5265026  59.0706968  82.3819065  57.3962450
  58.3371592  83.3276653  58.3227730  56.7352724  84.0784168  13.1869900
  56.5954018  83.1472206  13.3588994  56.1877012  84.5259476  13.8320518
  74.4834614  98.7973976  63.3933401  75.2453947  98.3238602  63.0595016
  74.1801119  99.3178654  62.6494789  72.2311640  80.3676796  78.9716005
  72.7781820  79.9390841  79.6298647  71.7182493  79.6569777  78.5868216
  10.5608593  19.9824100  90.1885033  11.3417565  20.5253177  90.2966022
  10.6405102  19.6213393  89.3056011  48.9497029   1.2199931  52.6382780
  49.3630253   0.4591231  53.0462980  48.0132996   1.0955196  52.7928591
  79.5499706  67.3377228  66.8503618  79.7818851  66.5066242  66.4359617
  79.6321678  67.9854965  66.1504555  56.0995436 105.0511551  67.2951603
  56.7905045 105.6421757  66.9959831  55.3368568 105.2877331  66.7673635
  61.2754488  80.5371284  72.9986858  61.6773081  80.5656338  73.8669777
  61.2533331  79.6065903  72.7754354  95.7039053   0.6386047  61.1692715
  96.2692863  -0.1337762  61.1661386  95.5125171   0.7990794  60.2452326
  26.1516827  10.9973246  10.4759380  26.2111109  11.4294011  11.3279984
  25.3892964  11.3970525  10.0573418  96.9053078  96.7276096  79.2741871
  96.3771534  96.0925007  78.7905312  97.0148945  97.4596405  78.6672688
  96.5328884  91.5297890  64.0406370  97.0798206  91.9489002  63.3762264
  96.8458557  91.8898773  64.8704720  35.9825349  86.5098000  82.6812649
  35.1681542  86.2007523  83.0781269  35.7610798  87.3665428  82.3163223
  66.4624929  99.1379642  79.1507530  65.8409500  98.4412861  79.3618250
  67.0524549  98.7457085  78.5070848  82.0325661  84.0601540  80.2124405
  81.8168163  84.6550369  79.4942474  81.6584396  84.4764996  80.9889126
   6.7937790   2.9960399  80.1949024   6.7726552   3.9458804  80.0782681
   7.6411282   2.8239398  80.6055260   0.9548222  16.9153648  60.0417233
   1.5943467  17.4868922  60.4666853   0.4942595  17.4866061  59.4270706
  76.1882049  24.8235755  79.9799252  76.5457184  24.1343932  79.4200611
  75.2390796  24.7239261  79.9059916 107.8895694  32.9748588  58.5524130
 107.9525120  33.8627105  58.2002926 107.8926594  32.4099593  57.7796841
  77.3484230  87.7963448  45.5881691  78.0474567  87.3961830  45.0710106
  77.8035879  88.3801174  46.1950159  58.0237311  79.2089516   9.6007893
  57.7715033  79.8226220   8.9108345  58.9751261  79.1384751   9.5225975
  90.6277370  90.7564354  73.0197763  91.3539886  91.1432934  72.5307560
  90.5160999  91.3309097  73.7772417  20.2094208  20.1090484  88.9499092
  20.7203804  20.1181369  89.7592735  19.8684060  19.2165332  88.8919640
  73.8283730  98.1743622  54.7314692  73.2763433  98.9552975  54.6912384
  73.3432913  97.5666523  55.2896929  41.1596441 102.3190022  76.5239048
  40.8498573 103.1653214  76.2014055  42.0299387 102.2196102  76.1379766
  96.9045639  92.1633434  53.1842232  96.6452408  92.6684093  53.9548635
  96.2816620  91.4372158  53.1530142  68.8412666  77.4232912  64.9965239
  69.5688343  78.0355644  64.8869753  69.0519524  76.9416142  65.7964182
  82.6152134  99.3025684  70.5744028  83.1286430 100.0562954  70.2836895
  81.7932701  99.3709373  70.0886297  28.0065536 101.0383224  15.7259905
  28.4370637 101.1453342  14.8777914  27.2875929 100.4300785  15.5546319
  74.8439550 110.7264137  52.8303099  74.3201113 109.9312687  52.7324772
  75.5048227 110.6642056  52.1406651  67.4351406  90.9907913  29.4166923
  67.7243328  91.6803932  30.0142336  67.2140980  90.2556133  29.9884319
   3.8218819   9.2366080  57.4715376   3.7880646   9.1880088  58.4268999
   4.6943699   9.5805602  57.2799492 101.0061169  86.3133907  17.4681294
 100.7980251  87.2269917  17.2725093 101.8768597  86.1805534  17.0934439
 114.9738056  17.3760467  90.9624195 114.1197712  17.2476344  91.3751698
 115.0870353  16.6081100  90.4023361 106.9142420  10.9132438  59.1639900
 106.6879493  11.6989093  58.6662388 107.5232870  10.4385238  58.5983610
  25.6704079  36.7540889  57.6275539  24.8366868  37.0251422  57.2432709
  25.9292351  35.9848838  57.1200562  15.8949315  11.4508968  74.2192602
  15.8699738  10.5119567  74.0348959  16.4719712  11.5305858  74.9788046
 111.7442209  11.0754447  62.7939272 111.3919670  11.0385852  61.9046640
 111.8506271  12.0101123  62.9708433  12.4881112   1.3399463  92.3007202
  11.9229065   0.6058936  92.5414371  12.9277836   1.0514503  91.5009212
 115.9747869  16.2633281  79.0367746 116.7127258  15.7859092  79.4159126
 115.9832126  16.0211616  78.1107521  93.4156322 104.4665527  73.2372284
  93.0622673 104.6286201  74.1119289  93.1428814 103.5726070  73.0305767
 106.8639166  16.1156230  78.1601334 107.1852714  16.5335517  78.9590693
 107.6555330  15.8289676  77.7047157  64.0486717  70.8767796  90.6052303
  64.0325022  70.6453419  91.5338898  63.1733847  70.6546974  90.2877712
  93.7214834   4.3278461  67.2913122  92.8754837   4.3033652  67.7384329
  94.2977602   4.7970348  67.8946304  71.3268375 106.6739750  52.4834251
  70.6163120 106.2964725  53.0019522  72.1205759 106.2715530  52.8359556
  58.1341553  87.1052170  22.8164506  58.5546970  86.4046669  23.3150601
  57.7306175  87.6633549  23.4811854  65.1522779  81.1878681  61.5350246
  64.7153378  80.3470230  61.3998032  64.8879480  81.4563751  62.4149466
   1.6759448  70.6583738  71.4126301   1.3892035  70.0657415  70.7177925
   1.5470271  71.5342665  71.0487223  57.6344013  97.7092934  89.8600388
  56.7729807  98.1251335  89.8956871  58.2390356  98.4267426  89.6704960
  79.2250156  86.5883160  77.6079178  78.9896393  85.9875965  76.9008350
  78.4270525  86.6673565  78.1306410  85.6711942  11.6110950  88.3957100
  85.9803087  12.5155597  88.4470177  85.5892927  11.4388137  87.4577141
  98.9387495  14.5727210  50.6350374  99.4179613  15.2892642  50.2189207
  99.5535452  14.2128997  51.2744045  55.4423475  78.6359310  85.0376034
  54.8800087  79.3999624  84.9100876  55.7770395  78.4362841  84.1633320
  80.6787968  70.3332233  57.3515987  81.3655567  70.9786558  57.5189638
  80.4487038  70.4614735  56.4313602 100.4837496  10.3090911  86.6635132
 101.3380176  10.3945117  87.0867920 100.1382858  11.2014442  86.6390228
 100.6633503  27.1732478  80.5807304 101.4409763  27.6352744  80.8938789
  99.9359400  27.5854926  81.0467434  52.7903383  58.6592919   6.8173000
  53.0455034  59.1321618   7.6094601  51.8369311  58.5951955   6.8732521
  71.5207958  85.7072735  43.8605642  72.2508907  85.1661205  43.5599947
  71.6528463  85.7842636  44.8054790   2.6561677   8.6787467  52.2938919
   2.1793972   8.3962112  53.0743408   2.0857846   8.4370189  51.5641880
 102.9551315 110.9446144  70.4449034 103.3291340 111.0330009  69.5682383
 102.5342655 111.7879486  70.6118965  83.9255428  63.8973951  55.4198933
  84.8185062  64.1444921  55.6602764  83.6733913  64.5326996  54.7497845
  70.5298233  75.2090168  76.8148756  69.9019718  75.3175259  76.1005497
  70.3593493  74.3295383  77.1520615  63.6518002  92.3080540  43.0470753
  64.4579411  92.3720455  43.5592031  63.2493305  91.4888096  43.3353043
  78.3354872  37.9051644   2.3459026  78.1216639  36.9763619   2.2574017
  78.4039801  38.0462510   3.2901737   2.9357962  79.1429043  45.5378246
   2.7566199  79.1682577  44.5978832   2.1125273  78.8530684  45.9308481
 102.1355820 100.9584332  69.1271448 101.2069988 100.7483578  69.2263603
 102.2198677 101.8440437  69.4804573 113.1438953   2.8457980  79.8948765
 113.7169821   2.1778445  80.2712250 113.1654054   3.5638862  80.5274296
 101.1736679 105.4454803  45.7922316 101.8765545 105.4481506  45.1424742
 100.4900455 105.9942245  45.4078102  88.6219025 102.2857761  48.3892488
  87.7347660 102.5748825  48.1756163  88.6688232 101.3899612  48.0552578
  56.7615891  81.7195415  82.4966049  56.0083961  82.2956085  82.6272964
  56.7980289  81.5840149  81.5497494  14.4663178   8.6042361  62.2482252
  14.2961823   9.5283179  62.0655775  15.3085457   8.4283023  61.8287802
 104.1039181  77.1128082  70.2471352 104.8047829  76.8536568  70.8453465
 104.5339966  77.1959925  69.3960476  28.4939241 106.9519043  51.8178225
  28.0805254 107.0981216  52.6686811  28.6494565 106.0079575  51.7861605
  74.4800043 107.9471111  64.1246223  75.3461456 108.2106304  63.8138390
  74.1931105 108.6732101  64.6784258 110.1041317  62.5944471  58.5724449
 110.8085346  62.0268583  58.8853168 110.3797531  62.8561783  57.6939487
   5.6755673   4.9045997  84.1641617   5.0962197   4.3167930  83.6793232
   6.5124356   4.8504310  83.7026978  22.2892701   7.5212436  49.3503094
  21.8356549   8.3640247  49.3372726  22.5420987   7.3712020  48.4393740
 111.3796806 107.7455139  58.2202291 111.5663338 108.6540222  57.9835939
 111.9693851 107.5625229  58.9516640 108.3095056   3.8244205  29.1999459
 108.5626251   2.9518466  28.8986611 107.3526222   3.8045459  29.2145658
  60.2072161  87.2326619  13.2111904  59.8995608  87.6884229  12.4276993
  60.6411379  86.4477212  12.8768131  92.1210480  95.2564526  80.0986862
  91.6780376  94.4108677  80.0281811  92.3656368  95.3224659  81.0217476
  32.8095280  26.3259845  23.4330797  33.3040654  25.7317214  23.9974475
  31.9122254  26.2783389  23.7629533 112.1205360   7.0164924  41.1703157
 111.4866811   7.5699668  41.6265154 112.7158005   7.6341014  40.7455254
 102.3960621  18.0681377  63.1550837 101.8226606  18.0944400  62.3890877
 102.5818235  18.9873462  63.3468819  30.1123272  14.8549609  55.1727343
  29.2864071  15.3338390  55.1036358  30.0202881  14.3324428  55.9694386
 105.3987789 110.4205227  26.7990065 105.4052067 110.4749107  27.7546382
 104.7484016 111.0678673  26.5266418  63.3456326 111.3081551  95.7700729
  63.8054705 111.8756294  96.3887501  63.3667278 110.4424381  96.1779022
  42.2807442  16.8636565  75.7231760  42.5894867  17.0620875  74.8391294
  42.7686535  16.0802608  75.9770584  34.9991929  15.2164703  62.6617336
  35.6504952  15.6209426  63.2348347  34.9653183  15.7895141  61.8957663
  18.4515511  22.8058677  73.4667492  17.7911698  22.8181796  74.1595459
  18.8446843  21.9351440  73.5260344 102.2173691  96.8411732  66.8371534
 102.4460411  97.7434540  66.6139221 101.2751675  96.7863750  66.6775322
  25.4419171   2.7809386  80.0471210  25.2048146   2.6499801  79.1290426
  26.1411225   2.1469932  80.2066803   8.5244500   1.1272864  56.6389751
   9.1535222   1.2756400  57.3450136   9.0144860   1.3144546  55.8383131
   3.2479607   1.1946540  63.7976360   4.0965592   1.6100936  63.6442852
   3.2497918   0.9837108  64.7313023  10.3790604  10.1763778  58.3476830
  10.9177338  10.1464515  59.1383553   9.9482094   9.3221049  58.3189249
 113.0533249   6.5205054  58.0166245 113.2969600   6.3112598  57.1149111
 112.5800688   7.3498969  57.9505396  30.3384053   5.4634242  24.3110633
  31.1085450   6.0314899  24.3313885  30.6029164   4.6837573  24.7993112
  20.9996926  39.3818622  74.7239971  20.3637921  38.7146049  74.9821138
  21.0625493  39.2975097  73.7725973  94.2653561 102.5409412  58.9776039
  95.0877762 102.8881264  58.6321735  94.4263744 101.6031837  59.0821409
   3.7747990   7.0057063  64.2423964   4.6156250   6.6532855  63.9507771
   3.1298481   6.3644652  63.9439201  89.7500641   4.3580012  55.4523420
  90.6882269   4.2132526  55.3293562  89.5303804   3.8528972  56.2351799
  39.9773758  34.9309785   3.3511707  39.3453377  34.5094067   3.9334461
  40.2888125  34.2251927   2.7845070   3.5169064   3.9084582  92.8924370
   3.9805161   4.5266681  93.4573364   4.2010437   3.3257251  92.5628567
  20.0922524  48.5658698  48.9826679  19.5633923  48.2239871  49.7035456
  20.9929501  48.5191779  49.3032789  55.2941530  66.6343457   0.4761383
  55.6112307  67.5290067   0.3525326  55.3113001  66.2508637  -0.4007175
  63.1794739 103.4117222  56.2652922  62.7161360 103.7440395  55.4964542
  62.5958014 103.6051941  56.9988632  88.3618450  89.1014671  92.5526047
  88.8170719  88.4649658  93.1038475  88.0028152  89.7391891  93.1695557
 104.9151642  22.9392486  81.5010738 105.1252538  23.0366855  80.5723190
 104.0931732  23.4169917  81.6121006  15.4948269   4.4644885  65.2630234
  15.1264607   4.9692779  65.9880972  16.4043080   4.7572570  65.2050638
  38.3558594  19.4287353  46.3030958  38.4593903  19.0301185  47.1671677
  39.1900288  19.2659812  45.8627415 100.2763111  11.7144733  53.7652683
 100.5287534  10.8375793  53.4761906 100.5421383  12.2891097  53.0473804
  70.8520031 106.2464333  69.5969343  70.0666046 105.8263683  69.9475574
  70.8527708 106.0154152  68.6680317 110.9031994  19.8885398  60.0872660
 111.4453155  19.9717002  59.3027782 110.0938303  20.3507094  59.8691940
  79.3684578 101.4198589  70.8022738  79.3475246 102.3181438  70.4723167
  78.5714626 101.0187435  70.4556561  23.1830632   7.6213031  79.0016317
  22.8332745   8.3522754  79.5111084  23.3064209   7.9794078  78.1225538
  61.7141438 106.7130566  77.9564047  61.1139441 105.9864712  77.7888393
  61.9970036 106.9955063  77.0866680  26.0432451  54.8630387   3.2175896
  26.1705845  54.5758683   2.3134014  25.9402436  55.8126218   3.1550476
  80.2412224  90.2190495  55.8369684  79.5669365  89.9407959  56.4567566
  80.1757336  91.1739254  55.8245134   1.3396125  98.6180782  45.3420639
   0.8556418  97.7922440  45.3387403   1.0555796  99.0653515  44.5448780
   3.4694325  18.6334472  76.9025040   2.9052197  17.8946548  77.1306992
   3.1326233  18.9410644  76.0609770  45.5030476   5.0266128  65.4879618
  46.3234555   5.5074458  65.5973291  45.0346219   5.1616721  66.3117123
  52.9772316  10.3259711  80.0806141  52.2763096   9.6772819  80.1448536
  53.7503468   9.8780208  80.4239368  41.6653286  28.0571132  48.6106253
  41.3187157  27.2976546  48.1423235  42.5748383  27.8268771  48.8004017
  84.4520647  22.4358802  69.8344278  85.1017887  23.0224471  70.2217674
  84.3777830  22.7273803  68.9257240  81.1427402  91.7672157  86.2553978
  80.7205582  92.5040817  85.8137894  80.9162617  91.0060596  85.7209969
  13.5359513  22.3089938  68.4623289  12.6002919  22.1622329  68.6009836
  13.7607609  23.0127959  69.0708971  53.6991882 106.2464142  70.6479216
  53.1375551 105.6489658  70.1541042  54.5897627 105.9574509  70.4489088
 114.7916109  18.7469726  28.7307763 114.4631178  19.3022113  29.4379044
 115.4652054  19.2763286  28.3038282  49.6661680  58.0189664   7.5770638
  49.6874064  57.5813348   6.7260334  48.9253062  57.6198632   8.0332062
 107.6392841  62.6405621  62.5224352 106.8384075  62.1465254  62.6977873
 108.2282066  62.0053482  62.1151209  14.8554932   7.0373016   7.7791864
  14.2277466   7.7451472   7.6338190  15.0180947   7.0513206   8.7223703
 102.0967960 105.7612133  58.7800837 101.4558601 105.3207397  59.3381405
 101.6314030 105.9179211  57.9584503  12.2490727  21.0498099  72.3161602
  12.3914658  20.6552081  73.1765366  11.8560254  21.9018035  72.5055027
  85.3241634  86.7576504  50.6410074  85.5061150  87.1941471  51.4732313
  86.1324024  86.2879467  50.4351807 108.9461261   2.3724799  64.6120644
 108.4195644   2.4985271  63.8227081 109.0429956   3.2515388  64.9782610
  42.4699341  15.9514003  48.8146019  43.1793915  15.5789905  48.2909441
  41.9308793  16.4278655  48.1832314  20.6083905   5.5477004  72.2190952
  20.4376732   5.6440024  71.2821770  21.5585076   5.4489856  72.2805166
  65.9255505 103.4083748  53.5880280  65.3713322 103.7783813  52.9008865
  65.7780504 103.9746284  54.3455458 109.0423233  26.9056182   4.5833406
 109.8315508  26.6834121   5.0772792 108.9643747  27.8555923   4.6711004
 116.7803383 104.7274208  90.0303745 116.6246319 104.4299030  89.1340065
 116.5695953 103.9687061  90.5745792   5.8668458   6.2188392  74.0505028
   6.7455040   6.0212283  73.7262440   5.3886925   5.3941016  73.9644670
   4.4454609  24.3579536  50.5504513   5.0419175  24.5595698  51.2714434
   3.7194478  24.9718051  50.6614304   7.8104531  22.3307185  69.3253183
   8.0710351  22.6713328  70.1810646   7.0874917  22.8957229  69.0526676
  58.2639599 102.0968056  23.7895060  58.6088657 101.2264061  23.9886880
  58.1612158 102.1017170  22.8378510  40.5799424  51.3862853  38.5377192
  40.2233635  51.9641738  37.8630877  39.8126160  51.0813003  39.0218830
 109.0509254  20.8508067  36.7747784 109.6422941  21.4423995  36.3094544
 109.4036991  19.9772887  36.6052389 101.6603661 100.3985882  96.3499069
 102.1248913 101.1566639  95.9952736 101.5400505  99.8182678  95.5982494
  10.8272206  33.2029586  55.1979637  11.3669621  33.6377578  55.8581686
  10.5432545  32.3908954  55.6176615  31.2727486  16.6028266  64.4158411
  31.0950600  17.1492534  63.6502790  32.1425473  16.8754344  64.7080040
  25.1687371  56.6232352  61.7214918  26.1248909  56.6533523  61.6885424
  24.9660145  56.4533286  62.6414251  27.8034817  11.4037280  54.3104458
  27.6030289  11.7899184  53.4578562  28.6008679  10.8955245  54.1616821
  40.0046860  38.8654285  29.2731643  40.1155316  39.3286662  30.1034355
  39.0696751  38.6642795  29.2340946  85.3672218 101.1964607  65.4233217
  86.2947559 101.2246227  65.6580830  84.9179935 100.9994602  66.2452793
 109.1137869   6.0902171  43.6493301 109.2530185   5.4037910  44.3017530
 108.1974775   6.3437991  43.7602758  18.4966694  25.8977466  52.9237747
  18.4047257  26.6779285  52.3768806  18.1170022  25.1921039  52.4001741
  64.8295450  98.8768673  60.7613707  65.6929874  98.7771702  60.3604269
  64.4265795  99.6026897  60.2848911  97.5333339  37.6838260  67.3602676
  98.0905706  36.9055514  67.3564434  97.3280079  37.8268485  68.2841778
  32.1047341  23.4318786  29.4633698  31.7347561  24.2619281  29.7639990
  32.6988446  23.6773639  28.7541485 106.3251877 108.7701893  59.3944359
 105.9980583 108.1576252  60.0532150 105.5502415 109.0137482  58.8880920
   0.6701933  25.4828220  66.0763359   0.8971058  25.3471618  66.9963026
   0.4234349  24.6138148  65.7598495   9.1576611  16.7087417  75.2353001
   9.6947705  16.1127429  75.7573509   8.5890137  16.1330562  74.7239685
  71.0793591  99.8384190  76.1635399  71.9249678  99.4019032  76.0604191
  70.8741188  99.7462368  77.0939207  20.5355679  17.8565078  20.7196236
  21.2554394  17.9450755  21.3442707  20.3214871  16.9236331  20.7315850
  18.7981259  17.2045474  66.4212036  19.4194352  17.4248939  67.1152163
  18.5405194  16.3017993  66.6080999  97.6048088 102.9119205  77.4560785
  97.9162979 102.4234867  78.2180738  97.6811123 103.8308239  77.7130270
  56.1264437  71.6198499   3.6120197  55.1728647  71.6492421   3.5342094
  56.3652151  70.7461793   3.3023140 102.7902300  14.2622714  54.0561485
 102.9032594  14.5700507  53.1568575 102.9448349  15.0375419  54.5958519
  80.3062439  92.0294571  80.8608150  79.9805260  92.9290295  80.8910465
  79.6724415  91.5634346  80.3155136  95.5288219 110.5364895  46.8628073
  96.3906002 110.4165363  47.2617722  95.6391716 110.2379894  45.9600592
   1.8490540  29.9098926  62.1215153   1.5509640  29.1897254  62.6771545
   1.3241326  29.8309474  61.3249874   7.3855053   6.6283469  85.3590107
   6.4609944   6.3813167  85.3369522   7.8070103   6.0343986  84.7378922
  79.0804625 105.6916618  46.3855410  78.5835838 105.7210922  45.5679369
  79.9508429 106.0118008  46.1485147 110.8769304   4.9935393  29.5395017
 111.3727361   4.3712859  29.0073347 109.9990017   4.6160178  29.5938039
  61.3019705 102.7271461  49.0412664  62.0942068 102.4777985  48.5654306
  60.7169437 101.9759750  48.9426756  31.4025532  16.9035392  86.9523621
  31.7085682  16.3027625  86.2729073  31.2073075  17.7152495  86.4841270
  49.2723894  91.8508244  74.3268776  49.3634367  92.7691841  74.0728092
  49.2973566  91.3698578  73.4996605  15.6158959  21.7829852  62.6386118
  15.0293862  22.2959380  62.0826244  15.9905278  22.4217754  63.2451057
  76.7781973  97.4837208  66.1346054  77.5347710  97.1696377  65.6394529
  77.0000315  97.3067951  67.0487833  26.0228031  67.9451806   2.5761196
  26.1447733  68.8881356   2.4657318  25.3200548  67.7215154   1.9659111
 112.0097923 109.9238682  86.8823147 111.2582397 110.4507923  87.1538925
 112.7035141 110.1610565  87.4977207  40.0373017  23.2205253  61.4588451
  40.1741921  22.6061111  60.7377386  39.8671185  24.0591579  61.0299206
  32.3182934  74.9653489   3.1197331  31.7450302  74.3835122   3.6188004
  31.8453377  75.7968766   3.0865261  96.3101482  78.7606049  67.1063471
  96.4201641  79.3785858  67.8289986  95.6636333  79.1738749  66.5341091
  34.3497120  16.0326915  10.3519261  34.7428357  16.9039207  10.3003609
  33.4602486  16.1896567  10.6688702  24.4165074  19.2172866  85.1872253
  23.5254418  19.2345576  85.5364132  24.9566304  18.9294677  85.9231949
  89.8495102 101.1015129  68.7886047  90.4633331 101.3365459  69.4844532
  88.9872646 101.3051605  69.1509533  87.8583891   4.6378188  77.9817724
  86.9421512   4.6100860  77.7061415  88.3110458   5.0810676  77.2642374
  70.9561920  91.7706490  48.2955503  71.4600992  92.5559330  48.0819368
  70.4771280  91.5675640  47.4921274  29.0652787  23.8538985  87.4445820
  29.1764771  23.6849170  88.3801651  28.1227147  23.7754779  87.2974014
  58.9124632 109.4342327  69.2212963  58.6176205 109.6953201  70.0937223
  58.6034775 110.1331806  68.6449099   2.4974190  16.6733985  92.8773785
   1.7073475  16.7815833  93.4068298   3.1919896  17.0761256  93.3985519
  14.8633515  17.9348331  62.8377104  14.4613778  18.7380939  63.1685019
  15.3961121  17.6160197  63.5662413   6.2313496  29.7488456  34.9663019
   5.5614888  29.6538406  35.6434178   6.1013352  30.6329112  34.6231365
 116.1027431  96.9475174  67.8063583 115.7324314  96.1306095  68.1406641
 116.9457054  96.6925716  67.4313354  93.8912470  41.1139445  89.1290855
  93.0019743  41.4043861  88.9264488  94.4393188  41.8781333  88.9505959
  68.2801437  77.4774933  60.0564718  67.7885532  78.1734657  60.4925776
  68.3507586  76.7857504  60.7143021  78.4596097  27.5818591  70.6392002
  79.2619835  27.8817325  70.2119923  78.6208855  27.7162604  71.5730953
 115.6481171 102.0382500  95.6411648 116.2022495 102.5729084  95.0725555
 115.1963902 101.4422512  95.0437069   7.3555123   3.9105086  37.5421357
   7.4539410   3.1804996  38.1533861   8.1712853   4.4042831  37.6254153
 103.6286003   6.0238795  68.6168909 103.1007129   6.2960105  67.8662157
 103.0948002   6.2483745  69.3790579  34.0278756   7.8461509  60.8399391
  33.7661683   8.5825877  60.2873039  34.8868977   8.0957275  61.1805677
  84.1578960  74.9287796  68.1500530  84.6511269  74.7995806  68.9601517
  83.3267212  74.4787884  68.3013439  12.4226128   4.4781356  46.0100508
  11.9998681   4.8976665  45.2607107  11.8875824   4.7343307  46.7612743
  84.1421795  99.5245743  57.9895353  84.7097778  98.9671135  57.4572802
  84.2928696  99.2312813  58.8881445  98.9372236  21.2268691  61.4720058
  99.2894680  21.0706287  62.3482180  98.1374056  20.7020908  61.4383125
  11.4401393  75.1306343  65.2140713  12.0941596  75.6303358  65.7027197
  11.4312510  74.2712831  65.6355858  72.6513720 105.5277538  56.4384365
  72.6077271 104.9438000  57.1956158  72.5937080 106.4076328  56.8109083
  14.8812043  17.9135375  68.6746407  14.2520081  18.0622344  69.3804932
  15.4368340  18.6929469  68.6809349  90.5237198 100.0878143  60.0945902
  90.2937317 100.9468079  59.7403908  90.7051659  99.5513153  59.3229198
  32.3528229  16.0663753  82.5250340  31.9438492  16.8483596  82.1542740
  32.6268612  15.5554156  81.7634201  53.9600849 108.7899303  33.2562613
  54.8880339 108.5557461  33.2736540  53.6405325 108.4408855  32.4242234
 109.5982838  99.6668816  55.5905819 109.2995930  99.4162560  54.7163963
 110.5465889  99.7618771  55.5015802 101.6407615  13.2625346  77.4371338
 101.8637687  12.5016742  77.9734087 102.3727733  13.3478789  76.8263102
  10.6226002   7.1337562  64.2326736  10.0055634   7.8571086  64.1219282
  11.0354554   7.2987704  65.0803471  34.2484414  12.6349883  56.6421461
  34.3411385  11.6823154  56.6491604  33.5932766  12.8069072  55.9658051
 116.7595673 100.0766754  81.0170841 116.1262989  99.9422264  80.3120136
 117.0838547  99.1988659  81.2183666  68.9204264 104.5414162  70.3663301
  68.5522985 103.9407158  69.7183466  69.6142387 104.0381718  70.7924891
  35.6889187  12.1410136  68.0482054  36.2305962  12.7036910  68.6015701
  35.9321343  12.3792319  67.1535921   5.7940041  40.7270770  40.2374411
   5.9363877  41.4081149  39.5800567   4.8679959  40.8054118  40.4667807
  17.3899018  24.2072921  37.1284103  17.2004448  25.0314098  36.6798997
  18.3325612  24.2350345  37.2923350   7.6607262  22.5121169  62.1997976
   7.6599442  21.5597110  62.2954130   8.4193837  22.8030067  62.7058172
  89.6244907  98.1853485  49.3905640  90.5033016  97.9217339  49.1177607
  89.1377354  98.2796764  48.5717773 112.0557911  33.4645801  63.8641024
 112.4768812  33.4296088  64.7229958 112.6286442  34.0235286  63.3390856
  82.4462700 105.7983971  64.1528082  82.6924419 106.0682392  65.0375795
  82.7955246 104.9113178  64.0670633  97.8964407  37.6557880  70.1105356
  97.7542812  36.7457442  70.3709745  98.2601005  38.0742221  70.8908558
   3.9923035  26.7426734  63.2121706   4.3835770  25.8733420  63.2981777
   3.0936276  26.5739112  62.9291153  49.0242052   8.8247192  78.3522940
  49.2085505   9.7135431  78.0485821  48.6915827   8.9399248  79.2424202
  16.5080965  18.3553326  37.3489332  16.1610413  18.9133179  36.6529179
  16.1614680  17.4848151  37.1532822   7.6385963  14.6434736  17.5907898
   6.9207555  14.7762692  18.2099032   7.2200006  14.6661639  16.7302704
 101.0753120 100.6136305  35.2369356 100.6076444  99.7903771  35.3775501
 100.6704653 100.9884961  34.4547558  72.6281173  77.3382230  34.6178555
  71.7382700  77.0255561  34.7810864  72.6370985  77.5597877  33.6866951
  40.2190447  15.9531283  71.5018511  39.5674181  16.1354911  70.8248329
  40.5961132  15.1100087  71.2504530  74.1376419 110.0615388  78.3574200
  74.9276675 110.0244775  78.8966036  73.4913106 109.5500247  78.8440847
  29.3945384  10.0356185  28.4643388  30.3129363  10.1053524  28.7249446
  29.4180083  10.0140882  27.5076699  16.3684338  96.9634397  31.1447644
  16.4845103  97.9101832  31.2249851  16.3649958  96.6452117  32.0475101
   3.8954246  11.0772467  52.8245306   3.5605633  10.1891947  52.7001858
   4.8169988  11.0233366  52.5714970 102.0217074 105.5110336  48.1594372
 101.8370093 105.2738781  47.2506618 102.0869769 106.4659519  48.1492519
  72.2294904  82.6898308  21.5701413  72.8622712  82.2532363  22.1404099
  71.9698847  82.0168300  20.9409332  48.7733316  34.3813443  52.9756975
  49.3221569  34.1192913  52.2365427  49.3529892  34.3271065  53.7354946
  36.8493438   5.2484447  51.3960028  37.7039194   5.6407976  51.2171507
  36.6976690   5.4182869  52.3257208   4.5407599 100.9805269  35.7160711
   5.2450388 101.5538074  35.4134560   4.9920338 100.2428312  36.1264181
  64.1286945  15.4440272  45.4159546  64.0791178  16.3998938  45.4062557
  63.2779598  15.1566947  45.0844049  24.2462873  21.3576531  34.9590158
  24.2557073  20.5773759  34.4046593  23.3211732  21.5949869  35.0228024
 111.2419666  91.3000984  41.6622019 111.7637981  91.5976949  40.9169769
 110.3681386  91.6555018  41.4998865  84.6914704 107.4333851  38.4166908
  84.7619093 107.5381608  39.3655300  84.1993655 108.2015101  38.1267810
  67.0877481 102.0587314  29.0953493  66.3584341 102.3567183  28.5517168
  67.7605439 101.7926533  28.4686279  74.4667250  52.6557996   0.5310509
  74.0238601  51.8407665   0.7673142  74.6160681  53.0981727   1.3666508
   2.4539536  83.3552689  51.8425179   1.7573612  83.4988232  51.2019062
   2.2751301  83.9893360  52.5369310  35.9347486  61.9702959   9.9316740
  36.6908717  61.8829250  10.5120838  35.5840564  62.8398323  10.1244271
  11.5254402   7.1453500  54.4508886  11.5555346   6.6983175  53.6050224
  10.9278774   7.8801632  54.3123198  78.0171851 103.0548341  49.4020796
  77.7408885 102.1384497  49.4135809  77.3783816 103.4905375  48.8378763
 104.8998482  44.3914795  50.8229542 105.4865737  44.0491962  51.4973640
 105.4421540  44.4396687  50.0356722  27.6586986  35.3910232  17.4857438
  27.2799921  35.3683138  16.6069388  27.9476023  34.4925261  17.6453424
 113.9578445  22.5335431  47.4826479 113.2499297  22.0594263  47.9188824
 114.7363304  22.3326850  48.0021143  79.2415961  94.8299379  33.2328749
  78.4630316  94.3083770  33.0378294  78.9473505  95.7375307  33.1558943
  46.4416933  11.0260046  72.9677153  45.9569931  11.4549971  72.2625446
  47.3518419  11.0328031  72.6713705   2.6086113  12.1765685  23.1890368
   2.3744464  11.2516594  23.2661200   2.5441393  12.3626971  22.2523236
 118.3493496  18.9219987  49.5847845 118.0695957  18.5954237  48.7296104
 117.5330645  19.1015995  50.0513172  33.5331368  22.7202535  40.7861519
  32.6692176  22.3131824  40.8507109  33.5750175  23.0523443  39.8893809
  23.2294893  24.5383596  20.7959890  22.3236108  24.6297193  21.0914087
  23.7439036  25.0090408  21.4517879  23.4702373  38.3524394  49.0613222
  23.4558082  37.4656057  48.7013912  23.6417294  38.9147520  48.3059263
 104.4345184  13.3638632  28.8062358 104.2010386  12.4407935  28.7079453
 104.0394623  13.6235309  29.6385431  11.4737284   5.6473285  33.7984157
  11.4618993   6.2057865  33.0211020  12.0686078   6.0909522  34.4030213
  49.4134808  27.7121520  36.1188889  48.6564875  27.7725291  35.5361819
  50.0998640  28.2075214  35.6719828  22.4138594  27.9308963  19.3130267
  23.1098962  27.3075819  19.1050804  22.7736330  28.7828422  19.0660799
   0.7391536  26.1317897  34.2137694   1.3956568  26.3893032  33.5665274
   0.4903957  26.9511080  34.6416378  93.9218725  98.4654922  29.5682788
  93.1155528  98.6102457  29.0731764  94.2092598  99.3431730  29.8199081
 106.0115679  11.7287505  53.5684395 106.3203449  10.8244491  53.5125208
 106.8104120  12.2501731  53.6471796  15.7174850   1.4712526  46.6479445
  16.2498033   0.7084385  46.8737364  15.8268225   2.0673972  47.3888111
   6.3085705  19.7316384  45.1044750   5.9358680  19.4790804  44.2597628
   7.2022378  19.3893409  45.0839233  24.6469140  14.9331760  59.8015690
  23.9905167  14.2817795  60.0486660  25.0172472  14.6016455  58.9835405
  10.7522368  22.7783704   0.9172507  11.3602448  22.4044061   0.2795146
  11.3107729  23.0722880   1.6368911   3.2680863  85.4971928  29.8493314
   3.9475125  85.9905095  29.3897057   3.0538290  84.7760863  29.2574430
  30.6902146   4.8289126  32.1669960  30.5102372   3.9346632  32.4570966
  30.1982284   5.3813601  32.7744365   6.1473858  26.4833689  37.4465322
   6.3487458  27.3924685  37.6683998   6.3465905  25.9924912  38.2437682
  36.7989612  18.3348536   5.6848478  36.5157294  19.0036166   5.0613356
  36.0183930  17.8016114   5.8351725   4.4583145   8.3850175  16.7605591
   4.9492913   8.1402677  15.9761667   4.1027063   7.5588602  17.0880318
  97.2432680  20.5484986  38.3914113  97.2213192  19.8717511  39.0679932
  97.4404307  21.3557839  38.8664389  56.3138730  30.6307524  91.1226371
  56.6279084  31.1875528  90.4101863  56.0068256  31.2451881  91.7892876
  39.1116595  44.9203062  29.3707728  38.7321329  44.7729778  28.5044670
  38.9493465  45.8466578  29.5489836 105.8961428 109.0612046  33.1816196
 106.5107001 109.0769419  32.4479270 105.9514678 109.9390171  33.5592651
 104.3485178 103.3382780  53.6338663 103.3919681 103.3034660  53.6395216
 104.5685256 103.9872314  54.3022156  90.4183818 111.1649926  19.3414772
  89.8881365 110.3942238  19.1390252  90.5234827 111.1403162  20.2925706
  57.3663134  48.1358212  92.8825241  57.3472959  49.0917110  92.9288348
  57.3059375  47.9400795  91.9474989  25.8270192  16.9833183  36.5762210
  25.6234932  16.0485792  36.6089535  25.0429749  17.3862374  36.2031770
  54.4233507  54.8876553  95.9476423  54.9959869  54.1369718  95.7901802
  54.7815222  55.3015641  96.7328969 111.9916584  25.0568008  46.9918013
 112.2634967  24.8861814  47.8935909 111.6460754  24.2191792  46.6832685
  68.1192351  92.8163547  31.3101888  67.6120425  92.9216583  32.1151090
  68.5212267  93.6730988  31.1665821  98.5650826  51.1488147  25.8543730
  99.0409053  51.5323062  26.5910935  98.9756740  50.2942128  25.7228494
   8.3447188  92.4674458  15.1710498   8.7880152  91.6231758  15.2543068
   8.4466379  92.8772206  16.0300767  99.6828122  20.8007669  19.7364879
  99.1685624  20.3633428  19.0579319 100.2290244  21.4246058  19.2582512
  96.4339579 100.2080471  31.1884046  95.8492423 100.6443937  30.5687737
  97.3068453 100.5272610  30.9594870  20.7830215  30.1218557  28.7617016
  20.6192279  29.6933389  27.9215956  20.0177741  30.6802320  28.8989806
  36.4514780  23.1419659  23.4106851  36.3268590  23.1289148  22.4617219
  36.7162585  22.2485948  23.6297917  42.3034620  12.9160798   4.0785542
  42.4786663  11.9965148   4.2783961  41.8280840  12.8943288   3.2480267
  71.2670088  25.7348418  53.7387943  70.9133148  25.0284600  54.2793083
  71.4499187  26.4415646  54.3579197  21.1949110  15.3000820  41.7641306
  20.2824140  15.5870259  41.7993927  21.2904119  14.7126734  42.5138378
 108.2844938   5.3547066  47.9408360 107.7868350   4.6176410  48.2948160
 107.8948601   6.1262977  48.3520126 107.9511202 104.5552821  44.9798679
 107.2336424 105.0526411  45.3724098 107.7660383 103.6450024  45.2108812
  78.1655125 107.5301225  52.6659393  77.2795435 107.1723879  52.7235317
  78.6081584 107.2006480  53.4480810 101.4602769  92.0136936  32.2199607
 100.8501018  91.8961592  32.9480433 102.2080363  91.4589877  32.4421954
  75.4863290  79.3928261  61.9085503  75.1850227  78.9921470  62.7239656
  75.0585903  78.8844032  61.2195110   6.0748308 101.0611577  22.6236987
   6.4481991 100.5154390  21.9315886   5.4226845 101.6012246  22.1773028
 110.1938928 103.2852698  27.3991275 110.6503333 104.1259081  27.3641753
 110.5579628 102.7845163  26.6691065   6.3444704   1.5286194  66.4031410
   7.2836804   1.5534325  66.5861750   6.1070442   0.6057949  66.4940023
   2.7193701  16.0629344  35.4492354   2.6223063  16.3610363  34.5448327
   1.9856423  15.4631209  35.5837703  31.1129189   1.5105911  51.1275530
  31.1090398   0.7320835  51.6844606  31.7871547   2.0736945  51.5077543
 111.4961399  87.6334448  30.8113098 110.7497228  87.7684421  31.3951516
 112.1332634  88.2952876  31.0801363  13.7672150  25.4227352  31.8584561
  14.3125439  25.1735187  31.1123085  14.3890107  25.7345128  32.5160241
  26.5797901  36.4730477  35.8083439  27.3013306  36.3910294  35.1847363
  26.5252137  35.6134486  36.2258863   1.4894312  99.9386461  51.3902855
   1.5359944  99.5188744  50.5313015   2.1920460 100.5885692  51.3776636
  13.1383932  26.9984102  71.5657759  12.2231507  27.0325947  71.8439770
  13.3809364  27.9139304  71.4271259  28.7494254  18.9732623  51.6492653
  28.2082796  18.7040043  50.9070444  28.1359673  19.0407348  52.3809385
   4.0329814  16.3755918  42.0729351   3.9066505  15.8943927  42.8906918
   3.3408657  17.0368063  42.0747471  14.7878337  32.0127058  63.7654257
  15.3287435  32.7971172  63.6740494  13.9635170  32.3316646  64.1328478
 109.0060986  15.2571452  36.7722726 108.2721169  15.7669687  36.4293718
 109.2286827  15.6842709  37.5994682 110.4741872 108.8033153  92.0678902
 109.6346677 108.4101073  92.3062706 110.4797710 109.6477207  92.5186443
  18.4060979  23.1243587  43.4264183  17.5479341  23.2301712  43.0158186
  18.7481046  22.3089552  43.0598354  96.3592709 108.3139763  53.4554386
  96.0868050 107.8492583  52.6642179  95.6234957 108.2110907  54.0589952
  23.5272646  32.7135682  76.4381170  23.4120202  32.1600366  75.6657457
  24.3599129  33.1617308  76.2895203  11.8360889   4.4724059  75.7662964
  11.6370881   5.4017663  75.8799601  12.3764682   4.2487493  76.5240526
  21.1311913  29.3780279  67.1543980  20.7971072  28.6510968  66.6288614
  20.5793524  30.1218295  66.9126034  23.9271712  31.9602919  42.3598146
  23.6351609  32.4779058  41.6094542  24.6633101  31.4479232  42.0254278
   6.5524310   4.0416449  41.0966682   7.1777439   4.6011066  41.5573359
   5.7124227   4.2239344  41.5178442  34.7416282  15.7617605  30.2494669
  34.7283673  16.7188632  30.2524972  33.9547634  15.5097902  30.7327747
  54.9734831  18.3820760  40.5538893  54.5469379  18.0682421  41.3512611
  55.6463861  18.9877343  40.8647060  51.8641151 104.3903263  35.5962658
  52.3101367 105.0577123  35.0748348  50.9370221 104.5020337  35.3858995
 100.1107038  79.8999352  18.1423736 100.8345045  80.4040904  17.7706647
  99.3433059  80.1784606  17.6426172  72.4292089 103.8377358  27.8406143
  73.0184765 104.5463062  28.0993080  72.5113041 103.7937183  26.8879557
  89.8606468  99.3255324  20.3615665  90.3985466  99.7333915  21.0402012
  90.4906870  98.8993270  19.7805059  24.5307606  79.8783202  22.1299434
  24.6671217  80.3901262  22.9272461  23.6891812  80.1830931  21.7906928
  36.9977379  20.5144954  28.9456511  37.9403424  20.3835154  28.8428211
  36.8461561  21.4103675  28.6445403  87.9417683  94.6586175  22.6369739
  88.5211296  95.3014023  23.0461192  87.0853556  94.8225148  23.0318499
  89.7820319  98.1099732  42.1617317  90.1467503  97.2428532  41.9847727
  89.1418184  97.9629965  42.8579807 106.4124788 104.6918936  49.9321795
 106.3142670 104.7726126  48.9834595 107.3525585 104.7879250  50.0846863
  71.7096526  49.1862925  24.9993584  71.2396628  49.9013426  24.5703480
  71.8244654  49.4828077  25.9022018  17.6452732  14.4239461  12.3013365
  18.0905128  13.6822438  12.7110541  17.1539617  14.0376318  11.5763485
 111.0276092  96.8448658  50.4081869 110.6813897  97.3107977  51.1692858
 111.7641963  97.3807080  50.1140022  43.6668253  18.7209761  53.2859087
  43.9369059  18.5758507  52.3791409  44.4671202  18.5988963  53.7966490
  32.2745109  43.0239487  20.5287814  32.9460573  43.6789942  20.3386045
  32.1544743  43.0723619  21.4771891  66.4597274  99.0908308  39.4978189
  65.9382297  98.6080010  40.1390266  65.8151306  99.4608993  38.8946795
  68.8521070 106.5536402  26.0070205  68.7318648 105.7668234  26.5387082
  69.6232427 106.3656391  25.4720068 113.5829891 100.7368667  51.8424463
 113.9726461 100.9116633  52.6990938 114.2301024 101.0586638  51.2148142
   3.0086630 107.4775554  41.4573812   2.9547423 106.8663789  40.7226801
   2.2187060 107.3061050  41.9700241  98.0093999   6.1117005  38.8637924
  97.3683329   5.4308736  39.0680909  97.5861354   6.6451240  38.1910825
  53.6361498  66.9700449  87.2575679  53.2023687  66.7705088  88.0871770
  54.5017142  66.5692251  87.3373970   0.8515423 100.9785361  17.3858368
   1.6006535 100.3839571  17.4251151   1.1982125 101.8204064  17.6813161
  50.7207918   0.7008132  68.6877346  51.6562414   0.8492381  68.8260698
  50.3444481   0.7078645  69.5678186  76.5360476  74.4350977   4.3805334
  77.3520134  74.4531150   3.8804266  76.3304431  73.5045285   4.4699723
  18.6809087  31.8526864  28.8599253  19.1626859  32.6096058  29.1933846
  17.9830682  31.7120647  29.4998288  91.9636715 103.8839675  32.3428679
  91.3912035 103.1411005  32.1513987  92.8415895 103.5049636  32.3858523
  20.6850403  98.7625797  47.8674126  19.7921246  98.5535068  48.1416750
  21.0253304  99.3218620  48.5657263   1.4381668   4.8646486  50.7658052
   1.7874666   5.2257782  49.9510622   0.7081442   5.4417378  50.9900093
  77.8034097  87.7399041  11.7018959  78.2657654  86.9024898  11.6673061
  76.9593889  87.5311352  12.1022388  84.7617049 107.0195521  61.5477848
  85.2086569 107.5060989  62.2404146  85.3731043 106.3216532  61.3124990
   8.5498416  31.7331791  24.6558213   8.1530356  32.5814939  24.8536611
   8.6594808  31.3150382  25.5098534  81.0889788  21.1306691  45.9742975
  81.8364687  20.5335546  46.0050726  81.4621253  21.9915056  46.1639118
   7.4464643  18.0913687  13.0427563   8.3589888  17.8258824  13.1569803
   7.4358582  18.5592008  12.2077394 114.2585106   1.4633034  50.4973459
 114.5453255   2.3765209  50.4956627 115.0417055   0.9658433  50.2620363
  51.9687462   4.0560946  28.3946204  52.6894951   3.6011872  28.8302970
  51.1955357   3.8301915  28.9116716  77.7737627  85.9256930  40.8219147
  78.0126400  86.7418737  40.3825760  77.3944279  86.2044520  41.6553593
  14.7507351  76.6776318  68.7249470  15.1906460  77.4577374  68.3870935
  14.4507664  76.2142296  67.9429579 106.3351448   8.0184770  45.7782698
 105.4651232   8.3547395  45.9932566 106.2279983   7.6080775  44.9201775
 116.0378805  14.4207966  37.0576429 116.1715676  13.4839976  36.9135356
 116.2316164  14.5503569  37.9860353 108.1261242 107.0764671   8.8861436
 107.6099385 106.8358962   8.1167871 107.4951900 107.0812337   9.6059573
   7.8953093 105.5300082  47.5162411   7.6224154 105.7389815  48.4096003
   8.8413351 105.6758387  47.5144863  61.1759938  96.4931245  29.9808860
  61.4228762  97.3870833  30.2177739  61.6076125  95.9440226  30.6354260
  77.5923308  60.9083791  35.3114820  77.2346363  61.4923329  35.9802747
  77.8329340  60.1150794  35.7900381  24.3516111  40.1862049  31.4755535
  23.9391541  39.3307972  31.5955114  23.9072728  40.7564497  32.1029377
   9.5775049 110.2484498  41.4341593  10.0783413 110.6660798  40.7334614
   8.8387984 109.8353095  40.9871054  29.6197271  16.2055421  68.8263893
  30.3243136  15.5908012  69.0310431  29.3424821  15.9662986  67.9420090
  17.2089756   2.4470150  25.4680347  17.0967972   1.8202102  24.7533560
  16.3170576   2.6953653  25.7110071 116.8820466 106.7671607  25.6186175
 117.4535526 106.3764508  24.9575877 117.4823893 107.1589820  26.2528849
   4.7575253  89.5039744  52.3666811   5.1690501  90.2781720  51.9826317
   4.4068974  89.8092837  53.2033920  17.5844336   0.0991166  74.4919395
  16.8592727  -0.5255995  74.4817495  17.3966122   0.6719975  75.2354193
   5.6534106  14.3529224  48.1332827   6.1031443  14.6740139  48.9148664
   5.0931108  13.6457133  48.4528923  27.6983452   4.2418566  69.9108505
  27.6520801   3.9848530  70.8317423  28.3313513   3.6364955  69.5247507
  93.8818837 104.6906180  66.6090441  93.2088448 104.6133841  65.9328127
  94.7072447 104.7082997  66.1245823  60.2695990  30.7523513  35.8027911
  59.5431709  31.1617708  36.2728024  60.9677887  30.6836271  36.4539719
  27.1034622  18.5503614  57.6251698  27.6787543  18.2197189  56.9352818
  27.4736643  18.1986189  58.4347773 106.8328281  11.1969948  21.5913296
 106.8956478  11.6971886  20.7776403 107.5880237  11.4813316  22.1061754
  39.7029138   6.3913471  59.6873188  38.8686323   6.8433356  59.5611763
  40.2748919   6.7505842  59.0090656 112.5968958  38.1873250  63.2269573
 112.3480619  37.4379492  62.6858902 112.0669956  38.0973387  64.0190029
 109.5680059 107.4668876   1.2481264 110.4237188 107.6847340   1.6176283
 109.7366298 107.3344226   0.3152543  23.6311412  11.1750960  15.2540028
  23.8648820  10.6790674  16.0385752  23.8833070  10.6059754  14.5268536
   8.5084361  27.0638847  27.6582408   9.0878129  26.8921351  28.4005737
   9.0853190  27.0444393  26.8946576   5.8269489   9.1756666  27.8846264
   4.9939463   9.3846244  28.3073282   6.4519036   9.7895670  28.2703590
  66.6642427  23.9861536  17.7482140  66.1996269  23.2235837  17.4034667
  66.6229916  23.8821578  18.6988533  27.4857807  16.7058074  32.7616405
  28.1344223  17.2247899  33.2371950  27.7431583  16.7841232  31.8430257
  16.4384478 100.5433864  26.4606953  15.7671183 100.1088471  25.9346461
  16.4767426 101.4339800  26.1119699  31.1903834  21.0450768  69.3480873
  30.7276845  21.3336325  70.1347733  31.3844967  21.8537712  68.8742018
 107.8758104  24.0475941  64.6084118 108.4992935  24.5942497  65.0866032
 107.1822818  24.6515179  64.3428421  48.4116840   4.5193404  45.1131630
  47.8950596   4.6916094  45.9003401  49.2211962   5.0127840  45.2452135
  17.5480950   4.4001430  43.4838629  18.1538773   4.7534719  44.1353369
  17.4907720   3.4674114  43.6911249  99.5814837 109.4760236  46.0403061
  98.8357461 109.5911924  45.4513741 100.0402440 110.3156774  46.0128784
  47.7446842  42.2841787  75.9511566  47.9509163  42.9998636  76.5524006
  47.5325775  42.7188778  75.1251554  22.3663885  83.0361153   4.7183678
  22.1531946  82.2533967   5.2264378  22.3843462  83.7429430   5.3635857
  11.6931313 109.7354456  48.3444452  11.1240643 109.3811293  49.0277100
  11.4697712 110.6653882  48.3051109  55.4643059  17.1281230  44.1080713
  55.6368065  16.1869752  44.0812969  56.3176489  17.5325727  43.9516783
  14.1812205  24.0821362   1.9092187  13.3721828  23.9765882   2.4097691
  14.0564120  24.8960066   1.4210896  35.3755212  41.6087055  53.4333086
  34.5329928  42.0618868  53.4016514  35.1733422  40.7534313  53.8126087
  40.5695724  19.4534862  71.3500452  39.8217463  18.9215159  71.0780191
  40.2090502  20.0609446  71.9959974  74.9399978  80.9005357  13.9758751
  74.7570163  81.4317347  13.2009003  74.9634725  80.0009777  13.6495659
  17.6493287  15.0594175  26.3859129  18.3278072  15.2580369  25.7405829
  17.8789973  15.5928195  27.1468091  16.2027490  34.3710089  51.5159273
  15.6420171  34.4483232  52.2878313  16.0472620  33.4827399  51.1949396
  28.7354589  56.0859871  29.1839814  27.9508376  55.5616236  29.0238476
  28.7603879  56.1956120  30.1345563  76.4911609 110.1071584  55.6866074
  75.8468897 109.4164238  55.5315828  77.2803761 109.6410293  55.9624624
  28.9070988  26.1564732  51.6041183  28.8837051  26.2645459  50.6533289
  29.3501329  26.9424939  51.9236898  55.7780504  25.6899810  63.3790350
  55.0777721  26.0850048  62.8596163  56.0851383  26.3982153  63.9450169
  27.3756361  20.2366924   9.6498400  26.6190648  20.1237488   9.0744495
  27.1963382  21.0482025  10.1247478 114.6772707  76.6570778  56.6004562
 115.2800501  77.1334500  57.1713877 113.8228501  77.0539470  56.7698431
 112.9201765  17.7880526  41.2458324 112.3444439  18.1819606  40.5903959
 113.5812487  17.3214173  40.7344961  78.6770234  95.6249602  55.9632158
  79.2974863  96.2242372  55.5483389  78.8622024  95.6988079  56.8994284
 113.1165238  20.5312777  36.0997915 113.9918579  20.9136844  36.1613297
 113.1417645  19.7788525  36.6909337  74.4051647  20.4796934  12.9118490
  74.7362232  19.9366498  13.6272037  74.5061445  19.9350727  12.1311939
  47.8470505  67.2318392  95.4768515  48.4854132  66.5996998  95.8071911
  47.7575446  67.8727167  96.1821862  29.5362091  39.4729257  59.8205137
  28.7514615  39.3128490  59.2963219  30.0789356  40.0396347  59.2723131
  49.1309643  10.0789011  11.4422607  48.6505365   9.7276670  12.1919656
  48.4500980  10.3349423  10.8200955 108.7619556  98.5022802  62.7482224
 108.8240493  99.3705518  63.1463194 109.0890206  97.9060109  63.4218121
  48.3472300  44.5181751  55.0175619  47.4159241  44.4827890  55.2358437
  48.7273312  43.7631035  55.4665852  19.3727660  70.7072353  25.9041667
  19.3027723  69.7530460  25.9334898  18.9496005  70.9532642  25.0815916
  35.6626892  13.3179533  31.3983226  35.8011293  13.0542099  30.4886484
  34.7465014  13.5931897  31.4311147  13.1605166 101.1920185  44.7776318
  13.6523073 100.4870255  44.3564892  13.6560553 101.9850309  44.5731688
  61.9048309  16.9080460  70.3320599  62.4677753  16.5234959  71.0039568
  61.0536242  16.4910197  70.4653406   7.8395003  43.1741476  49.0568590
   7.5307935  42.3357105  49.4003010   7.6284611  43.1430578  48.1237316
  51.5486002  42.2770548  55.1027298  50.9089088  42.5391245  54.4406509
  52.0773029  41.6052055  54.6722364  29.4335055  15.7480621  45.3405142
  29.1700387  16.1630511  46.1618567  28.8293028  16.1027944  44.6883392
   7.2236698  92.6393111  21.6722369   6.7906922  93.1248743  22.3743701
   7.8834074  92.1090670  22.1192455 114.3338729  37.2253132  41.4854860
 113.3865310  37.2114730  41.6218042 114.6996610  36.9164228  42.3143530
  36.9897097 110.0234234  50.9926558  37.2410267 110.9456302  51.0437202
  36.8025320 109.8771764  50.0653934  47.1844721  41.2950850  24.4585800
  47.8538942  41.0570574  23.8171387  46.4060211  40.8108950  24.1832590
  62.7216053  31.2633944  46.3096523  62.1377182  31.6441441  45.6536531
  63.5908127  31.3077521  45.9112263 114.5036162  92.8544314   5.7386839
 114.7634257  92.1442516   5.1518488 113.5466612  92.8414054   5.7214475
  49.8636580  12.4844801   8.4809142  49.2948532  13.2154787   8.2393867
  50.3757572  12.3085296   7.6915932  27.6518345   0.6553742  32.3859549
  27.6766419   0.8316144  33.3264637  26.8205833   1.0295577  32.0939994
  87.0845366  99.9413807  57.8910875  86.5599180 100.6528182  58.2583237
  87.3381717  99.4148548  58.6491585  22.7925032  93.9396353  59.1792488
  22.6056402  94.6164579  58.5286903  23.7267369  94.0363223  59.3639040
  34.9980807  14.1944325  58.8272762  35.6345677  13.5932052  59.2141104
  34.7281694  13.7670290  58.0144405   5.4177159 110.2624152  44.5351553
   6.2877100 109.8642072  44.5073891   5.2758616 110.4637305  45.4601288
  41.3947058  16.0557449  33.6657929  42.1300125  15.6891024  33.1747484
  41.8022156  16.6302633  34.3139386  90.4342462  95.8830662  51.5322065
  89.6267963  95.5201394  51.8962669  90.6298555  96.6372890  52.0881891
  54.7353888  15.8196950  16.7960525  55.1882744  16.6580498  16.7050350
  54.9240494  15.3557527  15.9803343  48.5707283  26.7022133  32.6490092
  47.6710320  26.9834495  32.4826384  48.6033297  25.8011770  32.3276019
  41.6580915   4.6618795  51.1451387  40.9535646   5.1050150  51.6178989
  41.2074900   4.1110110  50.5050373  34.9532390  21.9187975  66.0603189
  35.1874280  21.0697079  66.4350653  34.0333509  21.8257427  65.8125639
  41.8239737   1.9569156  63.4628868  41.3704920   2.7837169  63.2986069
  42.7299213   2.2113594  63.6382341  70.7135248  49.6504021   6.4301181
  71.0531569  50.3311253   7.0110607  71.0554171  49.8803663   5.5661398
   7.2783434  23.2223964  30.2491045   6.6852432  23.5970473  29.5978737
   7.7105910  22.5007653  29.7923303  29.0563011   6.4527804  33.8583422
  28.6320972   7.2671920  33.5881305  28.3661962   5.9586358  34.3008447
  26.1945510  23.3594418  48.3627844  26.7414808  24.1327071  48.2243681
  25.4604626  23.6763716  48.8890028 115.5511625  45.2410078   0.9573010
 115.7810920  46.0059023   0.4297622 114.7380133  44.9179935   0.5691229
  64.1926098  31.8959022  33.1946778  63.7097597  31.1384273  33.5253143
  63.5547447  32.3737955  32.6646042  36.4783692  21.8111253  41.4238739
  36.9956684  21.5431237  42.1833515  35.9189487  21.0572267  41.2370110
  64.7669125  11.4793813  35.5083156  65.2300596  10.8328974  36.0410333
  65.1150846  12.3224974  35.7984281  42.8885412  42.5553179  23.8565779
  42.9519558  41.9435167  24.5900011  43.7888384  42.8438997  23.7068725
  57.5405741  29.1698551  64.1657734  56.8826818  28.7358665  64.7089767
  57.3065519  30.0973272  64.2012882 105.0534476 110.2593255  16.1728668
 104.2974986 109.6723476  16.1577809 105.7811607 109.7054419  16.4554954
 106.7539156  97.5705607  55.8985710 106.5371097  98.2592614  55.2701473
 105.9106482  97.3106749  56.2695026  54.2661667  10.5557489  41.3708925
  54.0304089  11.3405216  40.8761358  55.2215862  10.5210412  41.3239527
  14.4645286  32.9173207  10.6291592  14.6019566  31.9728208  10.5566037
  15.1945543  33.2250047  11.1663985  30.9756970   8.0195183  49.9442244
  31.4369678   8.1859457  50.7662725  31.1462736   8.7967873  49.4122601
 103.5651238  14.0306294  31.3153505 103.4047539  13.4248304  32.0388985
 103.6156030  14.8916125  31.7305517  14.4642663  21.3289833  55.1267433
  15.1853287  21.2789750  54.4992065  14.4937050  22.2279215  55.4542685
 107.6267494 101.5938688  40.9114122 107.1276535 101.9376881  40.1705170
 107.1443881 101.8901510  41.6832781  27.7852964  57.4208593  61.8549776
  28.1869507  58.1742525  62.2877645  28.4057093  57.1812534  61.1665678
  18.0917418  27.3362541  29.2580581  18.8867116  27.1898079  28.7454081
  18.1698179  26.7344046  29.9982691  46.0704136  25.9849668  51.1154556
  46.9403458  26.0255551  51.5127039  46.0214806  25.1079416  50.7351065
  10.6486100  97.1695275  19.4484401   9.8845499  96.5933795  19.4707143
  11.3756579  96.6141505  19.7298455  51.7854244  37.7114039  86.6995761
  52.4342770  37.7116626  85.9958568  51.0241050  37.2698229  86.3232377
  33.1649756  64.1821480  15.1277328  32.3761034  64.7203541  15.0625932
  33.3265185  63.8845921  14.2324114 114.7831930  86.7182226  25.3697276
 114.3881525  86.0779090  25.9614825 114.5648778  87.5668902  25.7548714
  16.8291378  19.0250421  59.6387863  17.3086858  19.0564060  60.4666042
  15.9377122  19.2875707  59.8682880  90.7049800 101.8001498  24.1704679
  90.5127133 102.3406733  23.4042430  91.1342371 102.3972614  24.7831893
  46.1024857   4.4011813  46.8654346  46.0604239   3.6303961  46.2994385
  45.1905155   4.6734756  46.9674444  88.3197004  76.3023116   2.0282051
  89.2312795  76.0182907   1.9604942  88.3129055  76.9117381   2.7663013
  76.0652208  15.6272864  43.1850719  75.7635212  16.4180887  43.6321068
  75.2612019  15.1755750  42.9286718  27.8753877  49.1715622  65.3449440
  28.0751157  48.7788296  64.4951773  27.5460458  50.0451183  65.1335955
 104.1218055  89.6619387  55.9253502 103.9122141  90.4140253  56.4791250
 103.4115709  89.0407152  56.0862350  11.0328639  25.9755135  31.6891050
  10.7112455  26.3129020  32.5251460  11.9857597  26.0351515  31.7573881
  37.7329588 100.3473236   4.5193646  38.0903641  99.7574236   3.8556644
  38.4230862 100.9954550   4.6603653  19.2670894  38.7989211  33.3327127
  19.1053700  38.3951616  34.1853881  18.4139431  39.1390228  33.0630779
  35.3455806  32.9282117  11.7881966  35.0201368  32.6820755  10.9223235
  35.6133151  32.1005559  12.1876132  23.7040544  56.7633533  34.1508317
  23.8674593  57.5852060  34.6135235  22.9703379  56.9584656  33.5678887
  43.0042696   2.6511085  53.1633234  43.5684490   2.3132186  52.4677896
  43.6106157   2.9278871  53.8503218  29.6724677  26.6377068  78.0746555
  30.5001116  27.0766711  77.8783226  29.5252490  26.8090296  79.0048218
  46.3089657  10.3752768  29.2518473  45.6958389   9.7453904  29.6307278
  46.6082430  10.8961797  29.9970484  36.0859036  14.2838001  80.1817989
  36.0672617  13.3267832  80.1803970  36.7716169  14.5090830  80.8105087
  29.1994333  28.8613200  34.7810793  29.1172528  28.0534649  34.2742753
  29.0788484  29.5604777  34.1385317  34.6195841  24.6836090  18.9315689
  33.9365792  24.2127824  18.4540176  34.1417575  25.2379298  19.5485306
  54.3063164   1.3234350  49.3988800  54.1520071   1.0640544  48.4905052
  54.5469093   2.2484112  49.3462706  73.0650711  33.2848763  47.6398897
  73.1346893  33.2475710  48.5938263  72.4693012  32.5702071  47.4150896
  31.2861705   2.0311452  75.4618788  30.6130171   2.7086031  75.5262756
  31.9348836   2.2745422  76.1223030  45.9122086  26.9386077  72.6626062
  46.6596460  27.5003648  72.8675508  46.0627651  26.1436033  73.1740093
 109.9077309  99.5734627  89.9569798 110.0301970  98.6280889  89.8703671
 109.0253581  99.7323794  89.6217251  47.6099491  29.9044538  47.9414320
  46.7198324  29.5622158  48.0239058  47.8740644  29.6728444  47.0510244
  61.9501591  23.0130100  61.4436913  62.6852655  23.5019422  61.8135548
  61.3652277  23.6863565  61.0962868  13.2654870  28.3053517  41.2081242
  13.6126721  28.8303256  40.4869461  14.0161443  28.1649876  41.7852259
  27.6115251  42.9780149  23.2623363  27.7796888  43.4430552  22.4427676
  27.5536227  42.0571375  23.0076671  37.7184486  18.8220394  33.1058216
  37.1718121  19.4630146  32.6513219  37.2365260  17.9986191  33.0286074
  14.6601796  46.9358492  70.8977032  14.6554601  47.0822716  71.8436289
  15.4805279  47.3281050  70.5987120 104.1267503 105.0915493  19.8132062
 103.8476194 104.2594696  20.1952553 104.4099344 105.6159843  20.5622101
  11.3239801  15.7681358  67.2190380  11.7050028  16.3378572  67.8872252
  10.3989744  15.7052326  67.4570322  43.8833826 102.8792001  48.8440037
  43.3345335 103.5469378  48.4327602  44.1888445 103.2862360  49.6547079
 102.9948081  99.0398283   4.2033714 103.3889664  99.2683155   3.3615485
 102.1315206  98.6934943   3.9774999  51.9737196  23.5676265  39.8214293
  52.3622084  22.7024388  39.6919775  51.7783594  23.8772225  38.9369988
  86.8673004  97.5637371  62.7854633  86.0273869  97.2061272  62.4975538
  86.7745543  98.5102065  62.6767206 102.1213372  47.2912312  71.5144587
 102.5935025  47.6916075  72.2445202 101.7041440  46.5179920  71.8943024
   9.2958611  83.1009812  59.5088482   8.3856409  83.2954473  59.2854404
   9.6535605  83.9376421  59.8059702  23.8838673  24.1393328  52.6344252
  23.0805826  24.3112516  53.1257629  24.4942093  23.7946439  53.2862759
  37.3433566  31.8061018  36.4214468  37.1462750  31.1459351  35.7569385
  36.5308094  31.8944907  36.9196296  33.5245156  25.2334046  43.1512260
  33.0681324  24.4021559  43.0209494  34.4484091  24.9917388  43.2164431
 105.7621754 105.1650871  34.6968436 106.1502708 104.9571193  33.8469243
 104.8222888 105.2197219  34.5240426  10.2505231  47.9783392  34.2615485
  10.3924167  48.8851976  34.5330286  11.0915887  47.7031517  33.8967013
  11.1312652   9.7496688  37.0267701  11.6392577   9.5329404  37.8085661
  11.2365663   8.9896965  36.4544201   1.2283254  32.5031400  33.8157535
   0.6897785  33.2805371  33.6679244   1.2662198  32.4155974  34.7681880
  38.4984541  36.5717912  38.2187653  39.1115069  35.8367324  38.2280517
  38.1950569  36.6191936  37.3121572  23.3179903   5.1503700  71.9274616
  23.6775780   5.9145898  72.3779011  23.7382030   5.1595390  71.0674763
   6.1077493  13.9240479  26.3762784   6.6612279  13.2146907  26.7029357
   5.8493048  13.6415946  25.4989767  92.5135673 107.0965086  51.8292332
  92.0397879 106.8730454  52.6303720  92.7561415 106.2514187  51.4507961
  36.6729879  16.1175382  32.4794579  37.6120210  15.9320331  32.4734235
  36.3154006  15.5659330  31.7836881  11.1968338  26.7556667   4.4428903
  12.0948100  26.7566824   4.7743565  10.6751692  27.1091795   5.1633948
 102.8278435  97.2369392  28.6794496 102.3439659  97.0851512  29.4912720
 103.7481440  97.2174532  28.9419389   2.2154061  29.9490881  77.9933929
   1.4976576  29.3425488  77.8112364   2.9706767  29.5677543  77.5457478
  46.6563797  18.2862926  28.4590864  47.4827671  18.2775199  27.9761410
  46.6285276  17.4379539  28.9015532  20.7643032  58.5346699  34.7192144
  20.3142691  59.2771435  34.3161798  20.7973242  57.8715992  34.0296650
  43.5602665  27.1075940  50.6038809  44.4548893  26.8185258  50.7836723
  43.0348969  26.7047238  51.2951946  39.6426725  21.6579390  59.2184114
  38.9387488  21.0176301  59.1148472  39.5200825  22.2683501  58.4913588
 110.5474348   4.9684560  39.6592546 109.8552878   4.5896205  40.2011490
 110.9651633   5.6185186  40.2241898  32.1012926  29.2292571  21.6911626
  32.4434996  29.3672514  22.5743866  31.1600113  29.1075611  21.8153048
  48.0185938   6.3262492  65.8984852  48.8325024   6.3978028  65.3998232
  48.0370903   7.0740348  66.4957333  32.2473454  22.7072978  47.0601273
  31.9158268  23.4276390  47.5962543  31.7770672  22.7900434  46.2305307
 117.1520717  38.6401272  28.1496453 117.5804242  38.6175632  27.2939372
 116.4385910  38.0061579  28.0771255   8.8455695  10.7653975  70.9240150
   8.6282122  10.3037655  71.7338800   9.0719903  11.6514182  71.2067413
  96.9524396 102.1272339  60.7781363  96.9221939 102.5004239  59.8971987
  96.9697274 101.1806829  60.6368017  36.7146063  47.6933002  63.9335918
  36.6189528  46.8766069  63.4435987  36.2888718  48.3526421  63.3856344
   5.5291122  50.4592848  43.0587339   5.6420827  49.9024248  42.2884226
   4.6104860  50.7265615  43.0284166  35.4721594  37.1391821  44.2944384
  35.9991622  36.3401222  44.2964935  36.0694718  37.8208327  44.6023369
  28.6836052  31.2389445  40.7003975  27.9148531  30.8621097  41.1284637
  29.2090940  30.4817700  40.4419804 108.9540310  27.2531533  72.7173519
 108.4853126  26.5085196  72.3404503 108.8165273  27.1699739  73.6609650
   1.7816244  27.4553823  39.1949582   2.2919138  26.7238998  38.8474393
   2.4159813  27.9785132  39.6850157  13.1977582  30.0481033  23.3172703
  13.4223008  29.3296719  23.9086008  12.2408128  30.0500131  23.2952642
  89.5120550 102.5358648  59.2570019  88.6586488 102.5201161  59.6902275
  89.3083895 102.4684454  58.3241558  28.4672523  39.7121239  84.2212772
  28.5466242  39.0467572  83.5377407  27.6397204  39.5096707  84.6576595
  58.6012316  42.6791382  56.0219955  58.3879471  43.1260347  55.2028322
  58.2767487  43.2649469  56.7059374  20.3758686  70.1888318  33.2580543
  19.4761627  69.9697060  33.5004354  20.3653734  70.2200217  32.3014212
   2.2050387  51.6983891  55.6672335   1.3371310  52.0369148  55.8871603
   2.7814007  52.4603128  55.7265139 110.1998497  14.6390879  50.1637554
 111.1118491  14.8005331  50.4054689 109.7886027  14.3323088  50.9718370
 116.5182270  92.5205107  11.4580107 116.0537160  92.2773976  10.6571627
 117.3625601  92.8531499  11.1535704  65.8862829   3.7511507  31.9492722
  65.5501509   3.5835376  32.8296971  66.2405300   4.6393013  31.9932032
  56.6664505  14.9476790  24.9048042  56.7652130  14.3306518  24.1797137
  57.1788788  15.7117653  24.6405697  72.0786047  43.5977125   7.9280895
  72.4579620  43.7601662   8.7917614  71.3132477  43.0497599   8.1018823
  51.4644951  74.3688732  86.2751594  51.4361436  74.6984523  85.3769365
  51.3400025  75.1462703  86.8195727  88.9783001  18.4195483  44.6987820
  88.7186527  19.1521525  45.2574492  89.8953533  18.5934222  44.4866180
 108.6142225  12.7055764  62.8201962 109.4232728  12.6984560  63.3316803
 107.9960199  13.2017517  63.3567286   4.6259278  98.2716973  49.7100306
   4.8812311  98.8576884  50.4225397   5.3891438  98.2498641  49.1327524
   7.9033964 101.2232442  47.8057671   7.5062626 101.7400355  47.1047354
   8.7547224 101.6349394  47.9540205  71.7261505  20.1876807  45.6566906
  72.0283318  20.3740668  44.7677708  71.0682583  20.8604884  45.8320284
  31.6920614   1.1541707  46.9738770  31.9217396   2.0634939  47.1652174
  30.7673478   1.0856256  47.2114468  54.9635744   9.5793712  30.5175734
  54.1622877  10.0542140  30.2969003  55.2069569   9.1308928  29.7077179
  24.5286369  14.9850965  30.3169990  23.9789271  14.9312437  29.5352387
  25.4204154  14.8621190  29.9916649  26.8108034   5.4393584  67.3036242
  27.4006271   5.4290485  68.0574369  26.7663717   6.3604045  67.0468521
  32.6027703   8.7999219   8.3417130  31.9559050   9.4992852   8.2485044
  32.2362804   8.2223690   9.0113020  13.8211506 104.0109481  50.1228952
  13.2844370 104.1400475  49.3409109  14.0278738 103.0763419  50.1198912
 115.8182539 111.0285458  55.1882696 116.5000213 111.2155653  55.8335972
 115.8813323 111.7464604  54.5583105  63.6848981  72.2244658   2.1059010
  63.1514842  72.0598652   2.8834698  64.0744645  71.3750817   1.8984959
   6.2466198   3.7550959  18.9068234   6.2990254   4.2369264  18.0813992
   7.0961571   3.9003092  19.3232751  74.7244651  32.6917698   7.0853779
  73.9856559  33.2062079   6.7601940  75.4541904  33.3106758   7.1115849
  40.7920885  40.9791756  53.7351704  40.0808287  41.0826969  53.1030083
  41.2028503  41.8427420  53.7770844  96.7457028  38.1455612  77.9648829
  96.4361735  37.2643924  78.1745672  97.2790833  38.0312109  77.1783352
  19.4398773   8.4796238  30.5035543  19.9830878   8.1521618  29.7866702
  20.0072908   9.0899110  30.9745359  22.5085187  27.7607989  74.2582226
  22.8144503  28.4976053  73.7293005  23.2902789  27.2270393  74.4003010
  35.9728813  13.5340190  65.4784441  36.5988183  14.2500293  65.5869055
  36.0367537  13.2981825  64.5529556  81.0885134  99.9544282  42.3522854
  80.8502398 100.8288748  42.0443916  82.0083780 100.0320167  42.6053905
   6.3428372  80.9288831  17.8475225   6.8783205  81.1044760  17.0737946
   6.7367428  81.4626379  18.5375786 115.2950807  22.2599053  44.8146057
 114.7201003  22.2591996  45.5798674 115.8040132  23.0662799  44.8981524
   3.2482314  15.4314840  21.7699170   3.5609400  15.8858752  20.9876299
   3.4422401  16.0321951  22.4894571  53.3937597  19.8608172  23.7791276
  53.8181543  19.9942946  24.6266556  53.5311985  20.6838775  23.3101773
  28.9038992  15.7655180  71.5033150  29.6914792  16.0416007  71.9720697
  29.1710973  15.7324600  70.5847597  45.6620884  16.7082357  22.6034093
  46.0536814  17.1871972  23.3338094  46.3971949  16.5166473  22.0210457
  14.8229468  31.9623113  42.2457027  14.4857287  31.1493254  42.6219606
  15.4600334  32.2768950  42.8871012  17.8034508  40.3662872  13.5410607
  17.6907706  40.8492327  14.3597806  17.6353776  41.0134840  12.8561389
  31.4010978  50.8373260  22.4006319  30.7040334  50.2630186  22.0836020
  32.1893072  50.2949142  22.3733187  39.2234921  23.1989598  64.4943476
  39.0690970  22.6836872  63.7025833  39.2469049  24.1058874  64.1891193
  13.6883950  28.0995440  45.6129789  14.3568170  28.3308196  46.2579250
  13.9341593  27.2230196  45.3171158  76.0100365   1.8741117  48.1746864
  75.9250927   1.2256598  47.4757385  76.2532902   2.6823691  47.7232647
  73.8575441  47.8642579   0.1947567  74.7265846  47.9476936  -0.1977184
  73.9170033  47.0828892   0.7444450 116.4659683  19.9180973  83.0773735
 116.9596416  19.6281111  83.8444614 116.4390466  19.1507876  82.5057602
   0.3291542  15.0457609  53.0998182   0.9328828  15.2509856  53.8137007
  -0.1331981  14.2613947  53.3951712  25.6960201  26.3084626  33.6929893
  26.5888309  26.6105294  33.5260320  25.3460050  26.9344163  34.3269491
  28.3960009  54.2314577  26.4932585  29.2543817  54.0563726  26.8789506
  27.8445959  53.5112953  26.7991114  39.2742777  15.1847208  32.1122146
  40.0135851  15.5513978  32.5971937  39.6003366  15.0850594  31.2177944
  42.5782061  18.1559575  35.5333972  42.6465702  18.3407629  36.4700961
  43.3155966  18.6245596  35.1423764  13.3792353  39.8530269  90.3683758
  13.0795074  40.3115654  89.5834255  13.1902897  40.4577827  91.0858727
  36.4475250  31.4238954  27.5190759  36.3547134  32.2503328  27.0451355
  36.7312717  31.6813827  28.3962417  34.9764752  39.5129919  30.1933050
  34.7522664  40.3364372  30.6267786  34.1445780  39.1906047  29.8465443
  47.8959084  56.9481134  47.4937201  48.2943296  56.1914730  47.0636272
  47.1059990  57.1254730  46.9830132  47.7710199  15.5882275  77.6491976
  48.1963301  14.7339904  77.7241755  47.0998669  15.5823517  78.3316565
  36.5200377  63.6756229  74.9402571  37.0585370  62.8908253  75.0419474
  36.6757345  64.1781950  75.7398939  40.5120659  54.9607801  32.5082922
  40.9632397  54.8259687  33.3416605  40.3208160  54.0771818  32.1937943
  41.1071301  51.2359524  44.6084261  41.0170078  50.2834797  44.5783138
  42.0005798  51.3822937  44.9191618  36.9146752  27.4520254  52.2967577
  36.3613701  26.8759370  51.7693043  36.7061448  28.3335233  51.9873905
  39.9230933  26.5198588  30.2116919  39.3161106  26.6328859  29.4802356
  39.8771358  25.5865169  30.4190373  40.3584099  43.8779593  17.6512539
  40.1324463  44.3928671  18.4258795  41.2329912  44.1818666  17.4083996
  22.5309682  10.3064811  64.9094248  22.3814464   9.4051349  65.1948166
  21.9035912  10.4399383  64.1989136  33.9993072  29.3915844  47.2482252
  34.3090248  28.8518333  47.9755354  34.7373414  29.9663401  47.0452642
  29.9237418  13.9574862  58.0829620  30.2930427  13.7583172  58.9433002
  29.5308781  13.1336963  57.7944136  56.5758848   6.9655067  90.2253723
  55.7392883   7.2211552  90.6139374  57.0980835   7.7676910  90.2318859
  45.4458952  55.3383780  47.0746183  44.7419453  54.7301769  47.2999763
  45.1560926  55.7488728  46.2599134  11.6144961 109.4184391  80.6215477
  12.5337094 109.6236835  80.7922840  11.6405886 108.6089347  80.1113987
  25.2834010   8.8891506  51.4406681  26.0343480   8.7423587  52.0157909
  25.1415181   8.0452007  51.0118914  15.6852806  20.6072593  68.6231613
  15.6681573  20.9434533  69.5192146  15.1583195  21.2307167  68.1233168
  50.5860281  29.9417710  48.2516003  49.6891546  29.9866724  48.5830212
  51.0896063  29.5657039  48.9735508  58.0039930  29.8403955  73.7842894
  58.2470942  29.3309855  73.0112219  58.8099766  30.2901626  74.0379286
 115.7353414  93.3356078  59.2266941 115.8633436  94.1997309  59.6180248
 115.0893010  93.4791751  58.5351372  11.7408579  99.1959257  29.8984647
  11.1146134  99.6630759  29.3454576  11.8217486  98.3329065  29.4923997
   8.7665248  20.1000071  57.8074932   7.9880601  20.1465464  57.2524595
   8.7244600  19.2310405  58.2066870  35.9918690  30.2627707  39.4436502
  36.9265676  30.0568843  39.4301844  35.9050870  31.0201788  38.8648319
  37.3594308  59.7495699  26.1034608  36.4727235  59.6283484  25.7639241
  37.2404432  60.2498388  26.9108033  45.7959890  59.4069242  39.1120505
  46.6949606  59.5789194  39.3922329  45.2717113  60.0606489  39.5746613
  58.5585356  35.7858396  36.4972186  58.8344336  35.2254772  35.7718873
  59.0625143  36.5915012  36.3825774  32.9247141  21.2830639  59.3386078
  32.6481032  21.6520071  60.1774168  32.1291876  20.8959413  58.9732218
  41.7341757  29.4445300  60.1030779  41.0850286  30.0274730  59.7093630
  42.5176144  29.5605922  59.5655012  25.6051373  23.6804104  35.7406902
  25.1878524  22.8255773  35.6340861  25.6017351  23.8324094  36.6857386
  57.0858669  58.2729387  31.7637372  57.5041676  57.5391197  32.2140360
  56.6936159  58.7924147  32.4655342  45.0525761  51.6683817  72.6583815
  45.5016088  50.9394503  72.2302961  44.6004200  51.2681818  73.4010983
  39.5558977  11.8417513  62.0561552  39.8478842  12.7412224  61.9080782
  40.3597307  11.3566005  62.2424746  40.5871058  39.5484328  49.7492170
  39.7762918  39.6621180  50.2450943  40.5285168  40.1923895  49.0434456
  22.9088449  22.6920795  46.5761709  22.7976418  21.9910049  47.2183228
  22.2938013  23.3709550  46.8538046  47.7717018  50.9010935  53.1172466
  47.2817087  51.3279057  52.4144173  48.5631466  51.4308167  53.2133579
  64.8155642  20.5700684  82.2684479  65.2282238  20.1595736  83.0283451
  64.8503733  19.8999465  81.5858364  82.7182484  25.6840301  39.3899584
  83.0284023  25.2612305  38.5891628  83.3717728  25.4544544  40.0505829
 110.9575684  69.6480846  25.0751185 111.4899774  70.3836727  24.7723150
 111.4351924  68.8711119  24.7845721  51.9331789  35.0407457  20.6778646
  51.6718483  34.1912699  21.0332918  52.6281881  34.8352075  20.0526094
  44.6327019  56.2126350  55.7828188  44.0821266  55.7431412  55.1561832
  44.4785118  57.1376705  55.5910969  56.8113041  27.7752948  55.9393692
  55.9249210  27.8213286  56.2977552  57.1517038  26.9360900  56.2493610
  19.8865962  59.7780991  76.9814157  20.3088140  60.0909567  77.7814674
  19.0209544  59.4852161  77.2662210  97.1164227  32.3785233  60.1692724
  96.9974041  33.2005215  59.6934748  98.0510521  32.1882629  60.0886202
  19.9254477  56.5831614  30.2620459  20.3003526  55.8906269  29.7179151
  19.0059400  56.6230392  29.9990869  38.6984420  50.9616423  56.5088177
  39.5424199  50.6473255  56.8330717  38.6290622  51.8542051  56.8475676
  32.6360035  26.9831324  52.6698589  33.0012822  26.5931201  51.8756962
  32.1221018  26.2802005  53.0673790  53.4634399  50.4558802  30.8092952
  53.0418158  49.6275377  30.5805707  54.0829086  50.6140471  30.0969219
 109.0428794 102.6147945  56.4642000 109.1948331 102.9646231  57.3421288
 109.4560803 101.7514480  56.4755583  48.9997005  44.3957806  65.3147459
  49.6384907  44.3423986  64.6038818  48.5740662  45.2441740  65.1910686
  23.2357621  17.7110994  54.2001295  22.6053238  18.1675768  53.6429834
  23.1287694  18.1132174  55.0621510  19.8280799  15.5463529  24.7491336
  19.7691739  16.2481761  24.1008997  20.7295346  15.2318859  24.6804214
  50.8904219  69.2948866  25.6388426  50.5929708  68.4882784  25.2179694
  51.1484385  69.8628044  24.9128032  13.5443783  27.0594931  37.9296565
  14.2969370  26.4691997  37.9676342  12.8263688  26.5572858  38.3149886
 109.1755022 105.0548656  51.4818239 109.3959034 104.6797753  52.3344421
 109.9574603 105.5440850  51.2260151  12.3788470 104.8600609  75.1439238
  12.0130413 105.6984283  74.8618650  13.1666296 105.0952620  75.6341410
  56.6440439  41.4441967  34.8222971  55.7222414  41.3434219  34.5849013
  56.6284180  41.9539833  35.6323028   1.0776069  15.9173405  13.6597717
   1.3832526  15.8901370  12.7530897   0.3748034  16.5671766  13.6562133
  77.6738548  33.5266018  31.2314034  78.6289406  33.4719706  31.2639022
  77.4112225  32.7974749  30.6695962  75.3867197  35.5927801  52.9335117
  75.3847218  35.1387286  53.7761688  74.7387457  35.1241803  52.4074125
  19.9183655  16.8353951  60.2258778  19.8474479  17.7576220  60.4722548
  19.5449126  16.7932689  59.3455410  88.0958176  19.4875789  68.9130688
  88.6114883  19.8255897  69.6452332  87.2516727  19.9324143  68.9891148
  22.1345735  44.3944120  60.5421257  21.3184404  43.9003801  60.4640436
  22.1991706  44.6045208  61.4737415  29.4692445  38.5383296  72.8590918
  30.2492809  38.0725360  73.1604385  28.9626646  37.8770995  72.3875141
  69.4939566  38.4210396  46.0315132  68.6061192  38.5022068  45.6831074
  69.6823788  37.4834442  45.9909534  60.9802008  43.3980656   8.0309099
  61.6631889  43.9946508   8.3372569  61.0388088  42.6448584   8.6186844
  72.8658533  22.2956848  56.9289398  72.7636528  22.3455572  57.8793621
  73.8120604  22.3273659  56.7878103  50.8056355  40.1214790  52.7845812
  51.7492485  40.2802944  52.8091478  50.6469107  39.7556090  51.9144201
 117.1660399  28.3099675  37.4409246 117.1018340  27.5792336  38.0558562
 116.2766711  28.6604428  37.3917150  74.9522495  23.3160353  46.5551376
  75.3425932  24.0716553  46.9943380  75.2678823  22.5609875  47.0516348
  41.1924028  28.8285160  30.0476813  40.8359241  27.9444480  30.1347589
  41.8021584  28.7695289  29.3121862  68.6820030  46.2664509  20.4386139
  67.8291178  46.6948605  20.3658843  68.5808039  45.6534576  21.1667848
  29.0847945  26.7738271  32.6653314  28.7714529  26.5267015  31.7952895
  29.8951316  26.2769723  32.7781248  51.7655134  15.6973553  55.2353907
  51.6710424  15.4498124  54.3155909  52.5167465  16.2904203  55.2478695
   1.5434855 110.6953166  49.2232227   2.4284666 110.6113323  49.5781660
   1.0058182 110.9411138  49.9760389  57.2921705  40.1020718  18.6347198
  56.6066790  40.7246256  18.3923244  57.0786858  39.3079758  18.1447554
  67.0796347  18.8562500  61.4446878  67.2749281  19.7914350  61.3853550
  66.1395359  18.8185966  61.6208410  24.1536570  47.0160055  38.1767368
  24.4249701  46.3628054  37.5317955  23.1970882  46.9847059  38.1615067
  14.7435057  30.1437974  56.9567585  13.9393890  30.6544709  56.8627405
  14.8674142  30.0640941  57.9025507  53.1301975  16.1196828  42.2207022
  52.5590324  15.3640616  42.3586941  53.8413382  15.7856965  41.6739273
  44.7845173  31.2609243  17.7678430  45.5647135  31.7864060  17.5906682
  45.1226521  30.4523659  18.1527197  30.8782029  25.1225328  46.1665916
  30.4900765  24.9139357  45.3168392  31.3933730  25.9133244  46.0069561
  39.9043226  34.1662836  65.0074768  40.3213882  33.3933687  64.6268272
  39.5869541  34.6630526  64.2533350  12.1809328  60.2566290  67.8907108
  11.8821120  60.3398323  66.9851637  11.7844212  59.4421244  68.1998873
 115.6392653   6.0738444  58.6069775 116.0628723   6.8738335  58.2958364
 114.7145201   6.3078499  58.6864710  60.1896620  39.4892979  48.4356546
  60.5190992  39.3917131  47.5422478  60.8008146  40.0976276  48.8511801
   3.9191407  94.9675770  33.9894176   3.5260647  94.1800029  33.6133194
   3.2926625  95.6645007  33.7943530  52.1770477  59.9701929  48.5723209
  52.5746536  60.4365396  49.3076229  51.4082098  59.5414352  48.9482021
   7.0876694  11.3308859  54.0246201   6.3882780  11.2367213  54.6713209
   6.9406402  12.1935213  53.6367083  74.0207607  77.2511150   7.7643559
  73.2976634  77.7329184   8.1658909  74.3635709  77.8457739   7.0972034
  65.0952721  22.6463437   3.0852902  65.5121708  23.0677223   2.3337132
  65.3582191  21.7281890   3.0214152  11.9201624   7.9666990  49.0285635
  12.1160388   8.8315779  49.3889093  11.0284638   8.0448586  48.6894512
  65.6649828  39.1765094  14.2734146  66.0189581  40.0588655  14.3847060
  64.7169971  39.3022442  14.2317045  60.4183722  34.9317980  41.3959742
  61.1825705  35.3774619  41.7615080  60.4399824  35.1454139  40.4631662
  63.4147024  19.0122044  64.2948246  62.8182983  19.6848524  63.9660645
  64.0498352  18.8896608  63.5892582  43.1766701  16.4765298  17.4763179
  43.5347462  16.0008574  18.2258177  42.2587013  16.6250634  17.7032626
  18.1658095 111.4035360  41.9370270  18.4692972 110.7100280  42.5228357
  18.8351172 111.4503481  41.2543392  74.4555473  30.2801323  25.9740186
  74.6186781  30.3518033  25.0335503  73.5074997  30.1686740  26.0448503
   8.9454740  42.5754452  60.8395720   9.6676934  42.3304892  60.2611017
   8.2167757  42.0208120  60.5609798  50.0131798  43.5767937  39.7164321
  49.8891973  42.7852106  40.2401304  50.8831930  43.4748411  39.3305349
  35.5665326  61.2691736  32.8261590  34.7216129  61.0751867  32.4203110
  36.0301971  60.4317665  32.8260231 116.6725004  22.6629972  53.7835312
 116.9996607  23.5448408  53.9611530 117.1953460  22.3584342  53.0418396
  97.6474268  50.3943469  15.0066444  98.1986982  50.1798345  14.2541000
  98.1910259  50.9688981  15.5457279  24.2624235  44.0285206  50.5347776
  23.7552953  44.5236254  51.1781454  24.8789001  44.6657228  50.1740026
   6.2831873  33.5266852  33.8595271   5.9703350  34.4152117  34.0294647
   7.1014398  33.4625721  34.3520546  85.8131695   7.1875721  45.8201647
  86.1614895   6.5426505  45.2045488  86.5424633   7.7874327  45.9767914
  46.1988544  12.6482570  47.4857616  46.9948053  12.5132036  46.9715166
  45.9086180  11.7652047  47.7142620  36.4540410  33.8770270  59.8308563
  36.6743422  33.5395432  60.6990719  35.5074000  33.7545729  59.7593975
  31.0121989  44.2074728  55.3199863  31.5317059  44.9854612  55.5226660
  30.1100135  44.5250702  55.2822161  33.7515593  40.5365562  51.0572243
  34.6656418  40.6156635  50.7844114  33.6265945  41.2480879  51.6851902
   8.7629050  92.8681536  75.8483219   8.1140726  93.5667426  75.7633352
   9.2629832  92.9052479  75.0329828  28.1235385  42.1907377  60.6408834
  28.8075829  41.6890240  61.0842800  27.4632525  41.5390730  60.4051065
  46.2184954  15.1772761  13.3782291  47.1110344  14.8828077  13.1968510
  46.2821054  16.1319780  13.4052670  24.5682972 101.2926967  48.0468416
  24.2758482 101.3566811  47.1376610  24.7039479 102.2002382  48.3192396
  34.5394611  52.5146437  54.2302752  35.4463506  52.7176857  54.0010214
  34.1261792  53.3693457  54.3523979   5.7104450  59.5868397  53.7686157
   5.9265625  58.6803532  53.9872599   4.7754467  59.6627569  53.9589977
  68.2592058  52.1654987  17.0458043  68.8295603  51.4879322  16.6827261
  67.6790285  51.6948223  17.6442122  31.7706776  26.1665869  33.1775832
  32.2276354  25.3439999  33.3529997  32.4011707  26.8463111  33.4156632
  49.3628359  41.2047768  40.8699846  49.9218035  40.6626320  40.3133345
  48.7589931  40.5849504  41.2791586  47.6398611  54.9595022  61.1328173
  47.4016809  54.2336893  60.5560207  48.5782957  55.0816250  60.9891081
  31.1202908  30.5969596   4.6957022  30.8640051  30.2033401   3.8616681
  30.3331566  31.0494065   4.9989274  28.5494208  51.5298462  61.7240143
  27.8970337  50.8300161  61.7533445  29.1432309  51.2742996  61.0180950
  40.9289503  54.2782545  41.3426161  40.5480623  55.1166677  41.6038084
  40.9375000  54.3067455  40.3858805  54.3219614  24.6999979  85.5953598
  53.5048294  25.1941657  85.5295658  54.7515106  24.8338675  84.7504902
  89.2464924  25.8133698  30.7208490  88.5334206  25.8704782  30.0848508
  89.3674278  26.7123723  31.0264611  98.0839659 103.8082827  23.8671017
  97.4701358 104.5189853  24.0524292  98.7626923 103.8974489  24.5361400
  64.9214077  40.5810070  56.5604353  65.1710367  41.3952732  56.1235332
  65.6144810  40.4320908  57.2036314  32.4526954  23.0362940  61.5609932
  32.1788144  23.4937143  60.7660151  33.1017947  23.6161137  61.9593763
  49.2429352  60.0586939  34.6398020  49.2388010  59.2085552  34.1999459
  48.3200312  60.2418375  34.8157120  55.1861143   8.0826950  65.3484535
  54.9398899   8.6387467  66.0876465  54.9677134   8.6022246  64.5747471
  15.5540752  32.9005456  60.1016235  15.1734030  32.0297670  60.2159309
  16.4703488  32.7342057  59.8802471  44.4577217  41.3571119  58.5369968
  45.2156782  41.9353914  58.4513998  44.2498112  41.1001968  57.6386642
  36.0536671  23.7515664  35.3466487  35.6236029  23.5923719  34.5064497
  35.8213139  22.9929781  35.8821750  46.0053396  51.2431479  59.6397591
  46.2393141  52.0584726  59.1962099  45.1247454  51.4000750  59.9805784
  17.6209366  24.0295053  49.3016958  17.4655628  23.7958050  48.3865547
  18.5565567  23.8755822  49.4326687  31.8455958   0.0821257  93.1236267
  32.6097298   0.3484565  93.6349010  31.1338735   0.6308985  93.4530735
  57.4343586  37.9074860  28.7824798  57.5008440  38.8621116  28.7601066
  56.6578817  37.7091384  28.2590485  48.5687351  11.5823185  58.9028788
  47.7885580  11.0500228  58.7472725  48.4800196  12.3196054  58.2989168
  78.4920263  69.5020294  53.1369829  79.1457701  69.6583509  52.4555111
  77.7449560  69.1269350  52.6706886  73.3323097  41.8827391  51.2431383
  72.4653292  41.8635368  50.8379078  73.7565851  41.0803461  50.9391785
  52.0092249   3.1147933  61.4892817  52.0688868   2.2060119  61.1946821
  51.5457582   3.0656129  62.3253489  71.4638758  61.6885471  22.4743795
  70.8551216  62.0557451  23.1153297  71.9171810  62.4494219  22.1113205
 115.3918360  15.7540476  50.7282686 115.3758745  15.0226784  50.1109552
 116.3082136  16.0298073  50.7492447  85.7794762   6.8698049  39.4015098
  86.5650845   6.4700657  39.0283322  85.0868797   6.2277615  39.2455530
  10.0268161   0.7329082  31.7711449   9.7618383   0.2213447  31.0067344
   9.6467727   1.5988931  31.6232610  50.2281666  65.8909702  74.1631413
  49.8151731  66.6122437  74.6379375  50.6860256  65.3906345  74.8386145
  46.4169931  54.5098257  53.7341213  45.4975033  54.3799353  53.9662743
  46.6319036  55.3752851  54.0820026  96.9520075  81.9726222  91.7625654
  97.6319773  82.6459616  91.7406106  96.9245703  81.6896456  92.6765698
  39.4186091  47.8493071  65.0956059  38.5821342  47.9772758  64.6482038
  39.8650074  47.1768236  64.5810890  48.2436609  44.1316462  60.5294800
  48.6089182  45.0157166  60.5647230  47.9194593  43.9709377  61.4156485
  35.9165716  41.7638922   8.8416529  35.4148793  41.4800787   8.0774641
  36.5061569  42.4382162   8.5041529  58.4765053  34.1507530  64.6097422
  58.8476515  33.3703494  65.0213814  58.6952496  34.0593886  63.6823606
 114.4496100  47.9070902  38.8552308 115.1783375  47.3172092  39.0481830
 114.1732086  48.2342958  39.7112513  20.7560325  54.1633224  59.9390602
  20.3258681  54.7799635  60.5314636  20.0457191  53.8115025  59.4024897
 108.3360416  41.6180159   6.1931679 108.9680273  42.3089375   5.9945366
 108.8346559  40.8054544   6.1073944  55.4668665  52.0319033  61.7485905
  55.1551437  52.7940750  62.2365999  56.3488102  52.2731495  61.4653826
  51.9108629  32.9020524  47.6163960  52.3190355  32.8571439  46.7517519
  51.4828968  32.0525932  47.7236366  33.8884091  16.3116312  46.5086651
  33.8351893  16.6974413  47.3830509  32.9782343  16.1411059  46.2663126
  75.2177095  43.5727453  28.5867882  75.3385973  43.0497885  29.3793392
  75.8223867  43.1887007  27.9518795  57.6196671  23.0069709  64.5552301
  58.2531738  23.6471081  64.2309999  56.7721748  23.4432626  64.4678164
  24.7052336  40.0085640   5.8468908  25.0458336  40.5956888   5.1719773
  24.6405721  39.1575074   5.4135901  58.4662056  36.1892509  52.1994972
  58.1660604  37.0655680  52.4407673  57.6625681  35.6770158  52.1100140
  37.9728889  61.8199968  63.4921026  37.0177889  61.7678118  63.4561634
  38.1851363  61.6918707  64.4166374   0.7717432  49.3795729  61.5901279
   0.1448321  49.0869951  60.9286070   0.5623633  48.8587570  62.3654652
  17.6328874  18.5784674  50.2495718  18.0477178  19.3216705  50.6875229
  17.9974687  17.8089046  50.6867075  10.5751300  37.6091552  40.3573847
  10.3504658  38.4488010  39.9564433  11.5267622  37.5503206  40.2727413
  46.4752054  19.4447887  61.5171623  45.9805441  20.2118587  61.2288189
  46.8281555  19.6945333  62.3711443  93.7944698  33.3288455  23.5760307
  93.2267857  33.9244413  24.0651464  93.4511852  32.4567986  23.7707663
  43.0610752  54.4979382  61.0193014  43.0418825  55.1715136  60.3394794
  42.4441147  54.8087168  61.6818762   4.6022451  17.4256968  56.3424492
   5.2679986  17.3899508  57.0292711   4.1967905  18.2865214  56.4464712
  16.4356899  39.4184732  48.1134558  16.8452418  40.0600338  47.5330210
  15.6670010  39.8686862  48.4636784  77.8026628  17.8796244   7.6670605
  78.6132717  17.8645158   7.1582216  77.5164413  18.7924492   7.6345390
  32.4695253  17.2856152  42.6784277  32.2906804  16.3480020  42.7500391
  32.4033928  17.4712014  41.7417240  40.9459305  21.4756441  25.1071477
  40.1934528  20.9397745  25.3578448  41.1687851  21.9619083  25.9009457
  59.4269276  36.6505265  45.9969139  58.9063215  36.4670038  46.7789125
  60.3039455  36.8378234  46.3315630  59.3172932   4.6973038  64.4594145
  60.0059414   5.2433437  64.8386669  58.8837147   5.2661091  63.8232517
  52.2114134  29.9083900  40.3853273  52.8208971  30.3856301  40.9483576
  51.7959881  30.5867219  39.8528647  88.4725189  42.6585960  47.6957941
  88.3418846  43.5224771  47.3047972  87.8138447  42.6070976  48.3884192
  41.4551353  38.2025027  55.5514479  42.1903610  37.8407812  55.0566435
  41.5765858  39.1506815  55.5020952  16.5669096  38.0071712  39.1827154
  16.4134753  37.7828646  40.1005268  16.0903633  37.3390770  38.6899829
   4.6969980  44.6256590  76.1821270   4.4786331  43.7553263  75.8488607
   4.9306113  44.4794559  77.0987940  40.1575613  46.0346794  44.6302652
  40.3988171  45.1101351  44.6872187  39.5297670  46.0743856  43.9087868
  46.3905716  23.8369870  39.9867439  46.6562128  24.4868016  39.3360472
  47.1891785  23.6529279  40.4812956  61.2177706  42.5889730  50.7140112
  61.7610264  42.0740986  51.3106728  61.1942244  42.0744419  49.9072075
  14.8779976  48.5662603  57.0324564  14.4977880  49.2670441  57.5621510
  15.7353616  48.4061813  57.4268341  60.3221954 107.0264513  35.6073236
  61.2481988 107.2590877  35.5392861  60.1115752 106.6318325  34.7610712
   9.0095574  52.7567244  55.0860262   9.1963077  53.3841276  54.3876600
   8.3242166  52.1940565  54.7255468  41.3316314  85.3553456  91.7831069
  41.6983679  85.0636142  90.9484634  42.0911968  85.4532903  92.3573011
  58.7852716  37.4420118  55.7423782  59.0377951  37.2395349  56.6431952
  58.7731075  38.3984542  55.7062674  63.2091665  35.4122734  46.8515635
  63.9695835  35.2587652  47.4123049  63.3976460  34.9202561  46.0524225
  30.8310127  32.6102161  75.7552147  31.7835760  32.5837708  75.8455324
  30.5426669  33.2181907  76.4359903  19.1482055   9.2686868  48.9231634
  18.2570052   9.6029598  49.0244436  19.4800067   9.7051704  48.1385517
  19.4253719  37.4197340  48.4176922  20.1654959  36.8428683  48.2288218
  18.8492596  36.8957710  48.9742804  41.6821337  33.7161350  37.7306032
  41.8433905  34.2830586  38.4848070  40.7651854  33.8727450  37.5049591
  34.3485236  35.9605813  72.9367447  33.3938718  36.0132718  72.9825211
  34.6518016  36.7964411  73.2911301  63.3402681  33.1137156  51.8705177
  62.5114250  33.2480335  51.4109373  63.0855894  32.7841449  52.7323484
  15.7683861  56.0161686  42.3101759  15.8792377  56.7663670  42.8942537
  16.5979433  55.5422354  42.3689365  29.0684175  56.0965872  49.0707064
  28.6127543  56.8424511  48.6804533  29.1344762  56.3158560  50.0001097
  46.8047619  38.0232191  31.2759709  47.0011950  38.9566588  31.3555908
  46.7957449  37.7025843  32.1778274  68.4189081  35.4233718  51.6433764
  67.4869537  35.2920604  51.8178654  68.7978172  34.5457530  51.6927958
  35.0420952  31.6988063  19.2131555  34.5439053  30.8894825  19.0989971
  35.4548430  31.8479967  18.3625019  21.0317826  63.9578390  39.4879889
  20.3418326  63.6959362  38.8783932  20.6619072  64.7020149  39.9629831
  53.8550693  85.6531709  78.3617738  53.8951952  86.5179246  77.9533329
  54.0861494  85.8097833  79.2773643  28.2705283  22.5922489  64.1802931
  27.6389933  22.8020668  64.8683167  28.6971021  23.4264135  63.9842415
  20.8489871  51.2308693  29.4737053  20.6030321  51.9414091  30.0660467
  21.6310763  51.5526819  29.0253735  76.9101858  18.0845702  41.0232925
  76.7709684  17.7855337  41.9218636  77.8117847  18.4059358  41.0147858
  32.8051996  50.8432770  44.0110302  33.4716439  51.4189339  43.6359262
  33.1236100  49.9588060  43.8305807  23.1501937  70.8512640  15.8916795
  24.0858626  70.7119083  16.0377491  22.8163671  69.9904156  15.6392407
  33.3441186  32.4208784  64.6852350  32.6327085  31.7961884  64.8262739
  34.1387320  31.9305015  64.8958349  64.0625531 101.2420505  92.5966149
  64.7250850 101.7538446  93.0606779  64.4685323 101.0308593  91.7558956
  45.8146381  22.3511672  64.8521137  45.0150061  22.6318240  65.2971458
  46.5126562  22.5192451  65.4851627  36.5036440  56.3491297  26.4149666
  36.4624190  55.4277468  26.6710639  35.6672788  56.5144014  25.9797525
  28.5266900  63.8543224  44.1406441  29.3479776  64.1577864  43.7538242
  28.1316590  64.6426630  44.5130682  33.6135793  36.2554312  32.5757003
  34.0025043  37.0345974  32.9730272  33.5214472  35.6374145  33.3008218
  45.9115124  60.7094526  31.3832498  45.4178810  61.4833021  31.6547632
  46.8262529  60.9395361  31.5461588  66.1316776  44.3246794  26.1456060
  65.8487082  44.2441177  25.2347445  65.6394911  43.6477375  26.6100764
  57.7436972  75.8151150  30.3464794  58.5066128  75.7836437  29.7692418
  57.0041752  75.9667969  29.7579789  40.5450296  56.9118547  41.6243887
  41.2247610  57.3493052  42.1370602  40.1967430  57.5972462  41.0541487
  48.1678629  62.8457165  39.6253610  48.2286406  61.9424343  39.9361920
  48.5204268  63.3705473  40.3440285  61.8588829  37.3493457  58.5079479
  62.8000307  37.2762609  58.6664867  61.7132092  38.2833099  58.3572054
  54.1581154  63.3009577  45.6268787  54.2500162  62.5125980  46.1619329
  53.2797480  63.6248064  45.8264303  68.1172466  26.1396289  48.7845659
  68.2925701  25.5926299  48.0188704  68.9494562  26.1643958  49.2568398
  58.9382935  29.5919323  86.9657803  59.8145914  29.2244196  87.0809841
  59.0120220  30.1485300  86.1905384  63.8470793  45.2572298  33.3951211
  62.8922892  45.3054810  33.4428668  64.0632010  45.6286955  32.5398207
  61.2580729  22.8829503  77.6856661  61.3362360  21.9846153  77.3645449
  61.6531515  23.4184694  76.9976473  43.8458443  54.2448664  53.9936590
  43.6279202  53.4719181  54.5145226  43.0010080  54.5701361  53.6827278
  53.8740492  44.2358971  34.4430137  54.5026827  43.8913822  33.8086987
  54.4156265  44.6117544  35.1370311  45.0864887  48.5042715  54.8383856
  45.4947948  48.6213160  55.6961823  44.7937822  49.3813372  54.5907784
  35.1455593  44.4598436  46.9318295  34.5335889  44.0984106  47.5729895
  34.6247911  44.5629835  46.1353397  51.6592503  62.7710581  36.6671777
  51.9818115  63.6334324  36.4054585  51.5135527  62.8459215  37.6102591
  53.3938265  63.3994961  41.1401176  52.5552130  62.9725552  41.3152885
  53.2301712  63.9411640  40.3680754  62.7121258  41.2340212  26.1184359
  63.3826303  40.6593609  25.7490969  62.7567291  42.0277071  25.5852342
  45.7319021  59.5426083  43.1439447  46.2232494  60.2339029  42.7001905
  46.3261223  58.7922049  43.1495285  74.2349291  37.9299641  53.6943197
  74.1594648  38.3271837  52.8267097  74.6558857  37.0851588  53.5351706
  42.0817423  56.7229939  14.3976438  42.0130014  57.1685028  15.2420557
  42.9612350  56.9357681  14.0854740  46.0425186  46.6418076  44.0052938
  45.1325226  46.9318914  44.0684223  46.2762451  46.7842913  43.0880690
  65.1627636  36.8277693  62.7678585  64.7739363  36.3085771  62.0639515
  65.0349283  37.7360702  62.4942160  40.8954096  60.5957556  57.1339369
  41.6161776  61.1812258  57.3662043  40.1267147  60.9851646  57.5507069
  45.8420229  28.6811781  78.3051205  45.1013231  28.7522388  78.9072371
  45.7973766  27.7836847  77.9753590  54.1573858  40.6724787  34.3134332
  53.9425325  39.8580742  34.7682023  53.4998846  40.7408714  33.6211538
  58.5792112  57.1231699  29.3219423  58.7807703  56.9740534  28.3981609
  57.6502419  56.9068766  29.4023418  46.1148310  62.2347450  37.8910089
  45.4810858  61.7975569  38.4597492  46.8212461  62.5008106  38.4795833
  17.3302090   1.2200642  48.9040709  17.8741980   0.5028750  48.5785723
  16.8195128   0.8303189  49.6136618  33.4651661  33.3466387  70.1406336
  33.9583778  33.3606625  69.3204021  32.7401114  33.9542460  69.9945450
  35.2252316  49.0376425  72.4341822  35.4497194  49.4980383  71.6255569
  34.3299580  48.7294531  72.2936869  47.1138048  54.1845751  49.3992710
  47.7580547  54.8116875  49.7277546  46.8038750  54.5673227  48.5784912
  45.0135326  35.8580041  30.0817347  44.6301985  35.5349994  30.8971834
  45.4486942  36.6741014  30.3284144  54.0981293  61.1764717  47.1650505
  53.3810091  60.5818462  47.3850346  54.7638702  61.0056114  47.8312588
  60.5646515  42.6125336  35.3446221  60.6354618  43.0243015  34.4834208
  60.2578831  41.7245960  35.1610565  23.1313682  49.6903658  30.3822565
  23.2127166  49.9791908  31.2912107  22.1908069  49.7152328  30.2063084
  45.8527470  52.5811052  70.2913189  46.0710430  51.7369366  69.8964024
  45.5921078  52.3662996  71.1869478  58.6272573  37.6198554  58.6774302
  59.0998507  37.7911186  59.4920206  57.7077055  37.5736332  58.9391899
  44.0988779  43.1721020  52.0662165  44.7794008  43.8155079  52.2640753
  44.4849539  42.3316193  52.3127317  47.1637249  35.3371572  13.9407253
  46.8706274  35.1881838  13.0417633  46.7339611  36.1519408  14.2008483
  44.6381044  47.8170776  60.9362364  44.7198153  48.5234070  61.5770578
  44.8461485  47.0224953  61.4277554  20.9683371  35.1372910  47.7631378
  21.2834835  34.8751807  46.8981457  20.7803631  34.3118429  48.2098293
  53.6508942  61.1528635  50.5957985  54.0463829  61.9993687  50.3878355
  54.0635920  60.8914375  51.4189434  55.4372263  47.6298428  33.2922292
  54.9271727  46.9652462  32.8292108  56.1209679  47.8823376  32.6717591
  24.1843128  24.0964198  44.6419334  23.5095286  23.7211680  44.0761709
  24.1185617  23.5977578  45.4563284  49.9572325  54.9853182  18.9121628
  50.0157642  55.9196424  19.1117859  50.4405546  54.8848820  18.0920744
  59.3490124  18.7488151  51.5680885  59.1103220  19.3604350  52.2646379
  58.6254644  18.1227505  51.5407419  41.5020323  56.5833950  54.7964144
  40.8460188  57.0028448  55.3531313  42.3070669  57.0733309  54.9640894
  68.7918425  52.6269245  21.5547395  68.7041235  53.4544325  21.0816979
  69.7113848  52.3847103  21.4451599  30.8257794  32.9342175  44.2137051
  31.5253782  32.5448442  44.7382832  30.0262833  32.5145864  44.5314312
  50.9430504  32.3049426  35.9239459  51.4619064  32.1484756  35.1349354
  50.1277351  31.8266439  35.7732105  38.3067393  48.9317989  43.6747980
  37.6329541  48.8255405  44.3463278  38.7776446  49.7246838  43.9313459
  37.2453547  51.5034866  45.0112724  37.9776907  52.1197891  45.0022173
  36.7746305  51.6788721  44.1964769  58.4652376  15.0237417  49.3006611
  58.3516693  14.0736008  49.3244028  57.6084805  15.3735542  49.5452547
  43.1760120  69.2273426  80.4858494  43.5527420  68.4631014  80.9220219
  42.7459764  69.7159100  81.1877060  48.7836838  68.2986784  33.2278681
  49.6755695  68.1357098  33.5348105  48.3090734  68.5807419  34.0097976
  13.3507937   1.8814991  95.0634838  13.0331200   1.4777945  94.2558095
  13.2665413   2.8225659  94.9100938  19.3377936  29.6904564  53.9237690
  18.9949560  29.7625399  53.0329847  20.2639174  29.9185514  53.8431597
  73.8233900  76.1967182  31.5246868  74.0551853  76.6454029  30.7115555
  74.6544504  76.0985518  31.9893742  94.5620728  78.2449102  64.7901011
  95.1010609  78.8891315  64.3310785  93.7044525  78.6626673  64.8688364
  94.2646408  56.4775610  50.3739929  94.5128822  56.2691879  51.2746525
  95.0971127  56.6127491  49.9212742 100.8094025  67.1895838  35.9012604
 100.3214264  67.7594423  35.3068089 101.3859749  66.6836929  35.3286648
  86.1418343  73.4900808  61.5543079  86.8774796  73.6479282  62.1460342
  85.3975868  73.3305073  62.1346998  52.7759647  76.0674715  27.3623347
  52.7681971  75.1348829  27.5778556  51.8613434  76.3388777  27.4400306
   1.4609103  63.6663866  56.7569637   0.6407695  63.6059809  56.2671089
   2.1432643  63.6349487  56.0864210  96.5104675  78.4967136  16.6196108
  96.7046261  79.3021965  16.1403084  95.6137657  78.6147356  16.9330251
  74.8492622  49.3089247  59.4793749  75.4961109  48.7013006  59.8380041
  75.3561497  50.0850821  59.2408848  61.2357044  92.1874619  35.7216549
  61.5727425  92.1930981  36.6175365  60.5303240  92.8344822  35.7270527
  87.8178310  61.4046669  60.6827497  87.5373173  62.3198366  60.6802893
  87.0370579  60.9141397  60.4258347  89.6698952  50.5686808  41.3770008
  90.3304863  50.3951740  40.7063723  89.8397350  51.4693069  41.6531515
  95.8451271  84.9914646  49.7805452  95.4766750  84.1353512  49.9985743
  96.7923069  84.8534679  49.7878456  61.6931152  70.9672356  58.3867550
  61.0713530  70.5008173  58.9454126  62.4757814  70.4161787  58.3873844
  88.7755299  84.1194057  64.4046545  88.5997868  84.6883106  65.1541185
  89.2605591  83.3809757  64.7730207  63.0845118 106.9844913  67.9641342
  63.6459112 106.3939571  68.4664631  62.5354767 107.4106312  68.6223078
  94.9268723  82.9116726  45.0728178  94.4638443  82.7061939  45.8849859
  95.3384018  83.7596321  45.2396870  59.8398590  81.4613819  11.6589785
  59.4548464  82.3057175  11.4242518  59.1086817  80.9546757  12.0123434
  79.6004343  81.8147469  39.0084124  79.0739775  82.3862457  39.5673990
  79.4070911  82.1068001  38.1175947  61.9875813  47.6474094  33.3331084
  61.6276264  48.5125923  33.5283566  62.1731472  47.2659826  34.1911936
  37.7594352 105.4560280  56.7129946  38.5801339 105.1794147  56.3053513
  37.1866274 104.6925926  56.6402054  71.6655397  72.1219587  45.8495426
  71.6774178  72.2279358  46.8007803  70.7935476  71.7768192  45.6578684
  70.9219599  40.3453922  47.3685026  71.7093515  40.6148386  46.8955898
  70.3585768  39.9615526  46.6965628  63.4474993  60.2590561  60.5506802
  62.8949499  61.0405779  60.5385828  63.0249691  59.6574783  59.9376488
  76.0560608  59.0985918  42.3069429  75.2786112  59.0258074  41.7533112
  76.7911673  59.0322161  41.6974831  72.4372768  63.4988928  43.2927895
  72.9727697  64.0347862  43.8778496  72.6876211  62.5978851  43.4970856
  94.6849537  74.1890383  53.5424137  95.0257301  75.0677299  53.7097502
  95.3329182  73.6024952  53.9327240  71.9760180  72.9765272  65.2193928
  71.1725903  73.4677410  65.0477791  72.5221348  73.1339550  64.4491959
  58.6332655  75.1154757  19.0332246  58.1888103  75.6890392  19.6574998
  59.5547771  75.3681326  19.0899217  70.8549738  80.0432777  44.4416428
  71.7984533  79.9103975  44.5333862  70.7529974  80.4506874  43.5815001
  63.8547373  76.7788839  54.5978928  62.9410458  76.6238070  54.8373652
  64.2681551  75.9178209  54.6602964 113.1142807  79.9962759  34.4366336
 113.6492729  80.7344723  34.1449594 113.0504704  80.1067829  35.3852892
 103.6855698  53.4297705  59.3967152 104.6268654  53.2583380  59.3683052
 103.3122826  52.8234863  58.7569427  48.1821871  60.6354380  21.7301726
  48.6329556  60.8890629  22.5356007  48.8051891  60.8393288  21.0326552
  90.9810448  62.7662277  21.5090346  90.2350140  63.2087278  21.9138384
  91.3101387  62.1797895  22.1902251  87.6830482  31.7820597  34.5999980
  87.1546745  31.7852950  35.3981423  87.4273014  30.9787273  34.1466999
  91.9500256  72.1704102  35.3087878  91.4905548  71.9816446  36.1270094
  92.8523159  72.3459864  35.5757785  46.4900970  89.7605991  59.3547583
  46.1883116  88.9959526  58.8643789  45.7752466  89.9535179  59.9613953
  87.8986931  65.1127243  52.4466801  87.3718452  65.8273554  52.0889473
  87.4386406  64.3177986  52.1770906  81.2195873  69.0277910  35.3670478
  80.9657001  69.2551279  36.2615275  81.7549324  69.7656488  35.0751591
  58.3968496  66.9645214  29.8256874  59.3002892  67.2553205  29.9500275
  58.0047941  67.0215702  30.6970501  81.2870216  78.3567619  66.9622278
  82.0480919  77.7897739  66.8376541  81.1586761  78.3804846  67.9104900
  72.7944374  55.6695747  67.4630356  72.1840525  56.2420321  66.9983292
  72.7119303  54.8236752  67.0227146  68.8141251  67.2631359  52.3733234
  69.1887474  66.7891026  53.1157398  69.5191574  67.8382444  52.0759678
  78.4077406  66.1079121  52.3581791  78.3247995  66.2686777  53.2981300
  78.5380745  65.1622629  52.2875118  86.2986279  97.3087788  73.2960129
  86.5649128  97.2225952  72.3806429  86.6281509  98.1673622  73.5614920
  93.1383991  64.9356174  39.7567201  93.7004471  65.6530285  40.0493765
  92.3769951  64.9765253  40.3353596  84.9495220  89.3051147  37.7924800
  84.5433521  90.0105286  37.2888470  85.8843422  89.5105934  37.7816033
  82.1581268  82.3073959  48.4715128  82.0625877  83.1466579  48.9217949
  81.2729740  81.9435406  48.4527445 105.0340843  89.6384048  63.0526686
 105.0568485  88.6996555  63.2382822 105.9007645  89.9541950  63.3083534
  79.9954844  62.5539351  31.6442227  80.3275490  61.9696569  32.3258257
  79.2695618  62.0717955  31.2482309  91.2165928  77.2348213  32.6065278
  92.0023823  76.6926813  32.6761270  91.0066700  77.2335529  31.6726303
 113.8113213  68.2540226  44.1543484 113.3215714  67.4988174  44.4799852
 114.2934132  68.5737848  44.9169588  98.4919071  92.0044994  44.4310760
  99.4312382  92.0335102  44.6128368  98.3837414  92.5378036  43.6435986
  70.8673239  72.6056910  60.3209496  70.2983236  72.4411249  61.0728693
  71.1395168  73.5178328  60.4216576  73.4602928  81.8768120  60.8414888
  74.4016075  81.9172478  61.0103655  73.0666637  82.3729324  61.5592337
  75.9500456  61.0034847  68.4832764  75.9490299  60.4130077  69.2366457
  76.0563803  60.4265594  67.7269173   4.1178738 110.5246013  71.4398911
   3.2830655 110.8894771  71.7334917   3.9787137 109.5775693  71.4402917
  75.8035564  84.8163605  26.4985561  76.5902328  85.2891350  26.2267900
  75.3411722  85.4293633  27.0701003  20.8379876   9.7975116  32.1656537
  21.1127697  10.6858497  32.3927641  20.4533898   9.4524055  32.9713964
  82.4580002  65.6010962  46.7076635  82.1447849  66.4892721  46.5365744
  83.3201694  65.7235575  47.1050215  85.9105110  45.5749941  55.3022289
  85.1999664  44.9360418  55.3577662  86.7090702  45.0517702  55.3713179
  94.5844871   4.1872363  15.8882546  94.6919901   3.2654243  16.1226392
  94.3361170   4.1719585  14.9639654 114.6660233  68.4550714  53.3538532
 114.4472408  67.6360226  52.9094172 114.1620731  69.1223621  52.8880358
  77.2472715 102.6824570  56.8414259  76.6719723 103.4041405  57.0952749
  76.7654753 101.8934441  57.0895338  66.0660839  96.5228176   1.8452449
  65.5148554  96.4534187   2.6247099  65.4467106  96.6156769   1.1213758
  55.0226545  97.5078964  67.3884392  55.2322912  97.1555805  66.5234804
  54.9542570  96.7365646  67.9511023  61.0349369  84.6473312  12.9338408
  61.5797138  84.8129082  13.7032783  61.2107515  83.7339306  12.7079570
  77.8235865  86.5078926  79.9018288  77.9303598  85.5660057  79.7688580
  77.6163960  86.5964794  80.8321285  55.6310272  77.6586580  60.5635738
  56.3085794  76.9825363  60.5601215  55.1587343  77.5202608  61.3845587
  69.3910360  77.2326088  52.0733738  69.5213366  77.9148531  51.4147425
  68.9250708  76.5372801  51.6090155  62.3018646  79.2574215  44.5500803
  61.8764544  78.4293985  44.3272781  61.6884184  79.9294329  44.2529011
  58.3695459  76.7522383  65.6180668  59.2972851  76.8383741  65.8374166
  58.2126141  77.4368811  64.9677849  73.7023926  75.8630800  24.5446968
  72.8496122  75.6343746  24.1749787  74.3291998  75.6416512  23.8559937
  78.3951330  83.2786369  77.1173048  77.6662827  83.1208611  77.7173996
  79.1323423  82.8087234  77.5070953 106.3265133  31.3630247  51.9721651
 106.2184715  30.4224491  51.8311691 106.1729622  31.7533851  51.1117744
   0.4431491  71.0185814  53.4679031   1.3724379  71.2473536  53.4499454
   0.1641135  71.0782099  52.5542212  75.3522110  86.3892365  58.7211227
  74.6053600  86.6454887  59.2622089  75.5463314  85.4914761  58.9905357
  77.1714973  72.4680901  27.6205873  77.2761250  73.2511950  28.1609845
  76.5663195  72.7339411  26.9282627  79.3930912  40.7455492  30.4000592
  79.0638781  41.6201687  30.1929593  78.7372351  40.3766394  30.9916592
  99.1597652  77.5446987  67.5476885  98.8349915  77.1316290  68.3477736
  99.7733021  78.2121515  67.8547812  81.6293716  36.1993766  49.5245981
  80.9295654  35.9763718  48.9107847  81.6454792  35.4703069  50.1446199
  73.3033037  77.4623108  71.7245770  73.2821989  76.5210056  71.8970251
  72.4295521  77.7696943  71.9660521  62.0677662  82.9558659  40.5454636
  62.6352167  82.7901554  39.7926211  61.4155865  83.5771847  40.2216578
 101.1355495  68.8124371  84.5615864 102.0561886  68.8634920  84.3045712
 100.7386112  68.2281017  83.9156532  65.0513840  82.0065498  19.6168077
  64.9791050  81.0623550  19.7564733  64.7730827  82.3934555  20.4469180
  79.5957088  81.8656349  48.6420202  79.1779184  82.7256489  48.5967016
  79.0744257  81.3150311  48.0577850  58.7911844  98.2642937  79.7844744
  58.8285255  97.5577831  79.1397429  59.2534065  98.9923096  79.3690538
  96.7428017  76.4922476  84.5269012  96.8429089  76.6775751  83.5931683
  96.3283443  77.2777510  84.8838997  81.7205620  95.4538155  50.7583523
  81.5302944  96.2351131  51.2775946  80.8701038  95.1832199  50.4123402
  69.0077335  16.4935927  78.2635307  68.4721071  16.8626552  78.9657640
  69.8577601  16.3292461  78.6717892   0.9298758  63.0383301  82.7054024
   1.6527037  62.4364567  82.5279236   0.3741698  62.9810476  81.9281387
 101.2498474  50.0368452  54.7383404 100.4864502  49.6662474  54.2954922
 101.5484333  50.7357550  54.1564465  67.3924589  94.5043564   8.6607867
  66.7280340  94.8013115   9.2825484  67.0239210  94.7077179   7.8011042
  71.7962170  66.4376211  30.4863334  72.3567152  65.9150839  29.9127221
  71.5112925  67.1702671  29.9401855  81.9603539  73.5774279  71.3968325
  81.3282013  74.2800236  71.5484142  81.8409729  72.9837751  72.1381569
  75.3415680  85.1565742  66.1055946  75.6954432  84.2676258  66.0774899
  74.5036364  85.0954056  65.6469440  59.4788885  78.2160521  59.0202808
  59.2394161  77.6123571  58.3171225  59.5781517  77.6580143  59.7916222
  90.7562542  79.3251324  73.5842371  89.8045063  79.2755651  73.6734343
  90.9099197  80.1402569  73.1065512  88.9208126  75.2340555  27.2046900
  89.2035580  75.7871962  27.9329181  88.6289406  75.8516121  26.5341163
  81.7190933  67.9012585  23.4832668  81.9652939  68.8257170  23.5147834
  80.7647419  67.9049206  23.5569501  67.3703098  73.8739824  48.1283045
  66.7942333  73.2035589  47.7610207  66.8214798  74.3433619  48.7565517
  93.0238724  69.4718409  53.3377075  92.2500515  69.8877525  53.7177753
  92.7406406  69.1878748  52.4685860  99.0985394 102.8194427  62.4406481
  98.3683109 102.5086308  61.9054985  98.8056087 102.6917553  63.3429337
  90.5382252  77.8448200  58.5793161  91.3883495  77.6416445  58.9694977
  90.1494122  78.4869242  59.1732502  79.2274141  96.6300869  50.2768230
  79.2955399  96.8377304  49.3449020  79.6516514  97.3661232  50.7178450
  91.8137581  19.9041991  33.5587072  91.2879783  20.6366210  33.8801789
  91.5264827  19.1555362  34.0813994  93.8262844  94.3118382  28.6988139
  93.4422874  94.6616268  27.8948140  93.5102367  94.8952389  29.3887329
  86.8323898  72.2732496  15.6231403  87.0129871  71.4628887  16.0995138
  86.8600464  72.0199394  14.7004819  87.6246929  77.1152353  58.4611225
  87.8459263  76.4979744  59.1584587  88.2878876  77.8020191  58.5298777
  72.2815037  71.3625526  38.7521243  71.4554548  70.8849907  38.6758685
  72.0199728  72.2712946  38.9005041 105.5651379  61.6717243  38.2445836
 104.6717834  61.9609165  38.4303856 105.9554863  62.3975754  37.7577543
  89.9998665 106.6710186  17.3262620  89.4676495 106.2680435  16.6402614
  90.8767033 106.3116264  17.1913123 109.6787071  26.6003394  40.9156895
 109.2159939  27.3436952  40.5289698 110.4413605  26.4730954  40.3514194
  81.5464783  93.2803535  64.7106171  82.2193336  93.0132198  65.3368330
  80.7537746  93.3784389  65.2380943  71.2995529  78.0853415  68.7898636
  70.9177494  78.4168625  69.6026087  70.7858038  77.3040819  68.5851145
  92.7438528   1.3501315  40.5055857  93.6169607   1.7325549  40.5931854
  92.2800237   1.9446616  39.9159813  65.6137514  59.5539188  62.2337580
  65.5999756  58.5970783  62.2114086  64.9047279  59.8174334  61.6471767
  84.8113251  96.7873287  31.1248112  84.3832493  95.9772396  31.4018393
  84.7113228  96.7976570  30.1729059  88.2466602  85.5517197  81.2655163
  88.7765789  84.8220921  80.9444904  88.5655499  85.7063293  82.1546936
  73.3183098  58.2662201  56.4233637  74.2433596  58.0809402  56.5851974
  72.8501749  57.7108955  57.0468187  37.3688238  23.3523415  92.1968886
  36.7972439  22.9280422  92.8368088  36.7800110  23.8951729  91.6726163
  82.3904419  86.3935375  43.3277130  82.1430969  86.1369801  42.4393272
  82.6304817  87.3170662  43.2522440  72.1562338  89.9948883   7.6884586
  71.4001703  89.9733257   7.1018261  72.5896454  90.8249855   7.4901676
 110.3728867  92.2840500  74.4727278 110.4039669  91.3330555  74.5770359
 111.2903118  92.5567245  74.4874477  67.6914310  61.8163395  41.3421774
  68.6029387  62.0857811  41.4552498  67.5262737  61.2182999  42.0710850
  42.2919703  77.4162769  60.3654146  42.2031593  77.5282860  59.4189453
  42.4765253  78.2960033  60.6944323 108.8117504  71.6050291  63.8271332
 108.5166264  72.3977900  63.3791780 108.5872555  71.7514944  64.7460318
  95.6247330  79.3369007  69.8711967  94.9269962  78.7212467  70.0956202
  95.1741123  80.0624466  69.4390392 110.6204700  89.5876026  52.3609114
 110.5385208  89.5940781  51.4072514 109.8093319  89.9881363  52.6737356
 112.6636059  34.5754581  60.2277136 111.7614490  34.2880969  60.3683186
 112.9389698  34.9237113  61.0757256  70.6261396 106.2540817  62.4491978
  71.2638903 106.9379807  62.2447824  70.3251886 106.4637566  63.3333302
  56.6982269  74.1079473  24.5291877  57.0649147  73.2283592  24.4392371
  55.8934116  73.9816856  25.0317430  69.8042488  70.6363058  38.0138183
  69.0212917  70.6008673  38.5633230  69.4694710  70.6054211  37.1176052
 108.2319195  11.9737678  75.5756521 108.5426265  12.5883632  74.9108458
 107.5291902  11.4884334  75.1433897  91.5775871  65.3920984  57.2080421
  91.1880493  66.0751295  57.7539015  91.1769485  65.5156469  56.3475466
  14.9509560  20.9268813  51.1964130  15.4255330  21.5875678  51.7008924
  14.8782002  20.1791911  51.7896175 110.0342876  94.8889702  75.6278160
 110.9788305  94.9533098  75.4866460 109.7924549  94.0439909  75.2486589
  76.1364222 103.4039783  51.6758823  76.8672132 102.8885365  51.3345623
  75.4139805 103.2225800  51.0747099  61.7486811  88.0462551  39.3837142
  62.0032358  87.2279739  39.8101497  61.8882275  88.7177944  40.0513935
  89.7014046 100.2082920  11.8287361  89.6859264  99.7408962  10.9935486
  88.9332104  99.8841286  12.2988832 109.7652275   4.4917827  45.9268761
 109.0894729   4.6304851  46.5904617 110.3344137   5.2577930  46.0008955
  72.0298910  78.3603525  61.5762091  72.9456329  78.3711195  61.2977600
  72.0545530  78.0112886  62.4671507  94.7134686  92.8391838  43.8535309
  94.0004826  93.3937359  43.5367203  94.8203659  92.1744919  43.1730986
  91.8783092  56.9159174  95.8422756  91.9669628  57.5546265  95.1348686
  90.9684563  56.9993448  96.1276627 103.1319332  89.6064758  48.6213446
 103.5888195  89.9254608  49.3996382 103.3658218  88.6797523  48.5692978
  81.5011406  61.9107056  18.3956230  80.8209229  62.5486183  18.1797659
  82.2330952  62.4393559  18.7134409 102.7877903  69.0599728  43.7574196
 102.8626633  69.4331503  42.8791428 103.4593582  68.3785057  43.7861586
  78.2400942  99.6862125  65.4985809  78.7379265  99.8675919  66.2957573
  77.9661465  98.7735844  65.5897141  80.0692081  90.6564331  64.4011974
  79.3836355  91.3230324  64.4444847  80.8846951  91.1435509  64.5191717
  77.2387457  83.8384151  46.4094782  76.3962460  84.2764282  46.2887955
  77.2050381  83.4963036  47.3028183  76.7188072  63.9728069  40.5370569
  77.5809526  64.3246794  40.3154278  76.6588068  64.0670347  41.4877129
  70.6549120  78.3659649  14.7933125  70.4419184  77.7390671  15.4845893
  70.6572914  79.2160416  15.2333081  67.7397472   6.3640456  10.7712448
  66.9087154   6.6095214  10.3646064  68.4057576   6.7871909  10.2293873
  17.6909785  72.3391771  73.0729866  17.7513652  72.5311089  74.0087986
  18.5985331  72.2162104  72.7946568  67.8286028  66.9412756  22.0070553
  67.1522284  67.5533342  21.7170024  68.0776453  67.2540617  22.8767538
  75.3330278 110.6269455  36.0030222  76.2272167 110.4305649  36.2824678
  75.3635454 111.5436363  35.7291746  89.8345280  71.8134451  57.6596642
  89.8769951  71.5908670  56.7296696  90.0972652  72.7330780  57.6980782
  86.0938072  57.5100708  55.8001089  86.7302513  58.1863499  56.0320950
  85.6350231  57.3219776  56.6188622 101.3957119  91.8681622  60.9597445
 100.8356762  91.0943413  61.0212803 101.9332123  91.8383694  61.7512274
  90.8249569 100.9009838  55.6248569  89.9508095 100.6171703  55.8923483
  91.2993813 100.0872231  55.4547358  46.7221737  93.9789009  44.0766525
  46.9327593  93.4435654  43.3116007  45.8181286  93.7473297  44.2895079
  85.7145309  55.6240940  53.4690857  86.3283062  55.5843735  54.2025232
  84.8785686  55.8637190  53.8690519  52.3222923  81.7540550  16.9033444
  52.3943663  81.5254593  17.8300488  52.2404957  82.7077389  16.8975616
  94.0527916  30.1314044  58.4103870  94.2483234  29.2527056  58.0849791
  93.6149597  30.5659389  57.6784563  31.2131047  96.5397835  18.3737516
  30.5590320  97.0347500  17.8803599  31.7534494  97.2091198  18.7935698
  75.8148384  99.7626972  42.7623987  76.5244818  99.8562527  42.1268797
  76.1077738 100.2632046  43.5239220  83.5972309  87.1765232  35.4902005
  83.9127922  87.0382977  34.5971441  82.9523182  86.4824390  35.6264663
  64.9422264  87.2469425  35.5052304  64.9139881  88.0265808  34.9506044
  64.0949965  87.2390366  35.9506202  70.9744120  54.5226002  70.7576466
  71.2473822  55.3744793  71.0982752  71.7347479  53.9565802  70.8908463
  82.5214958  59.8425484  30.5319500  82.7634144  60.6694698  30.1149249
  81.6943932  59.5979500  30.1168680  58.3001518  84.4643402  31.2355733
  58.4535313  83.8639927  30.5059934  57.3473358  84.5395947  31.2875748
  70.6675529  82.0767593  70.0418377  70.5699301  81.5043640  69.2808676
  71.1520910  81.5498352  70.6772947  71.8707752  75.2682734  20.2429581
  70.9193563  75.3296185  20.1576805  72.1833706  75.1351738  19.3480825
  64.1642904  78.1181383  64.5602369  63.8142729  78.8446474  65.0758982
  64.2406511  77.3963976  65.1843262  82.9306221  46.6154099  54.3301535
  83.7913609  46.2055540  54.4160509  83.1185150  47.5488949  54.2324924
  82.5002861 105.8450317  21.5628743  81.6541386 106.0379124  21.9666910
  82.3291588 105.0932217  20.9956646  74.8890352 104.6010399  43.2328415
  74.1815615 105.1838589  42.9571152  75.2055645 104.2072773  42.4198246
  86.4127159  72.6442242  69.7264624  86.5343189  71.9965553  69.0322256
  87.1422100  73.2539749  69.6156216  94.3991947  80.2313423  36.7711616
  94.2723370  80.1789951  37.7184725  93.7871933  80.9092712  36.4846516
  99.7691631  85.5569458  22.6283979  99.8696232  84.7967625  22.0554566
  99.5714378  86.2805462  22.0338035 106.2609386 106.6560364   6.8398678
 106.4647579 106.8127346   5.9178412 105.8787155 105.7785892   6.8549019
  66.0351753  88.9088535  84.0697002  65.1538992  88.6765194  84.3622780
  66.5827847  88.7970257  84.8467827  69.4814634  73.9352274  64.8495102
  68.6818504  74.4530964  64.7564411  69.5893383  73.8289452  65.7946587
  67.2515583  97.2660828  44.9052668  67.0927525  98.2054424  44.8124838
  66.7700005  96.8689346  44.1795874  98.1814957  93.2189083  36.7174554
  97.7289772  94.0592766  36.7899227  98.4436607  93.0099583  37.6140261
  74.4638205  68.3066177  70.2285051  73.9090538  68.6807728  69.5440578
  74.5901346  67.3956585  69.9631071 101.2219906  37.1049476  69.7826147
 100.3116798  36.9206738  70.0141430 101.7333031  36.7118239  70.4898882
  89.0595436  90.2817726  47.7590656  89.8240376  90.3953648  48.3237553
  89.4258499  90.1236439  46.8889761  98.3745956  60.4474020  42.3424482
  98.0574036  60.5379581  43.2410145  97.9294586  61.1440372  41.8599701
  99.1558916  23.1201987  69.4587898  99.8883516  23.6290889  69.8063087
  98.3770925  23.5456805  69.8174953  80.0851631 101.3880634  73.5775661
  80.5924988 100.5788994  73.6416101  79.4162560 101.1998940  72.9192448
  57.3925877  79.1377020  29.1722870  56.7822361  78.4339046  28.9523482
  57.8104782  79.3609571  28.3405662  69.4427013  86.1211967  53.9077997
  69.6149588  85.1962471  54.0839481  69.8619604  86.5851498  54.6325064
   1.5120272  74.5858192  36.8153858   2.3637061  74.2516184  37.0968008
   1.5578513  74.5834970  35.8592868 115.0366974 102.1438503  44.9166584
 114.7665215 102.9269314  44.4370651 115.8179283 101.8382740  44.4556427
 106.4220697   6.3048320  43.0902147 106.4035446   5.3520064  43.1797028
 105.6203920   6.5160899  42.6117611  77.6666594  92.0969009  54.0157557
  77.2272348  91.8169403  54.8187256  78.5999346  92.0283222  54.2170620
  59.7635126  83.5810375  74.2618895  59.3140984  82.9625988  74.8378992
  60.6734657  83.5667992  74.5585537  88.7074661  94.0753746  58.2901478
  87.8339100  94.1466999  58.6749125  88.5577393  94.1213989  57.3458481
 109.4075966  43.8650131  88.7213326 109.9097919  43.3487034  88.0908966
 109.9626541  44.6224785  88.9067841   5.4430728  65.4827690  29.4699192
   5.9260421  64.6899557  29.7031903   6.0973506  66.0508442  29.0631700
  81.6765594  63.3306026  34.8071599  82.1512413  63.9865494  34.2966223
  81.3661480  62.6999903  34.1573906  97.5395584  79.3526030  32.6559401
  97.5166035  78.7367582  31.9235158  96.6660881  79.2965698  33.0434346
  48.1902456  72.6071978  63.3963394  47.6842499  73.0907393  62.7433586
  49.1033840  72.7629757  63.1552076  95.6386948  74.9525738  40.9088373
  96.2851620  74.3409014  40.5564642  94.9602413  74.9984312  40.2351618
  84.6826363  73.8893795  50.8967018  84.9791241  74.7882605  51.0393238
  83.8394451  73.8409758  51.3471508  38.6657524  77.3876381  69.6356010
  38.4696651  76.5325117  70.0184059  39.6194029  77.4006605  69.5542908
  68.4349823  72.0222998  49.7332144  68.1935549  72.6886320  49.0898275
  68.0637741  71.2103653  49.3879509  20.1152568  84.8900986  61.3040543
  20.6742625  84.2255783  60.9013557  20.4596286  85.7218838  60.9788275
  12.8752951  79.5025444  39.0943670  12.6276164  78.8471222  38.4422112
  12.9420428  80.3192997  38.5997081  72.8008461 109.8350143  89.1132545
  71.9821119 110.1552010  89.4919109  73.0076742 110.4646492  88.4225845
  38.2942026  30.1522253  91.3330588  38.9806574  30.7659243  91.5945837
  38.7672728  29.4088362  90.9591594  60.7784081  68.1661892  17.0069718
  60.3915548  67.3407793  16.7149520  61.6815901  67.9415178  17.2306168
 106.4881420  74.8762989  29.0390325 105.5766201  74.8527479  29.3302226
 106.9980240  74.7315884  29.8361015  85.4217720  62.4446487  49.3542051
  86.2136269  62.2828770  49.8670578  85.2046680  61.5934944  48.9739084
  33.7865281  66.1187077  67.1786690  33.2041883  65.6404877  67.7689409
  34.5289493  66.3714266  67.7274656  89.3475610  13.9189010  25.5740714
  89.9605161  14.0501552  26.2974596  89.8252804  13.3703666  24.9518752
  59.9083662  86.4812374  41.6021824  59.6825695  87.3937035  41.4214659
  60.8479023  86.4278030  41.4270973  70.4232836  76.6048956  56.1024857
  70.4529238  76.0223532  56.8614292  70.4217577  77.4859095  56.4767027
 102.2730732  97.7526188  75.8840418 102.6744938  98.5277176  76.2768841
 102.9715729  97.0981789  75.8779383  74.6731329  91.7116928  46.8099928
  75.1054430  92.4456024  46.3732910  75.1963329  91.5593910  47.5969505
  52.2109842  64.9877405  59.2436266  52.7506495  65.4982948  59.8472214
  52.2531796  64.0935135  59.5824623  71.9016790  72.8268290  48.3669567
  71.7241096  72.1817780  49.0515041  72.5422955  73.4208918  48.7580109
  87.1461105  70.1029158  49.2949677  87.0465946  69.5331621  48.5322714
  86.2948322  70.5307961  49.3870020  81.0252094  79.2133808  76.5691233
  80.8282471  78.4596634  77.1253109  81.4884567  78.8423300  75.8181524
  87.0884514  62.3060894  25.7928848  87.4266338  62.2234678  26.6845345
  86.4126682  61.6311598  25.7295346  80.7892036  91.7426968  44.4417763
  80.8655071  90.9274101  44.9374628  80.0091934  91.6216946  43.9003181
  55.5524826  77.3493767  56.9330692  55.1573133  76.6671896  56.3902140
  54.9800539  77.4083471  57.6979780 114.4636917  73.8713026  46.8849516
 113.7066555  73.7490940  46.3120651 114.2626572  74.6645164  47.3815775
  76.7288351  82.4313736  20.7609367  75.8686733  82.6332188  20.3926802
  77.1100378  81.8023777  20.1483345  75.6998587  87.6117897  35.3764534
  75.4985094  88.4622478  35.7668591  76.6552973  87.5581741  35.3987741
  93.5184669  99.3127251  47.4352264  93.6017990 100.2481174  47.6205206
  93.6245155  98.8894176  48.2871628  38.6821526  39.9234063   4.4500038
  39.3419426  39.4005353   3.9944527  37.8462618  39.5991666   4.1147491
  95.7273674 106.5780926  67.9537106  95.0629425 106.0996532  67.4578476
  95.2328491 107.2320366  68.4477139  71.1580610  82.7103901  80.8292675
  71.8002844  83.3701324  81.0910511  71.4074278  82.4747276  79.9356699
 105.8201248   1.0720687  67.7820301 105.5443365   0.8143573  68.6616659
 105.3461344   1.8859344  67.6112318  77.0506096  84.2461681  68.7434530
  76.9775057  84.4171238  67.8044844  77.0714617  83.2916737  68.8122129
  67.8466940  92.3975945  21.0362983  67.2190094  91.8023300  21.4460635
  68.3629417  92.7405167  21.7657661  75.2309656  73.4592390  82.3260117
  75.2038527  73.9426517  83.1517315  74.3844652  73.0146837  82.2808361
  20.0663523  69.5504999  56.6361284  20.8822398  69.8835278  57.0098257
  19.3862586  69.8527956  57.2380638  87.4795341  73.7073040  48.6109972
  86.7880249  74.3672132  48.5603142  87.6709843  73.4904337  47.6985598
  81.8099403  96.2541962  17.7852559  81.8041039  95.8851624  16.9020700
  82.7055264  96.5692616  17.9072738 107.8872395 104.5561600  73.7184000
 107.9875374 105.3670788  73.2198191 107.4177933 103.9678764  73.1269836
   4.4890361 106.0769272  50.2108288   4.4584517 105.2193737  49.7866774
   5.4216532 106.2868786  50.2596235  71.8926668  53.9307880  20.8792186
  72.7525234  53.5427284  20.7170749  71.6341877  54.3014193  20.0353861
  26.6487091  60.7358836  89.4630083  25.7851380  61.1366652  89.3638047
  26.4686983  59.8614119  89.8081627  77.6425838  84.3779564  72.5537872
  77.5754213  85.3115749  72.3536301  76.9154835  83.9778423  72.0768547
 101.3642311 108.5620499  47.6907206 100.8295727 108.7243462  46.9135237
 101.0600567 109.2067146  48.3295727  47.6935786  47.6880453  67.1693995
  47.4069041  46.8234061  67.4634150  47.2159498  47.8338717  66.3527992
  90.3666878 109.7605896  59.7576094  90.8866692 109.0210152  59.4431639
  90.7139111 109.9435043  60.6306553  93.5633087  98.7066364  70.0350714
  94.0868282  97.9221439  70.1985836  93.8496304  99.3292427  70.7033587
  17.2434556   1.6998534  76.6669703  17.9530465   2.3320155  76.5525675
  16.5332829   2.2058063  77.0618153  85.9160042  86.5737438  83.8352394
  86.0408211  87.1703529  84.5732784  85.8984184  87.1439648  83.0666256
 114.1806316  75.7090998  16.3787854 114.2057514  76.4049435  15.7219708
 113.8655949  76.1406565  17.1729803   7.2959076   6.8504481  36.0282755
   7.8760945   7.2537189  36.6740179   7.8778016   6.3267570  35.4774714
  64.6210879  32.6770781  87.7470401  65.1113623  33.4990309  87.7311608
  64.2805403  32.6185320  88.6396947 116.9935543   2.7021937  47.5794888
 116.7877323   3.0717521  48.4381485 116.8732816   1.7589908  47.6896048
   1.6217839   6.1151748  41.0711813   1.4799344   6.5533691  40.2320766
   0.9500109   6.4789348  41.6479254 109.4141769  78.2452917  48.5989523
 108.9703751  78.7931585  49.2463398 108.8867855  78.3372450  47.8054571
 104.5628912   0.1242690  65.2601480 104.3430549   1.0478931  65.1383781
 105.0314552   0.0975566  66.0943937  96.3647777   6.4251857  41.9182301
  95.4818374   6.4242797  42.2878885  96.9433862   6.3904624  42.6799631
  24.6423089   3.8412719  42.2275209  24.0989338   4.6285014  42.2628975
  25.2838360   4.0237002  41.5409470  29.9573456   0.8371787  66.9246531
  30.2950512   1.4597945  66.2808037  29.4841134   0.1877647  66.4045238
  78.6007595 108.1322098  65.4322386  78.5957956 107.2953892  65.8969307
  79.2872095 108.0355740  64.7721767  70.8906460  96.6168499  37.7074790
  70.7729292  97.5318623  37.9626560  70.5516434  96.1158085  38.4492803
   4.5460467 111.2866497  36.2688351   3.7486319 111.1401558  36.7776465
   4.2850928 111.9065189  35.5877376   8.2330834   3.6736827  53.9717102
   9.1062771   3.2867198  54.0350866   8.3434712   4.4184356  53.3806181
  72.8502560  98.9238453  45.7004213  72.0709085  98.8698673  46.2535381
  73.4526062  99.4845104  46.1893702  19.2667233  21.9793563  81.1923313
  19.8659836  22.6368003  80.8389473  18.9040028  21.5459876  80.4197693
  98.7942886 106.6005802  26.2018180  98.2335091 106.4243603  25.4463625
  98.7134743 105.8184624  26.7477083 115.5327511  54.1624117  84.9320412
 115.0856590  54.4219255  85.7376385 116.2164307  54.8219395  84.8144245
  98.6993885  80.9419823  74.4149828  98.2600021  80.2461910  74.9039078
  98.3080196  80.9053326  73.5422134  89.8224831  78.8013411  56.2838936
  89.5536327  78.1592751  55.6268549  90.1084328  78.2748032  57.0303631
  16.3355576   6.2489276  51.8491077  16.2898385   5.4368453  51.3444567
  15.8709466   6.8909793  51.3123178  90.1454765  31.2205176  52.4355793
  90.4062063  30.4735808  52.9744101  89.3515617  30.9275966  51.9882154
  97.0549870  96.7448902  56.7479134  97.6771164  97.2710705  56.2455940
  97.5465393  96.4652443  57.5201845  73.1442833  81.1416245  65.1665258
  73.9831448  81.1617565  64.7059345  73.3353949  80.6981087  65.9929609
 107.4827797  12.1664863  39.3302894 106.9525987  11.8590694  40.0655699
 108.2368452  11.5770774  39.3157887  19.2078148  17.3805385  52.4418020
  18.4688508  17.5873427  53.0139875  19.7223031  16.7424827  52.9361963
  93.0488300  71.2491798  50.5458450  93.7157154  71.4217377  51.2104654
  93.2055759  71.9105864  49.8718977  72.3701620  83.7273979  32.8384805
  72.2428131  84.3116856  33.5858917  72.8950739  83.0059433  33.1851768
  89.5407677  90.4451275  21.6489291  90.3941631  90.4982185  21.2186623
  89.4877148  89.5432663  21.9652605 113.7578136   1.2205176  34.2592573
 113.1767780   0.4947810  34.0313411 113.2770950   1.7121654  34.9251533
  73.8310146  85.7561016  16.8614161  73.0276346  85.7231712  17.3807740
  73.5327435  85.9372330  15.9700918 100.8797359  84.8254108  68.2012224
 101.4531136  84.0972042  67.9620790 101.2512684  85.1654720  69.0151978
  89.7670299  11.6978698  71.6005898  90.2181799  11.8248420  72.4351978
  89.4216472  12.5631480  71.3809586 101.1385059  93.3442688   7.6115680
 101.4381599  92.4353600   7.5934923 101.2384224  93.6112690   8.5253286
   5.1399474 100.7945538  43.5623264   4.3149142 101.1369324  43.2183504
   4.9225383 100.4841042  44.4412947  99.2680645  85.2006340  41.5535307
  98.3472824  85.2538300  41.2974548  99.3555069  84.3359947  41.9547653
 112.3008442  96.4014339  61.0631275 112.0825958  96.0502720  61.9264221
 111.9730473  97.3005867  61.0804462  95.1192075   0.2928691  58.3430004
  95.5719167  -0.4705281  57.9845047  95.0886566   0.9159808  57.6170349
  31.3609063  11.0054736  54.1725349  32.0279919  10.3370528  54.0161991
  30.5313241  10.5619102  53.9956474  32.6516503  13.8246590   2.0186207
  32.5074785  14.5746476   1.4415905  31.8583554  13.7769563   2.5521347
  83.0936813  67.6842976  76.2642479  83.6672020  66.9253874  76.1577082
  83.2020473  67.9396820  77.1803665  60.5782080 103.7696171  38.8288999
  60.3404331 103.2836628  38.0392528  60.4240608 103.1533432  39.5449114
  85.9064102 106.9080639  44.2336702  86.4351463 107.0732689  45.0142956
  86.5435028 106.6795921  43.5568094  -0.1062692   0.5207114  25.3172708
   0.0327956  -0.4054208  25.1193786   0.5691849   0.9769206  24.8154020
  78.5212755  90.8242035  89.1390610  77.7106905  90.6601620  89.6210098
  79.1353703  90.1706696  89.4737625 112.6515007  85.8646297  57.0603037
 111.9967747  86.4749527  56.7210770 112.8221226  86.1676884  57.9520845
  43.5708367   0.9770160  28.6035442  42.9795968   1.5503554  28.1157446
  43.7796151   1.4683871  29.3980217 116.8365574  84.6353912  11.6981292
 116.1025715  85.0437927  11.2391114 116.4711380  84.3635178  12.5400221
  94.2889118  92.7366066  18.9936125  93.9011955  92.1238995  18.3687198
  95.0771427  93.0582714  18.5560393  97.2963333  73.5376549  32.8606534
  97.3880291  72.7813816  32.2811079  97.5761986  74.2824888  32.3285508
  74.0950155  60.6210518  45.9094906  73.3738804  60.9313250  46.4571428
  74.0987730  59.6719313  46.0335398 106.9820976  91.3031483  50.7230139
 107.4453259  90.4926872  50.9346914 106.0624981  91.1073017  50.9024954
  31.2451111  22.6430946  24.6811938  30.7950818  21.8483787  24.3946123
  31.5200364  23.0687385  23.8691115   5.8517872   6.7957835  51.2422037
   5.9428441   7.1708064  52.1181583   5.1872479   7.3381095  50.8173656
 105.7168102  97.1245384  28.8451767 106.1182308  97.6256275  29.5551109
 106.4571857  96.7491055  28.3685994 104.9442291  86.6057873   8.5760081
 104.3884754  86.2253189   7.8958493 105.0329018  87.5255299   8.3261371
  82.5277233  64.2956877  40.9218168  81.7821598  64.6089888  41.4338827
  82.2559261  64.4063044  40.0107050 109.3534470  87.0324230  66.7862844
 109.1949177  86.3383961  67.4261475 110.2564144  87.3057175  66.9481373
  75.8801174  94.4038010  50.7852936  76.1722279  95.2873898  50.5613041
  75.6359529  94.4592571  51.7091656  36.4611184  28.6602836  30.6253409
  37.1692311  29.2929416  30.7460403  36.9048535  27.8474288  30.3832984
 113.8912010 103.2546329  58.4247303 114.3954086 103.8140297  59.0155697
 114.5472336 102.7015972  58.0004644   6.8698250   7.7465205  21.3914156
   6.1639248   7.9061561  20.7649541   6.6961800   8.3564048  22.1084428
  27.0311104   0.3263621  42.8857279  26.7103802   0.8134132  43.6447716
  27.9509770   0.5799251  42.8096724  82.1184921  99.0936565  29.5529914
  81.6126537  98.3544445  29.2154598  82.7325058  98.7004566  30.1731658
  85.4723930  95.0905991  76.5017319  86.2624741  95.1195145  75.9621382
  84.7589397  95.2790165  75.8920479  86.0246468 110.9358788  42.8825760
  86.4475918 111.7921543  42.9469585  86.1560631 110.5384922  43.7434149
   2.8676657  77.4706793  37.7213216   2.1394973  77.9850912  38.0697203
   3.0964999  76.8690825  38.4298062  81.5083504 104.0749168  74.6814394
  82.3927307 103.7107944  74.7204781  80.9992695 103.5326862  75.2839851
  94.0879631  82.9773808  29.8299861  93.4327221  83.5200882  30.2685761
  94.0728855  82.1491528  30.3096056 100.6435966 109.5243835  53.9127016
 100.7472515 108.7153721  53.4117126  99.7046185 109.5771122  54.0909147
  66.3241053 101.5365410  59.7836065  67.1883202 101.2692547  59.4706821
  65.7987833 101.6265965  58.9885235  99.1685963  98.8378525  81.6164875
  99.6577358  98.0230141  81.7305279  99.8120689  99.5279980  81.7773151
 116.8211872   1.7634730  65.4608917 116.8903429   0.9243446  65.9162188
 115.9917194   1.7106872  64.9860954  83.3187467   4.7725062  26.8698049
  83.4515650   5.2148109  27.7082300  83.6849720   3.8977485  26.9998169
  65.8250046  97.2334671  36.8657255  65.6642914  98.0681801  37.3057938
  65.5361271  97.3782158  35.9647083 108.6856777  10.4103713  61.3103342
 108.7812359  11.3083892  61.6275930 108.0328399  10.4709201  60.6129360
  86.5950298  85.1584625  39.9933076  86.4881706  85.4330540  39.0825868
  85.9183311  84.4942379  40.1241684  33.1878619  87.6811600  56.5415001
  32.3606257  88.0783749  56.8137598  33.7574820  87.7662468  57.3060417
  95.7243061  86.2992191  80.5899906  95.8568001  86.5435696  81.5059376
  95.9940147  87.0724487  80.0943947 101.0089094  54.1054969  71.5456676
 101.2419969  54.1673713  72.4719906 100.3310663  54.7703605  71.4243221
  82.1718788  73.9888000  51.6339874  81.4063072  73.6322451  51.1834240
  81.8315792  74.3047810  52.4709940  13.2286696  93.8543701  29.1564918
  14.0557914  93.3737659  29.1899276  13.1044822  94.1796970  30.0481009
  86.0645390 103.2906818  47.9577589  85.9801483 104.1549683  48.3603859
  85.5855274 102.7053547  48.5444260  23.2088315  12.4488788  71.6009045
  22.7370202  11.8173556  72.1438694  23.0608593  13.2915359  72.0301628
  99.1905481   7.2855430  56.9906139  99.5075208   8.0339675  57.4962091
  98.7624771   6.7239623  57.6368332  91.6884518  96.8216324  44.9205542
  92.4350643  96.7624092  44.3244934  92.0029831  96.4346886  45.7376051
 109.0851498 107.0931053  21.5014720 108.9828014 107.1037102  22.4531245
 109.6721077 106.3562489  21.3319016  90.7760620  90.4682350  56.7238617
  91.5613937  90.4704762  56.1766195  90.9484959  91.1306477  57.3929739
  35.1377141   3.8123374  49.7629690  34.4279992   3.5926013  50.3664970
  35.7207905   4.3742709  50.2733517  77.0605135 107.7211571  47.7658844
  76.9306087 106.7957020  47.5587654  77.8576040 107.7384472  48.2955790
 116.1826689   9.2829661  43.4648752 116.3288480  10.1753383  43.1509686
 116.9035703   9.1221290  44.0736914  63.8010042  79.5185048   1.2997601
  62.8552836  79.6637589   1.2725994  64.1407221  80.2487237   1.8170616
  88.1295872  87.3572540  40.7068539  87.9464626  87.8871632  41.4826727
  87.6755524  86.5303326  40.8689880  86.4779091  93.9568138  59.8404026
  87.1568584  94.2492294  60.4484701  85.7462311  93.7024021  60.4026890
 107.4410564   0.2379470  62.3842287 108.0632526   0.8770042  62.0367956
 107.9812032  -0.5131097  62.6299715   6.5226798  91.8350124  59.6697235
   5.9340434  91.6384983  60.3984976   6.7964415  92.7398014  59.8202372
  76.1336136  97.5988579  61.5627146  76.8043756  97.5184727  60.8845949
  75.9010506  96.6956043  61.7778301 110.8195591  83.5076237  64.9136448
 110.8107662  82.9674435  65.7038116 110.2083111  84.2194080  65.1033020
 102.2661781  83.3018398  64.4100666 101.3350010  83.3228588  64.6307707
 102.2896481  83.4134579  63.4596872  25.9180485   3.6741119  57.4815559
  26.2086331   2.7778487  57.3127174  25.9947049   3.7760501  58.4302187
  97.2761440  93.2883167  25.8893394  97.0249844  92.4448776  25.5128264
  98.1013870  93.1126118  26.3413548  32.2362362  10.3803496  28.4978271
  32.1808850   9.8181968  27.7250743  33.0108010  10.0685363  28.9658618
  93.2210732  67.9086208  65.4973125  93.8412762  68.2980394  64.8809195
  93.5039520  66.9977760  65.5784273  78.4280205  77.6496553  45.8413649
  79.3183041  77.8916931  46.0963917  78.4672022  77.5617599  44.8890162
  76.9082594  55.6889486  42.2574472  75.9675932  55.7389641  42.0874977
  77.1730900  54.8447514  41.8921709  87.1661377  88.3024216  48.1754446
  87.6639938  87.4907207  48.2729578  87.8284931  88.9932251  48.1929398
  88.7010765  58.4864807  48.1942368  87.9306126  58.0704069  48.5808945
  88.7664223  59.3309164  48.6402035 111.7005348 105.7875061  51.2020969
 112.0794487 104.9955940  50.8206177 112.4507999 106.2662792  51.5544033
 106.4723206 101.3628864  56.0618544 106.5257454 101.2456131  57.0103407
 107.1609211 101.9962788  55.8596706 101.0019493 109.5303631  50.1364660
 100.2491474 108.9402390  50.1721668 100.8066177 110.2072525  50.7844639
  86.0654831  81.4617348  14.7837317  85.5520058  81.4484406  13.9760220
  86.9714165  81.3557816  14.4933951  47.8080320 110.1283169  39.8432803
  48.2620859 109.9197960  40.6597281  48.2189274 109.5626545  39.1895008
   1.7447905 101.0350990  61.1766052   1.5202002 101.2411308  60.2692223
   0.9110980 101.0767460  61.6450739  22.9851406  46.4170264  82.5727454
  23.0601137  47.2870348  82.9647854  22.8283518  45.8327578  83.3145490
 116.9481754  65.7442999  59.1669512 117.2531033  66.6498232  59.1096306
 116.9519615  65.5491638  60.1040411  21.7725598   1.4768367  62.8635073
  21.1622941   0.8322768  63.2217693  21.9291722   1.1850600  61.9654131
  24.0269375 100.1242638  39.6491313  23.6197186  99.6957397  38.8962889
  24.4509172 100.9002399  39.2826247  39.8115384  25.9114223  22.7972150
  39.4662510  25.6310706  21.9496250  40.7462727  26.0471873  22.6420116
  88.0633640  86.6537285  69.8645210  87.4217224  87.3235130  69.6280527
  88.8072014  87.1464252  70.2112198  19.5609223   2.7302795  76.3571024
  20.3844391   2.2768550  76.1769295  19.3287884   3.1445365  75.5259943
  58.4037828 109.1838074  35.8795524  59.1875458 108.6619759  35.7074046
  57.6856136 108.5513306  35.8588529  99.5241165  97.2220707  38.6057806
  99.7424889  98.1532097  38.6448812 100.2039528  96.7945576  39.1266394
 107.4673397  12.2496848  66.2508535 107.1714861  11.9704299  67.1172953
 107.9868585  11.5140491  65.9265566   3.6322056  44.6065097  82.0311165
   3.1449162  44.6858745  82.8511715   3.7668072  45.5097060  81.7441273
   5.1693587 103.8077259  52.7103233   5.8371691 103.7586594  52.0263243
   5.3534465 104.6289444  53.1663227  42.0356386  41.9286631  92.9842955
  42.0241469  41.2723444  92.2876268  42.5579470  42.6472281  92.6278126
  74.7964334  89.3981075  50.4526663  75.1334047  89.0608501  49.6226406
  75.4517794  90.0357246  50.7358599  58.7039328 110.2768517  45.4230595
  59.3315840 110.9768677  45.2434301  58.0070734 110.4092312  44.7803354
  76.4262915 104.6651936  47.8457260  75.4701471 104.6478462  47.8042364
  76.7089462 104.3799686  46.9768286  12.2223507   8.3340793  66.6011477
  12.2229706   8.5279231  67.5385141  11.7349183   9.0576034  66.2072611
  83.2136250  90.4845810  58.1567383  83.0188274  91.1273384  58.8387632
  83.5124874  91.0077190  57.4129343   6.4573626  96.5169239  45.1613426
   6.8718581  97.2859573  44.7701693   5.5190902  96.7001915  45.1135015
  72.7491999 103.4056187  22.4791360  71.9554138 103.7133789  22.0416284
  72.6706934 102.4516487  22.4745297 109.6087551 111.0009193  13.0438185
 110.0888062 110.8176136  13.8513947 110.2894020 111.1948681  12.3993504
  51.6713953  98.9882755  55.0329685  51.6032791  98.1972980  54.4982290
  51.8460703  99.6883202  54.4039536  78.1306124  93.0111885  39.0867472
  78.4698200  93.7972546  38.6586499  78.7889290  92.7951336  39.7471857
 110.5185890 110.9808445  30.8134127 110.3845882 111.8567944  30.4514933
 110.6367874 110.4203415  30.0465345 115.8882332  69.0648842  36.8453693
 116.0657692  68.7400389  37.7280855 115.0507641  69.5219946  36.9222999
  73.6973763  94.6557426  40.4668760  74.3553543  94.7975826  39.7863030
  73.9408875  93.8200188  40.8649921   2.0759427   8.6943774  31.5036774
   2.5886857   8.1042438  32.0559907   1.9770562   9.4884925  32.0288825
  89.7489738 106.4812946  70.4807520  89.4334030 107.2096539  71.0156775
  90.7014465 106.5135574  70.5701447   4.1252457   2.5996928  25.7285023
   3.4311234   2.0578246  26.1037374   4.8924386   2.0275741  25.7105160
 108.0709297  11.9372325  71.2931967 107.3330528  12.1436267  71.8669319
 108.8173420  11.8477874  71.8857288 100.5174732  45.0770235  32.9050159
 101.1515427  45.6744623  33.3015656 100.9683704  44.7237635  32.1381187
  94.0362055  26.0957484  57.4881649  93.6468584  26.7115455  58.1090021
  94.9606353  26.3417869  57.4545956  86.0556602 102.3768139  35.0736332
  85.4507256 102.2143173  34.3498445  85.5467129 102.8911018  35.7003021
  31.9325768  39.0794425  62.1664238  31.4475667  39.8901515  62.0122957
  31.2914788  38.3846240  62.0166159 102.2749424 102.7592182  49.0928078
 101.4517498 102.5830078  48.6372375 102.5199699 103.6409664  48.8122511
  48.6019373  97.0626831  19.3850267  49.5543861  96.9922733  19.4491684
  48.4558010  97.7763462  18.7641001  34.4131791   1.5211444  12.9384947
  35.2258622   1.4140563  13.4327781  33.7956273   1.8900733  13.5699630
  55.1676226  88.5618401  61.0153627  54.4271231  88.3977032  61.5992737
  55.3306007  89.5018101  61.0936356  84.7022343  85.5170441  70.3874493
  84.6255302  85.7431793  69.4605160  83.8835526  85.8236313  70.7773256
  22.3065602   7.9085307  52.5826073  22.8775631   7.6003509  51.8789005
  21.4796959   8.1152110  52.1469450  99.9852657  99.0726566  70.3212690
 100.9037876  98.8055897  70.2863932  99.8336506  99.2895412  71.2411642
  69.7943544  97.2073746  59.3154669  69.4950485  97.0909977  58.4137440
  69.0228558  97.0195961  59.8500347  83.6886692  86.5097237  47.9606915
  83.3605766  86.0508919  48.7340355  84.2298603  87.2162628  48.3130264
  11.4738213  17.5842815  48.7458611  11.4741265  17.5767951  47.7886915
  11.3715397  18.5072188  48.9781332  93.8777637 104.8283672  36.7678952
  92.9465675 104.9323368  36.5721893  94.0438271 105.4479408  37.4783754
  94.9419022  99.9238110  26.4871311  95.0302219  99.2793369  25.7849336
  95.8394718 100.1989269  26.6740036 108.7599850  62.0235395  43.0851555
 109.5693874  62.2601223  42.6322508 108.7948132  62.5109482  43.9082241
  99.4585800  91.2335777  21.5007520  99.0107346  92.0793533  21.4826655
  98.7541485  90.5913734  21.5878582  22.9398476   7.0769649  46.8193579
  23.6165749   6.4467769  46.5721226  23.1567704   7.8675513  46.3252401
  33.5429894   5.6020789  44.0762901  32.7947842   5.0055080  44.0534449
  33.5692250   5.9188991  44.9791574 101.7470360  94.3994617  63.0492115
 102.2214603  93.5770798  63.1709957 102.4327755  95.0639915  62.9827785
  17.1471553  86.5393925  39.3694139  17.3935656  85.6853580  39.0142560
  17.5649981  86.5705013  40.2300358 108.9327908  96.7791939  60.7587147
 108.9392471  97.3300457  61.5415049 108.6578369  97.3666096  60.0547457
  88.8850212  86.2160301  48.3894587  89.8302174  86.1432934  48.2569695
  88.7036133  85.6474686  49.1378307   4.0174727  73.8492680  49.8785543
   3.6474471  72.9817200  49.7152424   3.3392672  74.3097830  50.3727150
  25.7052075   6.8066363  32.3469329  26.0732209   7.1766620  31.5445113
  25.4189908   7.5675349  32.8522515  76.6857052  94.2509747  58.5875082
  77.3482609  94.8304844  58.9635658  76.8217182  94.3133736  57.6420736
  51.7605972  86.6954136  65.3112221  50.9331846  86.4620781  64.8902941
  52.2847748  85.8956146  65.2688694  62.1851349  99.8059177  42.0599794
  61.9797802  99.0246010  42.5733995  62.8063250 100.2922726  42.6020288
  37.6717698  54.3855529  28.6896467  36.8699681  54.8208099  28.9792633
  37.3929535  53.4998374  28.4572697  66.3727474  74.7326374  53.6647129
  66.9423771  74.0676451  53.2780075  66.6639900  74.7980022  54.5741796
  60.2013969 102.7607536  15.4394662  60.8892298 103.3724689  15.7020020
  60.6293917 102.1711636  14.8186326  95.0429535 107.1661186  47.8139353
  94.3074703 106.9426060  47.2435617  95.0924397 108.1213570  47.7777338
  94.5113277  80.0474644  39.4092512  95.3175831  80.2964592  39.8611259
  93.9051247  79.8138762  40.1122332  89.0187645  80.2851391  77.3096037
  88.6984730  79.7233582  76.6038752  89.8736954  79.9197912  77.5372887
 106.5327644  92.0326519  55.9852076 107.1838188  91.8840408  56.6709661
 105.7148647  91.7007256  56.3554764 106.2542725 105.3432274  41.7998457
 106.3474369 105.7174301  42.6759243 106.0241699 104.4269657  41.9539928
  65.0604200  77.8794622  19.0622973  65.1150703  77.0427608  19.5240033
  65.9198952  78.2806540  19.1910529  56.7987156 110.7819176  67.8296566
  55.9775543 111.2435055  67.9995155  57.1593618 111.2121201  67.0543575
  40.1092087  23.3514648  80.0950718  40.1522385  22.3965221  80.0454044
  39.2050396  23.5628944  79.8626804  58.9555883 104.0326977  45.8321333
  59.3045712 104.3708801  45.0074673  58.9421606 104.7914028  46.4155912
  85.4611492  89.3833351  23.0666471  85.0938225  89.4995785  23.9428830
  84.9986839  90.0238228  22.5261617  92.9135704  47.0169830  38.4319949
  93.3643436  46.6019917  39.1673970  92.9743195  46.3776398  37.7222204
  26.7365967   7.8400760  69.2481136  27.5551449   8.2324462  68.9443684
  26.1255299   8.5746436  69.3050575  70.1678991  74.4998503  87.3613739
  70.0468159  75.4491568  87.3417091  69.9671745  74.2514324  88.2637215
  98.8855362 108.9516163  17.2780979  99.7629738 109.1108990  16.9302988
  99.0273094 108.3816338  18.0339110  82.7437431  18.5472446  54.5812416
  82.2320205  18.6783176  55.3794813  83.1939394  17.7139144  54.7194719
  97.4015427  61.5619612  53.6841917  97.4756336  62.4457693  53.3241558
  98.1907463  61.4524984  54.2146683  21.6491942 100.6726456  50.0854826
  20.8649497 100.7358837  50.6306362  21.7808490 101.5599346  49.7513962
   0.5747830  28.6754756  47.3658419  -0.2820838  28.7255721  47.7895164
   0.9306036  27.8315787  47.6441431  46.1658417   9.6027331  77.1814346
  46.6040646  10.3525882  76.7790413  46.3445031   9.6947913  78.1172991
 111.5958214  93.4003067  50.3415442 110.9846973  93.4811974  49.6092796
 111.4872646  94.2132664  50.8350372  79.9735403  69.5091820  69.5472956
  79.0616989  69.6993494  69.7677851  80.0442028  68.5574150  69.6206141
  21.7073571  29.4723945  86.5184307  21.0252797  30.0886207  86.7853832
  22.1810376  29.9265247  85.8215714   2.8486972  72.2299147  53.3277225
   2.5867133  72.9579687  52.7642250   3.6190276  72.5536108  53.7946606
  21.1313872 105.6079483  62.3612928  20.9087519 106.2693310  63.0164528
  21.5118174 104.8892212  62.8662014  94.7317535  15.2243381  34.0341091
  94.1411764  15.8651977  34.4300270  94.1949302  14.7753291  33.3810806
  82.7445030  60.1545668  37.5321960  81.8586826  60.5170727  37.5202346
  82.7468204  59.5523310  38.2761979  97.2021961  95.3960037  94.6951294
  96.2845802  95.5876160  94.5014954  97.3275185  94.4959068  94.3945503
  59.5513916 107.2992325  41.8768692  59.1701651 108.1585407  42.0571041
  59.7337675 107.3104286  40.9372711  92.8677082  77.4272060  42.3805761
  93.7096691  77.8821468  42.3617363  92.2244167  78.1200171  42.5303268
  39.6671360  61.6550023   0.5875084  39.3080872  61.3303334   1.4132759
  39.4147795  62.5780064   0.5630467  80.6102848 110.8067799  43.9063692
  80.8142185 110.3543282  44.7248650  81.1728287 110.3882504  43.2547474
  11.6895138  34.0488963  63.2264757  11.2259709  33.2114368  63.2302141
  11.2261902  34.5819907  63.8725233  33.1377446  14.9180369  36.6457844
  33.1743847  15.8668571  36.7667365  34.0513550  14.6554332  36.5335941
  24.8698079  26.6538959  75.1835346  25.5792462  27.2834640  75.3122568
  25.2158867  26.0303073  74.5450974  26.6581570  19.2110973  21.2341619
  26.9979035  19.5729499  22.0526171  25.7899033  19.6031432  21.1411309
  87.6589012 101.6273785  42.0026112  87.2575665 102.0404148  41.2380409
  87.5582790 100.6881428  41.8478870  96.9081688  88.2732105  71.1727953
  97.6139545  87.6704788  70.9386826  97.3490906  89.1074944  71.3334084
 106.9712543  79.9809027  28.5054517 106.4993191  79.5167542  29.1968799
 106.5236187  79.7274828  27.6982164 106.5451652   9.6898704  16.7366338
 105.7669574  10.2168326  16.5551686 106.8428022   9.3976741  15.8750856
  10.5358635  25.3820663  28.9663553  11.4709794  25.5864768  28.9662242
  10.2479683  25.5781036  29.8579407  83.7107754 108.0047321  57.1559525
  84.1491413 108.6893845  57.6612425  84.1608429 108.0051804  56.3111639
 114.6267414  76.4846706  21.5952778 114.9408054  77.3880529  21.5566683
 115.3431129  75.9993362  22.0045447 106.3696510  17.3340850  68.5747051
 106.5753967  18.2053619  68.2359362 105.5434162  17.4486117  69.0442276
  19.0652215  29.3628078  42.9907990  18.9194809  28.4583812  42.7132893
  19.9680077  29.5497851  42.7334309  77.3526621  94.1462708  77.9380083
  77.2442150  93.5340595  78.6657906  78.1147480  93.8182640  77.4606419
  67.3649216  86.1857414  69.4420290  66.5948915  85.8979797  69.9324226
  67.1075392  87.0264912  69.0637207  12.2043931  36.7808299  43.0398273
  12.7877747  36.0222392  43.0188370  12.2852074  37.1693092  42.1687460
  73.8136339  97.7935219  43.6086464  74.4083786  98.4657383  43.2760239
  73.4048939  98.1938267  44.3760586  26.2265717  11.6177993  51.8096161
  25.7234227  10.8210712  51.6414261  25.5887543  12.3263984  51.7241049
 106.5138912  99.5000839  54.1064930 106.4389420  99.9700451  53.2759762
 106.5930080 100.1896763  54.7656107 112.1393329  27.2525172  50.0670004
 111.3798219  26.8570476  50.4947567 111.7734653  27.9584651  49.5340729
  21.5310799  20.9411674  35.0500774  21.1446702  20.1388412  34.6991014
  21.1257683  21.0455470  35.9109235  12.4073063  25.5325847  41.8256378
  13.2543503  25.1853900  41.5460110  12.3911892  26.4272838  41.4858150
  21.2467515  23.1497340  63.7684727  20.4131257  22.7230983  63.9666843
  21.1962162  23.3518081  62.8342104 109.9462015  18.2562785  36.4430857
 110.8647281  18.1095080  36.6689110 109.6549684  17.4236827  36.0713291
 114.0787792 103.0030632  25.0560331 113.4461212 102.2885323  24.9824786
 114.9201965 102.5655556  25.1858115  20.8674084  10.7061343  26.9121599
  20.9339272  11.0200839  27.8139567  20.1027714  11.1590819  26.5566397
  63.1507635 110.8785343  76.3550234  63.7043571 110.1051712  76.2469912
  62.3319483 110.5384636  76.7157507 113.4755499  40.3128772  41.8365192
 113.6484224  40.1902061  42.7699518 112.8042347  40.9944587  41.8048096
 115.5000955   5.4311900  37.3072433 115.1410038   5.3782420  38.1929517
 116.3715059   5.8095698  37.4243140  85.4151630 104.1191864  79.1671181
  85.4000568 104.8268223  79.8115158  86.3440704 103.9885044  78.9766169
   1.4165913  36.1036449  60.2963448   2.2095238  35.5675464  60.2868795
   0.7601630  35.5682616  59.8505974 116.5148640  97.2188187  60.8589411
 116.2280178  97.6962376  61.6374159 116.8149281  97.9000759  60.2572060
  98.6081505  79.7533226  50.4424047  99.1951752  79.9344730  49.7083616
  98.2878399  80.6143951  50.7110739  94.6241093  98.3136654  17.7303469
  94.5943165  97.3833275  17.5071502  95.0283527  98.7298012  16.9690013
  13.9961772  72.8850508  67.4380302  13.2081084  72.7816153  66.9046545
  13.6687426  72.9893398  68.3314180  18.8013302   9.9636989  75.3617430
  19.1196953   9.8962550  76.2619257  18.8231884   9.0653472  75.0320148
 103.9314634  43.8637118  62.9852629 104.4667703  44.0691047  63.7517452
 103.0325586  43.8627296  63.3142090 111.3977909 110.5194283  45.4763126
 112.2031403 110.7786274  45.0285959 111.2422276 111.2173748  46.1126328
 106.8617153  94.0744591  54.3824291 107.3326206  93.6919117  53.6420679
 106.7912769  93.3605576  55.0161648  94.5519352  82.6970482  51.2321138
  93.6295223  82.9521561  51.2145042  94.5622635  81.8107891  50.8706474
  21.6555344   9.2377143  43.3061600  22.3265397   8.6317592  43.6205006
  21.3443791   9.6809440  44.0954351   2.3961102   8.0006652  21.6616249
   1.9260251   8.7527137  22.0217347   1.7105328   7.4443488  21.2918448
 112.2045422 103.1078339  55.3057003 111.8968582 102.3460770  54.8144770
 112.2198772 102.8150177  56.2168837 106.6034126  95.1713181  40.5374289
 107.1224117  95.9749985  40.5684757 106.8425274  94.7007942  41.3359690
  43.3429640  41.0278700  87.6204130  43.2643145  40.6035898  86.7659929
  42.4906462  41.4396189  87.7627292  30.0490969  59.1160868  92.4525979
  30.9454077  59.3926428  92.2618687  30.1480311  58.3960245  93.0754673
  76.1669493 111.4713287  43.7451458  75.9181833 110.6051922  43.4224176
  76.7778540 111.2940502  44.4604063 112.0231516  15.4372935  45.4196548
 112.8400833  15.5821662  44.9423027 112.1993667  15.7659297  46.3012362
 107.1735477 106.8275833  55.8624887 107.8201771 106.5277576  56.5014029
 107.6165199 107.5285435  55.3842926  97.5891399  91.5942574  60.1138735
  97.8920460  91.4036083  59.2261028  96.6767216  91.3050556  60.1229095
  31.9205319  35.1859813  42.7959061  32.8500306  35.0715785  42.9938555
  31.4975964  34.4178920  43.1798077  86.7811489 105.9536457  80.9885883
  87.3315907 105.2492332  81.3307190  86.4891529 106.4287853  81.7665482
   7.4665313  70.6909990  63.8385773   7.1709780  69.9447203  63.3170843
   8.2439570  71.0103989  63.3805227   4.3832909   9.3421893  12.7313364
   4.7551571   8.9337306  11.9496024   5.0246083  10.0069766  12.9823279
  46.2646979  41.3189656  10.1367447  45.9500902  40.6613786   9.5163986
  46.5732401  42.0389611   9.5866177 114.7615623  84.5141315  49.0281630
 114.7349930  83.6383247  49.4134951 114.7348309  85.1071072  49.7790956
  87.0717842   7.5141387  54.5274973  87.3558504   6.6186767  54.3439531
  86.2066108   7.4142985  54.9246693  86.0898018 100.3518581  55.0253916
  86.2243843 100.4969311  54.0888691  85.3752613 100.9442806  55.2592754
  94.5408630 111.3565159  42.4974346  94.8818398 111.2771988  41.6065502
  94.9580288 110.6415558  42.9781008  34.0809094  35.4818111  61.9786310
  34.2315995  36.3717513  62.2972679  33.2317864  35.2364211  62.3460770
   3.4181916  31.9382529  82.1241474   3.7797295  31.7904716  81.2502575
   2.9992424  31.1087184  82.3534584  18.4178292   2.2336536  67.1383953
  19.0760075   2.9283290  67.1597815  17.7086674   2.5584464  67.6932096
  85.9530544  64.4398355  46.7782116  86.1166000  65.1502895  46.1579370
  85.3948498  64.8319054  47.4497175  95.3700924  84.2358589  27.5896120
  96.2431622  84.5546913  27.8183341  95.1755905  83.5736275  28.2528281
  85.0592518  87.2474098  45.4244328  84.6249962  87.7157211  44.7114563
  84.3825817  87.1504974  46.0944748  20.9257256   9.3615394  61.4167881
  21.3040673  10.1866965  61.7204380  20.5894505   9.5595222  60.5427456
   1.9486081  17.7686553  86.5889359   1.7239892  17.8282504  87.5174904
   1.8171441  16.8462806  86.3694382   4.0583854 101.9401646  26.8306470
   4.9655394 101.6567516  26.9445181   3.7163119 101.3756752  26.1374187
   0.1439797  12.1872192  35.1807547   0.9014164  12.0704036  34.6072793
  -0.5989231  11.8782096  34.6622634  16.7996918  18.3660846  54.3698740
  16.4116799  18.2832675  55.2409792  17.6045262  18.8641982  54.5125389
  11.9179778  99.5071220  59.9733543  11.3211016  99.2868328  60.6885052
  11.5770106 100.3294182  59.6214962  17.4632870   7.2485595  69.8363113
  17.1821343   8.0640559  69.4213820  18.4110962   7.3425822  69.9313927
  98.6080456  94.2770863  42.2846794  99.2991734  94.7010612  42.7934265
  97.9419994  94.9555111  42.1734905  11.5647654  71.3856792  42.9421616
  11.3687758  71.9790459  42.2170830  10.7137923  71.2074947  43.3425522
 107.3473549  77.5036716   9.2046225 106.7838287  78.2305527   8.9394480
 107.0965290  77.3244095  10.1108146  77.3284578 109.2708302  45.5751371
  77.3881054 108.5595417  46.2129021  77.5905752 108.8714123  44.7456837
 115.5631065 110.1685047  51.6621876 114.6949863 110.4690075  51.3933039
 115.5203533 109.2151833  51.5874290 108.2565308  92.8278542  52.6703405
 108.0526161  92.4334049  51.8223619 108.4931564  92.0870399  53.2284021
   8.6847912   8.4267669  28.0661464   9.0037953   9.2841392  27.7843809
   7.7408158   8.4596210  27.9110456   1.3444172  27.0985179  26.3458657
   0.8710371  26.7209487  25.6045294   2.2507702  26.8179374  26.2192750
  20.6269967  18.0433898  29.5643091  20.4991852  18.8927512  29.1418266
  21.5248143  18.0730109  29.8948956  26.5855252  17.7754264  68.3327341
  27.0908963  18.5829120  68.2389975  26.7701947  17.2830825  67.5329018
  50.1119267  25.2836661  69.5889568  49.8847519  26.1613517  69.2818975
  49.5291745  24.7011809  69.1017771 106.5211422   3.5298305  39.7946739
 107.1785909   3.6096339  40.4857779 106.9446880   2.9971748  39.1215324
  10.6575333  40.4037528  39.4202018  11.0981404  40.1157909  38.6207199
   9.8124825  40.7388930  39.1205263   2.8710782   0.3449779  29.7197580
   3.1520783   1.1472087  29.2796493   2.2429501   0.6407218  30.3787136
  92.6034641  94.2775345  41.9255209  92.7638721  93.3607101  41.7020607
  91.7839718  94.4927597  41.4801645 104.9946117  85.4828072  79.2313480
 105.4761410  85.3657436  78.4124088 105.2102470  86.3725185  79.5109129
  62.0446795  29.9329144   3.5227272  62.4574202  29.4933373   2.7793285
  62.2873896  29.4008309   4.2804977   8.6206185   7.3100715  55.4458904
   8.9479290   7.4748187  54.5616007   7.6683556   7.2953372  55.3499413
  70.4721880  81.9116116  83.4095097  71.3914204  81.8561077  83.6705875
  70.5004549  82.1412468  82.4806881 101.2700302  17.9466968  40.9878206
 100.7020027  17.9935889  40.2188063 100.8014948  18.4387832  41.6620302
   2.3695599   4.8769622  45.7935715   3.2406746   4.7027545  45.4371595
   1.7676674   4.5254378  45.1375294  40.4874932  14.3915134  39.0594792
  41.0462986  14.3285899  39.8340750  40.9357583  15.0176864  38.4909797
  84.5540428  87.2294903  32.7824569  85.2649117  87.7309704  32.3831820
  84.3605614  86.5404892  32.1467876  15.3904377  14.9859195  68.7383890
  16.2985264  14.6954017  68.8232327  15.4528557  15.9321933  68.6083555
 116.1867237  78.3402395  31.7803669 116.3482475  79.0469027  31.1552501
 115.3116798  78.0209160  31.5600300  56.3391495  97.4881840  70.6629944
  55.6803751  96.8301678  70.8849716  56.9585562  97.0259571  70.0982618
  17.8677975  25.6475883  32.6564717  18.1862771  26.5201717  32.4253535
  18.5465561  25.0526862  32.3377156  70.3003502  91.6577721  35.4203129
  70.7642508  90.8293056  35.5414009  70.9862471  92.3242855  35.4594278
   4.5514332  48.5260635  34.6251130   5.3449475  48.1493240  34.2448044
   4.6553647  48.4012561  35.5684328  96.4074230 100.2561951  91.0657215
  95.9213734 100.4509926  90.2644444  96.4209366 101.0846329  91.5450478
  22.2472226  18.5092025  79.0294838  22.5348317  19.3899684  78.7891197
  22.9370152  18.1810813  79.6063232  37.1537053   8.0365329  42.7924490
  37.7102696   8.0553775  43.5709858  37.6798569   7.5846152  42.1327782
   3.8105618   1.8248515  60.3203249   3.3978878   1.8200736  59.4566631
   3.2014882   1.3425403  60.8794689  23.8190103  79.5349979  28.8902402
  24.7062492  79.6196795  28.5411406  23.8597274  79.9509954  29.7513556
  15.9831368   2.6887183  41.5082455  15.7284295   3.0694537  42.3487234
  15.9469925   1.7431979  41.6528368   7.3612820   9.2016273  50.1928043
   7.1353470  10.1253753  50.3017235   6.5353524   8.7792640  49.9567938
  91.8248081 103.4797955  60.2179050  92.4902725 103.1537342  59.6120405
  90.9922218 103.2682037  59.7956944 104.2795658 104.5257473   5.2773339
 104.2969799 104.2358494   6.1894125 103.9656544 103.7641144   4.7898865
  49.0740620  26.8652206  81.2096691  49.2288338  27.4311977  81.9659424
  48.1243645  26.7473559  81.1890888  29.1709935  24.6623664  74.2146444
  30.0085961  24.9043994  74.6097088  29.2335068  24.9730735  73.3114338
  29.2952286   9.6249538  52.8882980  29.1917740  10.0415092  52.0327234
  28.4976899   9.1077476  53.0008793  38.5540806  22.1752887  48.6280060
  38.1525361  22.8138595  48.0387449  37.8665864  21.5277438  48.7838030
  96.3371372  89.4026279  10.9191585  95.8670521  89.7842693  10.1778126
  96.6222382  90.1563931  11.4356661  82.3112965  91.0448074  72.6113939
  81.4166260  91.2874603  72.3728371  82.8072453  91.8605804  72.5422144
   4.8289525  27.3920493  72.7874851   4.4287621  28.2571750  72.7001476
   4.0969025  26.7804294  72.7083778  49.3969571  11.2527709  77.2047377
  48.6504208  11.4957576  76.6571331  49.5166909  11.9994979  77.7915049
 117.6659107 108.4428120  46.4220238 118.4740067 108.1216908  46.0219049
 117.1230507 107.6612949  46.5258312  16.4065873  21.2344699  82.4990940
  17.1993958  20.9068446  82.0744133  16.7165600  21.9253688  83.0845928
  61.1024701   2.6008945  15.5970335  61.6561924   1.8214374  15.5516338
  61.5979516   3.2741695  15.1307392  98.7844944  78.1367922  35.0636935
  99.5492268  78.6867380  35.2339339  98.3931732  78.5087490  34.2732835
 115.3462410  83.9498520  29.1898251 114.4486237  84.2420387  29.3484163
 115.8167839  84.7455502  28.9414763  23.9837300  17.3458533  61.0086870
  24.3807255  18.0285888  60.4678583  24.0126835  16.5604358  60.4623318
  18.5329186  11.5042930  68.9579678  18.0144249  10.7463508  68.6879444
  19.3538510  11.1309104  69.2787266  18.3003842   2.1074252  53.9257145
  18.8404404   2.3074679  54.6902800  17.9056202   2.9456477  53.6853790
 100.0455570  99.1934109  20.2001166  99.5765018  98.7412357  20.9013772
  99.7445011  98.7677574  19.3973613  58.1131684  27.6059871  43.1423855
  57.2010933  27.3197131  43.0934143  58.1911694  28.2746940  42.4619579
   7.1112286   9.6041923  13.1864655   6.8319928   8.8675742  13.7302113
   6.9472920   9.3149810  12.2888505   2.6044499  16.8781333  65.4876089
   2.1018731  17.3592811  64.8302317   2.3837601  17.3033290  66.3162994
  73.8140887  55.3543336   3.5274193  73.5059756  56.1019379   3.0151817
  73.0300539  54.8252827   3.6744473  27.2424923   0.2883296  70.7691097
  26.6035496   0.7184653  70.2008152  27.4951016   0.9631114  71.3992548
  14.0951191  18.7362056  53.6555243  13.6828648  19.4047122  54.2026711
  14.9551140  18.5985808  54.0526390  10.2465092   1.4998107  86.9985771
  10.3504788   0.5987125  86.6928864  10.5714642   1.4863258  87.8988266
  46.2981926  16.3498931  58.6472130  46.6148888  17.2499900  58.7231302
  45.4216801  16.4352183  58.2721519 105.6115913  87.5502872  33.6243653
 106.2281322  87.3305702  34.3228149 105.5835056  88.5070801  33.6219072
  85.2662849  96.2526226  47.9591942  84.5631504  96.8770695  47.7806044
  85.3457642  95.7441616  47.1521139   3.2193999 101.9825840  50.9871435
   3.4516768 102.3572826  50.1375103   3.7159972 102.5001335  51.6209936
 112.5543339  43.7043815  38.1443787 113.0411512  44.2444377  37.5218225
 111.7691499  44.2150645  38.3416581  41.0617959  21.8754535  52.7013493
  41.6917931  22.4377494  53.1520796  41.5953194  21.1840396  52.3095274
  68.4413737  39.9160479  96.1312711  68.4127920  40.8082197  96.4768650
  68.8951605  39.9985121  95.2925207  35.5990540   5.4273563  13.2579720
  34.9487149   5.5998759  13.9388025  35.8970105   4.5345264  13.4320962
  23.3009469  24.1952376  34.3933129  23.8540017  24.9708228  34.2993736
  22.8299176  24.3350177  35.2147889  61.0457325 109.9228764  77.6568413
  60.8790588 110.4421043  78.4435081  60.3800488 109.2353821  77.6781368
  95.9746361 102.9247379  51.0904789  96.6753960 103.3986759  51.5383101
  96.3314629 102.7328587  50.2232504  19.2424904   7.8313403  51.3071108
  19.2929589   8.3055549  50.4771709  19.1160904   6.9171004  51.0532761
  17.8839909   7.5499110  12.5113773  17.4173104   8.3400970  12.2392666
  17.4904858   6.8485885  11.9922137 106.2291182 105.7699389  16.3426197
 105.8802665 106.2391616  17.1004879 106.7630661 105.0703384  16.7190385
 118.1245697 108.5270132  29.4800568 117.1976770 108.4672658  29.2486930
 118.1742490 108.1659995  30.3651738 111.4023889 105.0561054  41.1664772
 111.2960566 104.6630288  42.0327425 111.7715372 104.3552477  40.6291151
  21.0739660   5.1039094  38.8706684  21.8166208   4.5213753  38.7114525
  20.5056334   4.6111295  39.4626141  74.6000255  83.5226745  19.8830545
  74.5378126  84.4194074  20.2120447  73.6928953  83.2204099  19.8385394
 111.9069518  78.2737059  23.7437868 111.3100756  77.5453610  23.5720730
 112.0746077  78.2291503  24.6851349   1.9124621  91.2698622  46.6361618
   2.6372450  91.7185826  47.0715666   1.9720667  91.5491636  45.7225561
  86.7522621   6.2010193  49.6676302  86.1733818   5.5105013  49.3446541
  86.4343929   6.9979769  49.2433023  33.2284546   3.9343882  83.7733555
  32.8919959   4.5942998  84.3796062  33.3666945   4.4099697  82.9542446
  26.6674733   4.5877996  40.1718664  27.1781659   3.7841648  40.0739145
  27.0646429   5.0343347  40.9195900  40.6519741  30.0469416  85.6946304
  41.0574157  30.4616564  84.9331441  41.3790998  29.8887938  86.2967172
  44.0662575   8.7018812  23.8908339  43.8640833   8.5927057  24.8200464
  45.0226307   8.7166947  23.8539314 102.1779169  99.8251552  53.8366747
 102.8651274  99.2155988  53.5675716 102.6294602 100.4698653  54.3813658
  12.2793644  87.2570414  39.4555497  13.0408448  87.1299906  40.0214481
  12.4241417  86.6599483  38.7215519 103.2042349  77.7065391  44.6520281
 103.5021604  76.7975922  44.6161747 102.3915947  77.7123589  44.1462517
  81.3372565 109.0612185  23.1458211  81.7381443 109.8042713  23.5968113
  81.5058396 109.2249150  22.2179127   0.5561250 103.2854117   5.5193305
  -0.2361328 103.8222660   5.5379599   1.0075634 103.4962107   6.3366431
  95.4827739  78.1826205   0.4665440  94.8415566  77.5151415   0.2225273
  96.3310588  77.7583880   0.3374173  38.3680987   8.4319800  10.7647407
  39.1198564   8.1623465  10.2371109  37.6221395   8.3699000  10.1681483
  13.3751595   9.1325772  34.3921494  12.7779722   8.7136382  35.0118995
  13.6189580   9.9564552  34.8140717  49.8906898  26.1919165  42.9642630
  50.1217985  25.5888152  43.6707258  50.6589174  26.7549491  42.8690863
   5.5218399   3.4568202  35.1118183   5.7053268   3.9541438  35.9088349
   4.6838117   3.0278379  35.2847767  12.2325247  95.0201960  24.2031288
  13.1159609  94.6872790  24.0451932  12.0510023  95.5838926  23.4511137
   6.8391579  86.9711490  32.9494214   7.6531618  87.3585553  32.6276374
   6.1479395  87.4896235  32.5375557  29.5493627  45.0019884  15.3727543
  30.3762627  45.3153515  15.0063229  29.7448301  44.8321438  16.2942624
  55.0452375  30.1315165  11.2849867  55.1796341  31.0745978  11.3786113
  54.1620064  29.9808478  11.6217816  78.1401634  20.7614708  53.2159758
  77.8007174  19.8687243  53.2793140  78.6144638  20.7789588  52.3847342
  29.1413801  84.5920677   7.5276124  29.2239016  84.7193379   8.4727180
  29.7912567  85.1838822   7.1485984  55.8274889   5.8655131  19.0827727
  55.1510906   6.3633221  18.6235249  55.9599495   6.3413572  19.9026871
  12.4140900  88.3428664  19.6251714  13.2167023  88.4027047  20.1433086
  12.7069729  88.0472917  18.7631476  36.9131041   5.5655694  18.4554327
  37.5783491   5.6882423  17.7782083  36.5493703   4.6978301  18.2794809
  95.9163929  74.8854442  35.2116466  96.2099851  74.4783349  34.3966031
  96.6897596  75.3412933  35.5438185 105.9325279  91.9542200   6.7533469
 106.0018099  92.1744759   5.8244121 105.3158487  91.2226553   6.7806965
 102.8302659  77.6000638   2.0406726 102.7985633  77.5234289   1.0870723
 102.4632705  76.7755265   2.3595534  35.1997614   8.5393381  19.4378340
  35.5034161   9.1469592  20.1122403  35.3811741   7.6713401  19.7982490
  38.5912728  21.6568089  51.3399982  38.3100009  22.0768666  50.5271816
  39.5300126  21.8369937  51.3903284  44.2895889   4.2801350  50.3524733
  44.2167044   4.4994333  49.4235849  43.3976078   4.3648165  50.6892633
  55.7797915  38.0784195  88.4603712  56.2879092  37.3950856  88.8975265
  55.8770103  37.8891724  87.5271156 115.1803459 108.2986094  28.7344551
 114.9281014 107.7864195  27.9661679 114.6997751 109.1212709  28.6422038
  11.2495964  90.4203958  62.6310825  11.6845768  91.1788649  62.2415352
  11.1848324  89.7878117  61.9156265  14.7323912 111.3089272  60.3461742
  13.7768477 111.2785584  60.3936052  15.0229615 111.1032381  61.2347078
  73.9308149  70.8625704  93.0823752  73.8994724  71.7351859  93.4745380
  73.9659960  71.0247653  92.1396735  47.6211452  26.2022710  17.8728104
  47.5884819  26.1734438  18.8290191  46.8929243  26.7720842  17.6253521
  43.3153486  25.4851484  71.3724661  43.4810591  24.5548034  71.5248680
  43.0218458  25.8182144  72.2204971 107.2288812  87.2162504  73.5788584
 107.4102844  87.8185148  72.8573322 106.2737788  87.1616573  73.6109066
   8.8967907  18.2702565  32.9381490   8.0408031  18.6226726  32.6945925
   9.2290860  18.8813019  33.5957456  24.9909657  95.2334638  30.0157094
  24.2632454  95.0331755  29.4270277  25.7619494  94.8792548  29.5725942
  45.6814814   5.4840821  31.2867665  45.2394772   6.0231394  31.9427228
  44.9713802   5.0372875  30.8259392  34.5038223  14.0548301  20.3789282
  34.4597411  13.5798776  19.5490444  34.5781183  14.9746823  20.1247954
  10.3735030  51.4182138  23.8165736  10.7487011  50.8153677  23.1746721
   9.4424748  51.4528704  23.5969877  56.2443018  23.0070043  36.9226122
  56.8171263  22.8092599  37.6635575  56.2128401  23.9632201  36.8927169
 103.0092276  90.2825565  33.6971974 103.9541615  90.4351659  33.6907005
 102.8704704  89.6110101  33.0293632  66.1873913  13.3493078  56.7195177
  66.1895561  13.0484390  55.8108330  67.1015692  13.2839692  56.9956303
  39.6679902  20.1236248  29.0357137  39.9231339  19.3480551  29.5353413
  40.2666807  20.8083367  29.3339968 110.3995813  95.1143010  48.2999182
 110.7326139  95.8208222  48.8532257 110.4099406  95.4782159  47.4146557
  27.1557498   7.8528017  53.1448650  26.7171574   7.2753763  53.7697268
  27.3679495   7.2860897  52.4032211   6.9706839  21.1186218  35.8051276
   7.1137220  20.4752183  36.4992452   6.0393655  21.3316631  35.8642292
 113.8551845   5.7449448  62.8340960 113.6044992   5.6764400  63.7553453
 113.6705430   6.6552120  62.6026821  69.0297765  88.6286325  34.8398161
  68.6064542  87.9321022  34.3379426  69.6226747  89.0471501  34.2156792
  90.6926323  85.9498806  39.9351668  89.7826768  86.2233539  39.8192930
  90.9603358  85.6362862  39.0713239  94.7072984 101.8697460  54.8894262
  94.9095918 101.5933336  53.9956141  95.5614413 101.9539524  55.3132010
  52.7143908  24.1543484  34.4253874  53.6188221  24.3665218  34.1947055
  52.4910307  24.7775745  35.1167130  36.9052505   4.3239895  23.0227733
  37.0231891   3.3877841  23.1835294  36.2427402   4.5945668  23.6584616
   4.7009000  26.9208145  35.0496864   5.1145077  26.8915892  35.9124184
   4.6462262  26.0042810  34.7791123 100.0491322  83.1841226  53.8790989
  99.5977510  82.7871127  53.1342030  99.3493403  83.4021873  54.4947052
   9.0842807   4.0315112  18.2613850   9.2260361   3.1556576  18.6205745
   9.1929233   3.9233679  17.3165393  99.0309657  90.3350134  53.0408621
  98.6794413  90.0127525  52.2109175  98.4027458  90.9987755  53.3254480
  28.9505404 104.6500285   6.2152010  29.8396271 104.3193163   6.3431793
  29.0452832 105.3465469   5.5654955 109.9190796 104.4627876  19.9723959
 110.1609481 103.6461873  20.4093099 108.9649976 104.4977660  20.0412107
  98.3838905  85.6897373   8.0732608  98.6396767  84.8189731   8.3775252
  98.5836996  86.2687416   8.8088292  29.9035525   2.7163464  33.7546420
  30.2456498   1.8423234  33.5668015  30.1206517   2.8658643  34.6748281
  46.6243887   3.6827350  42.2591448  46.4264441   3.5768664  41.3286400
  47.3228836   3.0506480  42.4288559   4.1250771 106.9759251  17.7475905
   4.5283287 106.8549253  18.6072302   4.8607701 106.9720392  17.1352410
  26.7186022  12.7588034  41.1418772  26.3311458  12.9001617  40.2780914
  26.7157388  11.8080783  41.2529898 116.3583888 101.3683684  60.1173401
 117.0310558 100.7174034  59.9173498 115.6589879 100.8685083  60.5383015
  48.2865429   1.5248689  75.7042503  48.8019371   2.0371598  75.0812244
  48.5959387   1.8112054  76.5636206  90.0554253 110.8558739  22.0522499
  89.8849751 111.2259263  22.9184127  89.1950489 110.5802250  21.7360187
  40.8463860   0.3034998  17.7750599  41.1655092   1.0779122  17.3117268
  41.2251329  -0.4344445  17.2973371  28.9803290  28.2228923  24.5391655
  28.6509228  28.4735680  25.4022336  29.9068236  28.0302310  24.6831036
  96.9317008 103.4990640  58.4117651  97.1873916 104.2308826  58.9732742
  96.9848145 103.8494749  57.5225925  70.2459860   8.3995962  57.8727961
  69.7926378   8.5434836  57.0421314  69.9500084   7.5360483  58.1607437
 107.1864880  92.2989864  48.1887484 108.1099738  92.3145552  47.9374266
 107.1873272  91.9573243  49.0828943  36.5809965   1.9152200  20.1167965
  37.2739458   1.2961787  19.8869228  36.5692878   1.9170448  21.0739231
  19.7407597 108.7499781  67.9304028  19.7461527 108.4872903  68.8508368
  19.1364258 108.1380461  67.5102234  17.1973675 108.3344979  28.8464355
  17.0027560 109.2666165  28.7488961  16.7676943 107.9205097  28.0979538
  99.1900242  89.7716088   8.4381306  98.4512974  90.2351994   8.8325876
  99.9426926  90.3412337   8.5970390  21.8748784   3.6414632  24.1344428
  22.2913599   2.8024834  24.3316388  22.4471259   4.2937687  24.5384979
  22.3220396  21.7720437  32.1394253  22.6935863  20.9253860  32.3871279
  22.0678043  21.6631603  31.2230515  81.5861882  99.9386127  63.5268497
  81.2123003 100.6306023  62.9813290  81.9998551  99.3403060  62.9046392
  81.4513023  71.0685058   1.8325694  80.8748851  71.1284060   2.5944006
  80.9262230  71.4077039   1.1076783 109.9169005  81.6790838  67.4609232
 109.4572938  80.9409494  67.0607328 109.7203244  81.6057391  68.3948469
  56.6719007   1.4923738  22.9597902  57.5323820   1.1696737  23.2274985
  56.5287828   1.1048639  22.0963168  43.9240349 106.9959668  26.0530925
  43.3076037 106.2712176  26.1578941  44.1235436 107.2719641  26.9476628
 107.9741467  88.5630364  85.1765251 108.1493343  89.4192881  85.5668831
 108.8262261  88.2669086  84.8563671 111.6656602 101.5088869  24.8711610
 111.6978634 100.6926591  24.3721938 111.1397828 102.0990230  24.3313265
  46.8748760  15.5236185  16.3794506  46.9345903  15.0084341  15.5749321
  46.9469976  14.8784828  17.0828915 104.0964020  77.9603882  50.3956985
 103.7723745  77.5886793  51.2161064 104.9682106  77.5800748  50.2882624
 101.1386384  79.3084950  35.5509758 101.6194142  78.7923546  36.1980367
 101.6881884  79.2825909  34.7676778   7.4495762 108.5716722  51.4046574
   6.8279379 109.2858241  51.5453291   7.8068274 108.3903782  52.2739887
  15.2044427  15.0458956  35.7951045  14.8593104  15.9386945  35.7899904
  15.5195260  14.9160337  36.6895819 107.4728008   2.7612424   6.2021333
 108.3993365   2.9924911   6.1366671 107.2298725   2.9966640   7.0975626
  16.3387024  28.6047792  39.9456596  16.9976330  27.9537058  39.7045255
  16.3403749  28.6040902  40.9028578   8.5744494 102.1196599  26.2552571
   8.8037079 102.7125837  25.5396366   9.3006914 102.1986855  26.8737650
  57.7867126  40.0519466  45.8512831  57.3206997  39.5559239  46.5243530
  57.2384024  40.8214474  45.6981182  72.4680805  14.3598711  11.5180171
  72.6119280  14.1377723  10.5981183  71.5185213  14.3142855  11.6297638
   3.2269829  88.9814086  42.6490355   2.2956818  88.9917154  42.8699493
   3.4185284  89.8788948  42.3768950  36.8905234  39.6312928  41.2199068
  37.0174384  40.3182507  40.5655241  36.2621069  40.0031948  41.8387890
   5.1635872  98.2827800  85.1391890   4.6877991  97.6745837  84.5735422
   4.7011887  98.2428878  85.9763387  54.5304966   9.9450624  47.8956556
  54.5608330  10.0195670  46.9418383  54.8373699  10.7947075  48.2121420
  89.0512670  97.6572616  44.8692417  89.9692930  97.4214084  45.0027847
  88.8337124  98.2082386  45.6211185 112.7636374  67.2546954  20.6544280
 112.7163828  68.1427140  21.0085750 111.9729675  66.8245692  20.9801054
  34.6094656   9.8714268  30.1066709  35.3470755   9.4222778  30.5194998
  34.9691463  10.7119477  29.8231483  92.5306970  49.1717994  92.3914099
  93.1063206  49.2498713  91.6306221  92.2929794  48.2449632  92.4177834
  22.7198362  20.0276184  16.3200164  23.2051730  19.4422674  16.9014323
  22.0046926  19.4893646  15.9807718  68.0358601   7.7989268  40.8875227
  68.9710140   7.6196098  40.9853506  67.8990936   7.8480166  39.9414158
  43.5574579   8.6717862  45.6833220  43.6318493   9.1864020  46.4869833
  42.7705240   8.1418264  45.8102512 116.3488329  95.4744179  79.6866751
 115.9716190  94.6344514  79.4251490 115.5918516  96.0248656  79.8872185
  75.4643583  15.0048757  63.2048321  75.1498795  15.6002998  62.5245333
  75.5695868  15.5590153  63.9781952  55.1033640  10.3670621  13.7552881
  55.2635527   9.4906926  13.4052217  54.7304249  10.2137244  14.6234107
  42.9041767  10.8559477  15.2581275  43.5193920  11.5321958  15.5417275
  42.2010279  11.3387835  14.8237467  84.6535188  84.8883599  87.8468302
  84.4876034  84.5998018  86.9493684  85.5987579  84.7883003  87.9597053
  41.0272217  19.8337412  47.9819393  41.3600683  19.6609819  48.8626194
  40.3809452  20.5294871  48.1023502  96.3534832   8.3522087  65.0508881
  96.7148495   8.2580918  65.9322453  95.9600353   7.5004894  64.8611307
 114.7315849 111.1461863  32.4276924 115.0968398 110.3751433  31.9937420
 113.8902963 110.8496167  32.7748394 109.6545208  92.4098594  28.4260511
 110.3145541  91.9919891  27.8729057 109.8282374  93.3471949  28.3396983
  23.6335993   1.2816113  34.5699096  22.7507567   1.6404736  34.6595669
  23.6978817   0.6271287  35.2654338  72.6042318   7.6058668  16.1605096
  71.8145084   7.2679007  16.5828228  72.2847891   8.2770085  15.5573857
  55.3124142  26.7052770  26.6317987  55.8143997  27.4162102  27.0303130
  55.7010984  25.9073877  26.9903040  87.5223572  69.5275193  94.0714070
  87.5751478  70.0388556  94.8788602  88.4264786  69.4752424  93.7614727
  29.4623423  32.4810100  21.3649416  29.1266751  33.3566260  21.1729646
  28.7260079  32.0266700  21.7743540  31.2596052 107.1741052  29.5743370
  30.8843439 107.8767378  29.0435672  32.2059744 107.2798760  29.4772005
 101.2363733  96.1050219  40.3194189 100.9807456  96.4245076  41.1847639
 101.6820372  95.2757306  40.4923105  94.0130043  62.5079584  40.3236914
  94.9345779  62.5369549  40.5807638  93.7590218  63.4269285  40.2387476
  16.7658758   4.3638620  11.5707874  16.3442254   3.5065114  11.6290307
  17.5777280   4.1994080  11.0911179   7.1846264 101.8259461  42.1291065
   6.4427202 101.3257785  42.4691582   6.8567723 102.7224506  42.0582438
  88.3053328  64.6025796  57.6295805  89.1709579  64.6810050  58.0305433
  87.7218855  64.3919368  58.3585835 104.7805865   3.4150735  21.6443253
 104.3198772   2.7788410  22.1913052 104.5708449   4.2633003  22.0351601
  51.0874414  11.4784563  31.8931055  51.2437344  12.1206832  32.5854564
  51.3463545  11.9265544  31.0878682  55.7384300  22.3488426  33.9470339
  56.3457775  22.5464201  34.6600008  55.8089638  23.0995345  33.3573580
   7.7676690   6.2742466  42.0130062   7.5676268   6.4789391  41.0995960
   8.1362188   7.0845509  42.3648739   0.4179734  88.2702751  42.5212622
   0.9954136  87.5100846  42.4512339  -0.1848752  88.1819410  41.7830181
  62.1559048  20.7928896  45.8927202  62.5324774  19.9130476  45.8753109
  62.7380562  21.2912726  46.4662552  25.9911823  22.2480369  39.9682546
  26.0221887  21.3173699  39.7465968  25.2104545  22.5748515  39.5211673
  98.0187644 110.4177853  29.2118526  98.8566650 110.4121362  29.6745849
  97.3610831 110.4193458  29.9073267  37.1524644   3.5391754  72.6916981
  37.5361156   3.4636620  73.5653925  37.8646088   3.3053583  72.0963764
  95.3491391 106.0462792  27.6928782  95.6973971 106.8864412  27.3944235
  96.1187507 105.5586584  27.9864025 106.5095914  97.7975662  42.6354456
 106.9891561  97.6364310  41.8228674 106.9563354  98.5449440  43.0330372
  18.8766479  13.1390858  44.9117994  18.2553935  13.0907571  44.1852045
  18.4335089  12.6964974  45.6356573  53.3742380   3.7650678  54.6976709
  53.8612461   4.5861736  54.7672510  53.6116457   3.4179133  53.8378143
  10.6260884  75.2243090  56.0351849  10.4103041  74.4084692  55.5834341
  11.5745890  75.3084230  55.9377098  10.7432192 105.0643022   9.0874785
  11.4674776 104.7295178   8.5587066   9.9600571 104.8652465   8.5743833
  33.8072896  10.0395513  58.9725780  32.8874660  10.2277744  58.7862110
  34.2661071  10.2614975  58.1623554  48.1631279  14.6553469  34.0076876
  47.7560186  14.1388762  34.7032118  48.9587498  15.0083804  34.4059157
  45.6184959  10.0634062  47.6391268  45.8813143   9.4240874  46.9769907
  45.1286030   9.5529103  48.2838202  54.1790915  10.7671678  18.8671529
  53.6341095  10.7364404  19.6534610  54.5902014  11.6311634  18.8942850
   8.1813687  84.7307272   8.9747453   7.3563307  84.7546072   8.4900045
   8.5981577  83.9146442   8.6981130  28.6430979  47.8750372  26.2578487
  29.5088816  47.4713564  26.3186145  28.1035042  47.2192144  25.8162928
  37.9920030   9.3792516  82.3371029  37.4125671   9.1594636  81.6075897
  38.6313272   8.6671740  82.3581028  27.1666217   5.6449145  35.4678369
  27.2821140   4.7089466  35.6317234  26.2716675   5.7215095  35.1370502
   4.5824593  64.6163983  17.4532545   5.0304526  65.4107566  17.1625149
   4.4606179  64.1039700  16.6540027  53.7787724  29.9957633  58.6904478
  54.0917206  29.6208334  57.8672075  54.0858936  30.9021831  58.6728716
  20.2625775  10.6938517  23.5877109  21.0120225  11.1413431  23.9805388
  20.4791522  10.6356990  22.6571488   0.7869976  71.0307879  18.3834076
  -0.0881964  71.4183564  18.3906126   1.0418337  71.0318608  17.4607527
  61.5056086  47.7534389  27.2847819  60.7020712  47.2431707  27.3856950
  61.2319374  48.6605644  27.4206448  38.9273739  20.5237460  41.9460678
  39.5272636  20.2981210  42.6570225  39.3930459  21.1914968  41.4425898
 103.6255945 105.7465858  15.1865971 102.9914726 105.1445503  15.5760515
 104.4783581 105.3911508  15.4369771   5.9405535  88.3828897  47.9141283
   5.2767628  88.3616133  48.6034489   6.0894507  87.4627228  47.6965189
  51.5884542  18.4171617  40.0432873  51.7329073  18.6728406  39.1322470
  52.2048473  18.9525652  40.5429268  37.0905852  42.2029924  61.1231327
  36.2105560  42.4765444  60.8643866  37.0530629  41.2465334  61.1256170
  30.8936071  10.0347567  39.8514271  30.5979037   9.1327614  39.7281647
  30.1475191  10.4783857  40.2548838  92.5373155  83.0409544  78.3361295
  92.0167333  82.7143210  77.6022819  92.9506284  83.8366931  78.0011561
  90.2166080  11.4619267  28.7549210  90.5070114  10.5745351  28.9657211
  89.6833801  11.3585520  27.9667544  21.0507029  99.7188384  40.5710554
  21.4800137  98.8633449  40.5785036  21.3644331 100.1372857  39.7693658
  62.0490742  34.4964385  27.7911997  62.9717159  34.7427583  27.8566623
  61.9417810  33.7964225  28.4351683  15.2069252  88.7848682  16.2306654
  15.9570759  89.2098613  16.6464591  15.2232235  89.1005821  15.3271770
  45.2645874  22.4150467  14.9283528  45.5826283  23.0943751  15.5229902
  45.6856632  22.6127076  14.0917790  28.6891747  17.3412061  22.4827766
  28.8505316  16.6734254  21.8162465  27.9908776  16.9744754  23.0251074
  17.0308131  97.2870619  28.6410451  17.7015274  97.9475469  28.8146353
  16.7785805  96.9683261  29.5076585   5.5114334  92.9704077  32.0889115
   6.1187762  92.2410376  32.2129607   4.9977177  92.9942734  32.8962278
  51.3057089  29.1978908  34.6608257  51.8254709  30.0016332  34.6698141
  50.7581758  29.2754626  33.8795328  28.3836031   9.5873839  59.3163347
  28.1459808  10.5122149  59.3830824  29.2901659   9.5945829  59.0092182
  60.4735613  29.9350214   6.5009350  60.3223133  30.4041481   5.6804013
  61.1527681  29.2946982   6.2890482   1.9463413 104.6656717   9.7115034
   2.1737927 103.7489207   9.5563722   1.6540068 104.6890343  10.6226707
  36.2701011   9.1447502  25.3582239  36.0098481   8.5976225  24.6171761
  36.2127352   8.5637146  26.1167336   9.0431052  48.0042410   5.8239663
   9.9474514  47.9038954   5.5267781   8.7667650  47.1171379   6.0540175
  20.6439638  14.8437226  66.9611120  21.2370658  14.2079735  66.5607595
  21.2218761  15.4610109  67.4096727  33.2080674   3.4379798  40.0058270
  33.1219244   4.3593377  40.2505970  32.8323960   3.3875278  39.1268754
  19.2560101  13.0445623  22.2710204  19.5438242  12.2434378  22.7087331
  19.0939379  13.6621463  22.9841495   1.8287590  16.9163442  39.6221590
   2.5002417  17.2105360  39.0066957   2.1318875  16.0567605  39.9144959
  64.9495173  41.1406708  18.9867401  64.1378593  40.6374788  19.0518570
  65.6424904  40.4805422  19.0024710  53.6784077  25.6049514  46.6195822
  54.4975233  25.1781201  46.3683891  52.9998732  24.9630237  46.4104080
  64.4119167  37.4122071  21.1854339  65.0933456  36.8825793  20.7714486
  64.8071575  38.2787156  21.2812424  71.7076588  14.9118638  81.9989109
  72.0301914  15.1592612  82.8655052  71.6686392  13.9557338  82.0218372
  27.7114558  31.4335537  37.0023608  27.7568531  31.0480213  37.8773093
  28.3135867  32.1768546  37.0366144   6.7615598  23.9408493  21.6794944
   6.8179429  24.3383551  20.8105612   5.8656895  24.1180634  21.9662738
 100.1348556 101.6673906   8.8960570 100.3910340 102.5869365   8.9670467
  99.6816720 101.6092594   8.0549401  20.7673216  37.4167657  31.7074132
  21.6438150  37.7574587  31.8860722  20.1811528  37.9973245  32.1927905
  93.9580763 105.7831813  43.4598446  93.9272047 105.1280446  42.7626562
  93.0588258 105.8300282  43.7844753  45.1936626  30.4480171  23.7719893
  45.8591461  29.8908782  23.3683062  44.9045563  29.9569392  24.5410728
 110.2868635  78.8165515  94.8477407 109.8133976  79.3575352  94.2157599
 109.7210247  78.0566018  94.9838897   0.2364724 111.0355774  46.8236208
   0.6800764 110.9904020  47.6706219   0.1776212 110.1247668  46.5351915
  45.8678818  25.0911283  46.9130945  45.3472185  24.4492245  47.3959017
  46.1639357  25.7101297  47.5804949  40.3427076   2.8450850  52.9583025
  41.2953472   2.8749195  53.0467653  40.1776409   3.1124669  52.0541477
  51.5623903  13.0562258  22.1808243  50.9518671  13.7913156  22.2368097
  51.5391636  12.6587558  23.0512905  61.9221354   4.7267336  46.5180874
  62.3583698   5.3625852  47.0852041  61.0803938   4.5639911  46.9437790
  46.6417408  15.9792972  52.9111576  46.5670824  15.1655519  52.4126816
  46.1582518  15.8100700  53.7197542 102.6551713 110.2956144  21.9240713
 102.5244750 109.8653629  22.7690768 103.6005748 110.4353974  21.8701577
   8.3988827  66.2953277  14.1748214   7.7115792  66.3520141  13.5110223
   8.1190127  65.5825133  14.7491050  55.2503061  39.9731970  42.3142147
  55.7869339  39.3487906  41.8259716  54.7902298  39.4388175  42.9615211
  32.9920721  11.7575848  62.5627708  33.0753922  11.3691795  63.4336519
  32.7126670  12.6580882  62.7278662  44.7476292  12.0302558  36.2871265
  45.4855871  11.5430486  36.6535664  44.1385555  12.1286988  37.0189548
  26.7345095   9.3197960  35.3178215  27.3362184   9.2247355  34.5794845
  27.1074295  10.0294244  35.8408809  25.1744103  28.4691405  31.2245369
  24.4496250  28.5371137  30.6030083  24.8128772  28.7912655  32.0502257
  25.9412527  53.6742592  42.8043365  26.5435505  53.4712553  42.0886135
  25.1929998  53.0952168  42.6592207 114.3186224 108.3156977  32.4702048
 114.1337527 107.7179579  31.7458010 113.5133565 108.8226841  32.5738549
 100.6709350 111.5456038  27.7290487  99.9976004 111.9045524  28.3069849
 100.4769338 110.6091711  27.6879454  11.9153565  89.0345044  36.5381455
  11.1760014  88.9142198  37.1340609  12.0642632  88.1665702  36.1629796
  25.2290869  39.8210096  27.3210168  24.8617649  38.9925241  27.0129299
  25.9264731  39.5641994  27.9242849  78.0473137  20.9900880  57.8583527
  78.9962816  20.9974337  57.7332830  77.7563715  21.8423486  57.5339460
  43.6857033   8.7486702  42.8013468  42.8382826   8.7659889  42.3565912
  43.4668493   8.6999899  43.7319183  37.0076203  42.2949219  28.9256334
  36.0620189  42.4403620  28.9559197  37.3295450  42.6380587  29.7592115
  45.4882050  44.7416830  55.0672436  44.7745228  44.2102432  55.4200411
  45.0552130  45.3733635  54.4930220  47.0610142  15.8230412  48.1183815
  47.5028419  16.1166632  47.3216343  47.6089525  15.1104724  48.4473801
  34.9852252   9.6463579  33.8095236  34.4308305   8.9584178  34.1777849
  35.8593416   9.4580489  34.1511273  37.4597120   5.5967581  70.7376480
  36.8890953   5.3615987  70.0059843  37.0845652   5.1397985  71.4904308
  22.9517484  37.8462911   9.5515627  23.7495995  37.6036286   9.0816909
  22.7019811  38.6917758   9.1787308  59.4298363  27.9747701  14.2651808
  59.7678852  28.0093217  13.3703291  59.6161747  28.8418674  14.6252537
  18.0667227 109.8746256  37.1872067  18.2775610 110.6486268  37.7094150
  17.2406405 109.5572869  37.5520635  11.1403954   2.5694770  40.8666515
  11.9959819   2.6492554  41.2883568  10.9287512   1.6380265  40.9286070
  18.9847534  97.6159866  21.8464994  18.3195608  98.2687755  22.0647025
  18.6586970  97.1991320  21.0489106 108.2033808  65.2538466  95.8455361
 108.3289987  64.5022159  95.2663107 108.5711557  65.9932798  95.3615805
  36.3427258   3.1807846   8.3431351  35.7991695   3.3470356   7.5729805
  35.7804489   3.4022141   9.0854585 115.7738293  85.3139634  46.4264345
 116.2178052  86.1617012  46.4479065 115.4670895  85.1814504  47.3234224
  62.4791718  44.0509796  44.9606419  63.3708477  44.2701626  44.6902609
  62.3775959  43.1286001  44.7258472  50.9133339  22.2050476  46.7596006
  50.3734064  22.5387120  47.4761009  50.8631659  21.2530017  46.8451786
  46.9013071   5.6242663  18.6764121  46.6697741   6.3189602  18.0599535
  47.8466415   5.7153505  18.7958980   3.8130277  12.5573790  17.9251313
   4.0859511  11.6464674  17.8156543   3.4357879  12.7977407  17.0788753
 107.3551310  80.0211878  13.6258769 107.6150287  79.1284222  13.8531494
 106.6952146  80.2522893  14.2795837  98.7519980 106.3007088  39.4020104
  98.1842674 105.6089724  39.7417402  99.6008457 105.8755137  39.2799520
  33.7519407  22.6090074  14.3401015  33.5042620  23.3429432  13.7777638
  34.7008276  22.6904154  14.4361115  42.0958853  11.2209916  49.3429661
  41.2576008  10.7608008  49.3013477  42.2116613  11.5875673  48.4663534
  26.3428426  22.1486831  50.9909010  26.3903999  22.3415256  50.0545359
  26.2717390  23.0068684  51.4088678  41.2003708   7.4946457  46.9334936
  41.2067747   7.3949695  47.8854656  40.9201860   6.6403127  46.6050959
  15.5130148   6.9743496  34.5521665  14.8710489   7.6833552  34.5144534
  16.1870003   7.2931814  35.1524353  90.1066519  95.7300086  32.2719646
  90.1578928  96.3488693  33.0004001  89.2295707  95.8576543  31.9104886
  52.4997252  76.5690489  16.5453076  53.4480875  76.4423556  16.5733933
  52.3592394  77.4193306  16.9618559  30.1593464  90.6315441  14.5030296
  29.7557467  90.5881209  13.6361647  29.4381970  90.8531399  15.0921571
  77.0686991  77.0392602  77.7672699  76.6611511  77.8779500  77.5510815
  76.3325674  76.4399832  77.8906014  72.4900627  10.4985774  15.1624966
  71.8833256  10.5698788  14.4255984  72.8451300  11.3813603  15.2666771
  65.1401186  27.9534650  23.1452417  64.9394989  27.1185470  23.5682011
  65.2091742  27.7400565  22.2146940  13.4811610  66.5796990  55.2021933
  13.8457840  66.5204139  56.0852337  13.5291355  65.6859918  54.8627520
  78.1141329  31.2058496  20.1664472  78.4646225  32.0902133  20.0601983
  78.0044746  31.1036515  21.1118388  79.8426549 103.1628801  58.6602831
  79.9588314 102.3612876  59.1703653  79.0260582 103.0250848  58.1802702
  15.3813713  83.4658213   6.6980213  16.3050383  83.3922882   6.9381511
  14.9085015  83.1289072   7.4590194 109.9310912 103.7718184  17.0147300
 110.3852666 103.2319547  17.6616502 109.8535479 103.2085318  16.2447119
 108.6959423  82.4932499  47.9410076 107.7972950  82.5393290  47.6146030
 109.2374576  82.4877090  47.1517277 108.5126770 107.9519356  53.7081385
 108.1360615 107.1279634  53.3991718 108.6958636 108.4460733  52.9090738
  44.7513580  18.5680223  72.1553755  43.9924622  18.2483900  72.6433754
  45.2722168  19.0402949  72.8049135  31.9961095  25.5736589  49.2977095
  32.8901029  25.5789423  48.9556837  31.6484165  24.7181034  49.0459776
  56.7465067  31.1234808  25.0139523  55.9729719  31.6062212  25.3052258
  56.8182802  31.3263416  24.0812540  65.2059746  11.2871468  32.7028823
  64.4784021  11.0816479  32.1158171  64.8949432  11.0269701  33.5699463
  18.8537145   4.5286125  55.4817343  19.5032465   3.9157686  55.8263540
  19.3410456   5.0700068  54.8607397  33.4028578  25.8957934  30.6874132
  34.1422176  25.7789469  30.0908184  33.7728500  26.3576174  31.4397788
  57.1762276   4.8130754  38.5983539  57.7899361   4.7101548  37.8710318
  56.5418243   4.1064334  38.4782553  86.1035442   3.0441359  21.5506887
  86.2458324   2.8623757  20.6217384  86.1618519   2.1876112  21.9740057
  41.4777851   2.5817940  16.3799274  41.9287109   2.6356655  15.5373156
  41.9478798   3.1968486  16.9429088  32.4702787  14.0905178  39.1051388
  32.5153732  13.1348443  39.0753675  32.5511694  14.3627048  38.1910253
  38.4689665  46.6002607  22.2159553  37.5808835  46.8039179  22.5093198
  38.9295316  47.4388123  22.2465634  15.9871829   9.8993361   6.8151957
  15.4511559  10.4915404   6.2877470  15.9460866   9.0625960   6.3521522
  44.1418362  25.4826188  30.0930047  43.6833906  25.3216553  30.9177160
  43.4542370  25.7573795  29.4864154  50.3357649  15.7082546  67.7447033
  50.2893353  14.7628021  67.8868151  51.0439587  16.0020947  68.3177233
  52.6938057  39.6507144  46.7446613  51.9595098  40.2613163  46.6798210
  52.5083923  39.1356564  47.5298786  72.2644312  91.2675589  78.4091869
  73.0511505  90.8716577  78.0342653  71.8208224  91.6714614  77.6633265
  54.0144062  21.2177372  39.2690134  53.6172438  20.8391285  40.0533247
  54.9568272  21.1620688  39.4270563  35.4513311  44.8945332  41.5080929
  34.8999071  45.6623459  41.6585159  35.8114767  44.6857309  42.3700237
  61.0063219  17.1004522  17.7633524  61.2502623  16.8688250  16.8672085
  61.0547733  18.0561721  17.7853465  36.6823721  17.2534502  68.2876587
  37.4107909  16.6380167  68.2047176  36.0453939  16.7978740  68.8380623
 116.7035473  85.1039977  19.1941261 116.3680089  84.2093058  19.2504632
 116.0278142  85.6398196  19.6094716  16.7117798  13.3561945  34.2982006
  15.9490204  13.9015257  34.4906688  16.8526483  12.8503585  35.0985241
  45.0237942  10.9344053  33.7252498  45.7751513  10.3620601  33.8805628
  44.8704529  11.3622630  34.5676589  75.4221017  76.8985392   0.7589600
  76.1181480  76.5008427   0.2358982  75.0539071  76.1710741   1.2604210
   2.7978873  27.8366828   4.2107108   3.0940455  27.1589851   3.6030507
   3.2792610  27.6605034   5.0190878 114.2656792 106.3882739  44.3876362
 113.8775409 105.5133004  44.3860245 114.0663804 106.7371018  45.2564478
 114.8288072  89.8773045  44.6615362 113.9852084  90.2761645  44.8748064
 114.6048273  89.0121980  44.3185282 101.7588312  66.2159448  95.1338821
 101.0188562  66.5255039  95.6562272 102.5315744  66.5282219  95.6046071
  33.1065726  16.4019740  59.3640041  33.7728381  16.7764485  59.9402761
  33.5101342  15.6066453  59.0164042 107.4171461  88.3017034  44.3532658
 107.0247997  89.1742463  44.3843412 106.7504180  87.7258248  44.7275257
  24.7378319 110.0421935  19.6266103  25.4348391 110.5162648  20.0801229
  24.1321915 109.7842598  20.3215218   0.7402151  93.5419173   5.0171626
   0.8238428  93.2450373   5.9233087  -0.2025253  93.6393638   4.8830846
   8.3542937  20.6853580  29.5756102   8.4546703  20.3788733  28.6743736
   9.1610324  21.1680269  29.7557044  54.2413139  41.4013386  27.2926903
  53.3271551  41.2781334  27.0370197  54.6394491  41.8526649  26.5483618
  40.7791281  51.0034561  50.5018854  41.0395718  50.0831318  50.5393171
  40.8044004  51.2218285  49.5702696  56.5566778  35.6084776  89.8286819
  56.7982149  35.3059268  90.7040977  56.6960239  34.8473001  89.2652798
  88.8031025  77.8914232   4.1074094  89.6733714  78.1693334   3.8216993
  88.7218417  78.2354469   4.9969465  18.3442760   5.0659144  67.6595354
  17.5598383   5.6130904  67.6209831  18.3368421   4.6985415  68.5433960
  15.2777022  89.3741364  13.2950377  14.4187945  89.2532892  13.6998951
  15.4254216  88.5674734  12.8013730  28.0517912  22.8350425  16.2872386
  27.9893565  22.1688986  16.9717729  27.2492743  22.7293944  15.7763207
  47.5999069  31.4622307  24.8192191  48.2785177  30.8951163  24.4530201
  46.8852091  30.8663559  25.0436640  34.1643453  28.7537503  29.0704012
  34.2335105  27.8025198  28.9891076  34.9670815  29.0145516  29.5218754
  86.4995701 110.5740436  15.6266057  86.8731196 109.7396358  15.3429568
  85.8792628 110.8060368  14.9354970  61.3978815  14.0194213  19.5846045
  61.2765646  13.5172820  20.3904390  62.2788477  13.7893009  19.2893386
  94.8035557  64.3093240  71.7790583  93.8488275  64.2829167  71.8425587
  95.0406582  65.1808613  72.0959738  48.9341450  58.8502169  28.4580803
  49.4477177  58.0761623  28.2271910  49.4560862  59.2931318  29.1271353
   4.9665415  15.7742131  16.5762830   4.0254402  15.8615243  16.7277300
   5.0399917  15.5486679  15.6489396 104.9812992  27.4944711  14.6493912
 105.6148882  27.3873210  13.9399433 104.4995291  28.2897711  14.4221723
  50.5310535   8.8459361  44.2034340  50.7060337   9.2380083  43.3479261
  49.8871899   9.4282770  44.6066046  88.4336115  78.1377597  24.8238039
  88.2415290  77.2438569  24.5404744  88.3150781  78.6692209  24.0365744
  33.8390589  15.4464114  55.8667946  33.3228278  14.6537220  55.7205725
  33.1892300  16.1252487  56.0488224  50.5392694   3.5966676  23.8344312
  50.5921841   2.6897904  23.5327601  51.3774872   3.7537873  24.2690969
  11.4735716 110.0557896   6.0453713  11.9079417 109.2053343   5.9799558
  10.5488461 109.8651681   5.8879536 113.5817278  91.5280993  35.8387589
 113.3010877  90.6806822  35.4932785 112.8444899  91.8254061  36.3719773
  50.5212021  47.5470304  15.7699490  51.0906029  47.8875351  15.0799704
  49.7063398  47.3242712  15.3198290  58.3567953  46.2182570  19.7504508
  57.6992035  46.8307686  20.0800467  58.6187887  46.5806484  18.9041281
  57.6949215  31.1805058  30.9517884  58.2497549  31.9517684  30.8354187
  57.8179169  30.6736660  30.1491570  32.4474335  29.7606254  74.9093819
  32.8527331  28.8982344  75.0001764  31.9099402  29.6907973  74.1204214
  25.2701545  63.4479284   6.3688153  25.9203863  63.9864492   5.9177893
  24.4686532  63.9707088   6.3458222  98.5732681  86.5259951  84.2489663
  97.9014284  86.0495275  83.7612775  99.3461019  86.4946073  83.6850741
 112.1148957   5.1560925  94.5955252 111.2121213   5.3339909  94.8593053
 112.0811285   5.1129864  93.6398926  36.4554453  31.2124753   0.7473260
  36.7138696  31.9793367   0.2360801  36.7041159  30.4661512   0.2019866
  62.4448061  41.2044334   6.5487844  61.9986439  40.5591965   6.0002947
  62.5432062  41.9713593   5.9845322  40.5629683  44.7063160  31.6714740
  40.0689459  44.7987843  30.8568454  41.4703274  44.8824310  31.4226341
  45.0426960  26.6451812  69.7749472  44.5849466  26.1846542  70.4782343
  45.5953121  27.2831702  70.2264071  23.7531281   3.2897857  47.6878786
  22.8066134   3.3734694  47.5723743  24.1038704   4.1366369  47.4120998
  66.9735384  41.8072557  21.3218808  67.4761152  41.7954969  20.5073214
  66.7401552  42.7272272  21.4460588  74.2813206   2.3597282  42.1140385
  74.1222095   3.3036101  42.1122122  73.7072182   2.0213884  42.8011799
  91.0885715  24.0639949  26.9172621  90.9217167  23.2529712  27.3975086
  91.7369461  23.8217664  26.2560749  58.9287298 110.8715588  27.9781294
  59.2387789 109.9700845  28.0644131  59.4442957 111.2342507  27.2577953
  38.5190743  99.6347780  33.8021898  39.3426579 100.0530226  34.0532207
  38.0268353  99.5649786  34.6201515  48.1717253  23.1029463  35.6581426
  48.7723827  23.8395405  35.7716012  47.7021503  23.2994771  34.8475194
  86.3812191  82.9522985  94.0071136  86.8375570  83.6839884  93.5916403
  86.9177133  82.1870011  93.8004228  79.4024563  20.0875163  44.0398693
  79.9409914  20.3434801  44.7886658  79.2859745  19.1427648  44.1404200
  52.7059460  39.9130940  29.4787955  53.3459139  40.4173326  29.9812055
  52.2866249  40.5580950  28.9092565  38.6625910  53.9636278  51.2421131
  38.2437706  53.5808992  52.0130444  38.2132292  53.5593605  50.4999065
  47.7922440  30.7505774  38.5743785  48.3091450  29.9935174  38.8498974
  47.1301508  30.8502984  39.2584252  49.3139124  34.3670559  46.7992115
  49.3263054  33.6306977  47.4106503  48.7221241  35.0026679  47.2017288
  49.5893478  49.7464180  42.4340153  48.6980391  49.4058561  42.5102854
  49.5728779  50.5713701  42.9192066  50.7263231  30.9630322  65.4893398
  50.5320692  30.2997208  64.8271322  51.6503906  31.1729503  65.3542089
  52.6570845  44.5770645  43.3981800  52.3604345  43.8617325  42.8355694
  53.3993101  44.9585152  42.9293251  28.3152771  32.8839993  46.4092827
  27.7974010  32.8265619  47.2122383  29.1851711  33.1534600  46.7040873
  86.8330574  33.0149555  13.9221716  87.5774288  33.6154437  13.9615142
  86.4561844  33.1572294  13.0538642  53.1611395  13.4422624  16.9441831
  53.5286665  14.3210089  16.8495238  53.4170723  13.1692302  17.8251958
  74.0859556  44.8091888  57.3411942  74.1954803  45.7599783  57.3256826
  74.3261385  44.5549297  58.2322025  45.6811762  25.9072566  78.5630369
  46.4141941  25.4579973  78.1422329  45.4560614  25.3514433  79.3091154
  52.0076990  18.3639967  62.7888107  51.9713640  18.0804479  63.7023258
  52.7833366  18.9229703  62.7421951  58.0051041  33.4011769  41.9616461
  57.6800156  33.8608789  42.7357435  58.6906862  33.9718747  41.6144848
  84.1511536  18.0295694   9.3654841  84.6128559  18.3432436  10.1430905
  83.2556248  18.3499765   9.4731283  52.6200104  57.9371929  27.2918892
  52.2221804  58.7837267  27.0885563  52.7983332  57.5448799  26.4371824
  46.8004322  33.4949613   8.7583524  47.5122118  33.9062834   8.2680291
  46.1788225  33.2131982   8.0871999  14.0149355  20.6020260   5.1350296
  14.2728090  19.6862447   5.0297713  13.6408043  20.6458783   6.0149926
  45.6085062  41.8710089  48.6384487  46.1705685  42.1532106  49.3600273
  45.2002573  41.0647964  48.9540291  43.2386112  36.3041258  54.0846682
  43.0962515  35.5262995  54.6240664  43.5619068  35.9617805  53.2512903
  55.9738636  43.8589001  22.4912977  56.9004345  43.6314774  22.4140239
  55.5965137  43.6169529  21.6455436  68.5918140   0.9627494  73.7944937
  68.0379868   1.5857941  73.3240461  69.2629862   1.5046439  74.2093563
  71.9120312  21.6656733  37.4625206  71.2113523  21.0143733  37.4295592
  72.6755571  21.1804342  37.7752519  94.5007229  37.0468354  54.9960136
  94.5183182  36.6994953  55.8877945  94.5078659  37.9973173  55.1089954
   5.9845769  50.7543468   9.8508710   5.2248758  50.1963663  10.0174260
   6.7384106  50.1926184  10.0309420  15.0362271 110.5366396  16.4663088
  15.1663225 110.8352913  15.5662453  15.8869475 110.6638810  16.8862069
  72.4354887  61.2133884  37.9768372  72.3511410  60.3217745  37.6389861
  73.2968998  61.2310123  38.3938432  87.3237133  50.8775139  27.2441792
  87.0524406  49.9629068  27.3225522  87.3349094  51.2020159  28.1446266
  43.7732649   4.1376457  90.0959969  44.2763996   4.4984758  89.3660069
  44.3796730   3.5390869  90.5321503  39.1180205   0.5328215  37.7465558
  38.4351349   0.1798814  37.1761751  39.0838599   1.4787424  37.6040816
  38.6257029  45.2981567  66.5335369  39.3848276  45.1594973  65.9672022
  38.9858437  45.3009653  67.4204016  52.1244764  37.3887587  56.2442684
  52.5466681  38.2476926  56.2589216  51.6871691  37.3513103  55.3936243
  67.4782562  48.8244343  29.8700261  67.0693684  48.2279301  29.2429495
  66.7428112  49.2324686  30.3270340  35.4977202  22.0237756  93.9432812
  35.3531194  21.4307237  94.6805763  34.9240446  21.6917133  93.2527256
  57.5708628   1.3039114  38.1009746  58.2673216   1.8698606  38.4339619
  56.9334126   1.2637953  38.8139105  72.4396235  89.6679347  91.6470167
  71.5315158  89.8847502  91.8581158  72.9416043  90.4289215  91.9388178
  72.7289915  20.4913759  63.1074047  71.9889450  19.9096000  63.2808971
  72.3651505  21.1837006  62.5555563  32.5645161  23.0983663  22.4176359
  33.2875490  22.4887133  22.2700572  32.6634359  23.7579370  21.7310405
  35.2275770  93.0152590  14.2134845  35.4214543  93.3530302  15.0878716
  34.3061512  93.2323201  14.0717459  83.0795097  10.4537582   6.3064611
  82.8884220   9.8758489   7.0452023  83.5298347   9.8935223   5.6743395
  76.5862942   8.0059874   9.4767767  76.2781239   8.3214831   8.6272329
  76.4463472   7.0595753   9.4459355  13.1084746  92.7152438  32.2031713
  13.4762972  92.3990149  33.0283618  13.6540955  93.4663434  31.9699740
  45.5133009  21.3676977  40.5106115  45.6285858  22.3075700  40.3706837
  46.0515547  20.9570050  39.8339725  81.2966537  60.2686596  54.7106314
  81.8454266  59.5724297  54.3496037  80.4070568  59.9176168  54.6704245
  36.7248321  17.7710295  24.1787195  37.6336074  17.4879050  24.0777302
  36.2355542  16.9603360  24.3187857  47.4705839  65.2295828   2.9306370
  47.9573011  64.5202065   2.5109693  47.3130846  65.8603334   2.2280854
  66.7988586  32.6207542  23.2532310  66.7128801  31.7276049  23.5865808
  66.6807985  33.1763649  24.0236783  26.6180778   5.4520297  55.2341318
  26.5165424   4.6773446  54.6811533  26.2301731   5.2005267  56.0722876
  33.3217161 109.0400920  42.0309830  32.6818198 109.6970023  41.7566919
  33.5436457 109.2826384  42.9299545  55.7922697  39.1662407   3.5178491
  55.8568668  38.7772655   2.6456347  54.8835135  39.4598746   3.5824442
  23.7435031  41.8489218  52.8482151  23.9698958  42.3192739  52.0458746
  23.5603213  40.9552431  52.5583744  61.4684010  23.5105348  45.5433893
  62.1395254  24.1308188  45.8281136  61.6290617  22.7262473  46.0680962
  43.2446194  17.1267462  11.7489004  43.2043076  18.0437338  12.0204532
  43.5556793  16.6606021  12.5249064  32.0307612  19.7727787  33.3686781
  31.8035698  20.5418634  32.8460670  32.7870774  19.3937743  32.9208231
  32.1985769  43.8970757  32.7911115  32.2935367  44.6957016  33.3101583
  33.0568314  43.4760904  32.8401470  72.9667282  24.7063971  13.5287464
  72.0993328  24.3245220  13.3944809  73.5745144  23.9882970  13.3522177
  34.7363281  30.8019090  10.1316798  35.5960059  30.4883528  10.4125094
  34.7395301  30.6904030   9.1810018  79.2638540  28.7280321  19.6195698
  78.6336517  29.4163275  19.8324597  79.8786354  29.1446328  19.0156531
  64.6294546  32.2775960  43.2459211  64.0790129  32.3591638  42.4670839
  65.1223183  33.0975342  43.2778263   6.7034209  16.4377558  33.8431382
   7.4586099  17.0239317  33.7949681   6.9108593  15.7293177  33.2337809
  58.6798286  19.1332376  32.4685168  59.1267014  19.9737906  32.5685430
  59.2671490  18.6135554  31.9196844  39.3164229  35.6656694  54.3488598
  39.2918897  34.8228335  54.8019123  39.9001598  36.2065887  54.8807335
  61.9889450  28.0877423  68.6982059  62.6609850  27.5028944  69.0482664
  61.7607164  27.7092791  67.8491402  95.3413391  48.2278490  12.1735501
  95.1738930  47.3180437  12.4194145  95.0128365  48.7399864  12.9124928
  58.2347059   8.9516449  38.8716984  57.4198151   8.6536741  38.4674764
  58.5760784   8.1783026  39.3207407  67.8183508  32.8130674  28.4781289
  67.5373936  33.3442807  29.2231846  68.1858301  33.4439898  27.8591561
  50.8053207  48.0020046  33.2245684  49.8620224  47.8975534  33.1000590
  51.1743355  47.1525240  32.9828286  43.5232973  32.7497649  27.6104307
  44.2375708  32.1202946  27.5113511  43.9418030  33.6047149  27.5097203
  57.9845953  22.3356438  55.8151340  57.0635176  22.5936198  55.8510733
  58.1816578  22.2808218  54.8800468  54.8272038  23.6953640  43.6466885
  54.0376854  23.1593466  43.7213516  54.6094084  24.3516946  42.9848528
  54.6677256  15.2280235  28.3618402  55.3147554  15.8273661  28.7338233
  54.8170900  14.4004655  28.8190818  72.8007889  55.9798765  37.8176546
  72.2959185  56.6733027  38.2425046  72.3319912  55.1743269  38.0357313
 107.2511417  76.9529598  94.0733208 106.5503198  76.4355295  93.6766526
 106.8018705  77.6966732  94.4749132  47.9774332   3.0233905  66.3309240
  48.4586048   3.7650388  66.6978884  47.3322153   3.4218720  65.7468510
  56.9693708  31.6783071  88.4583092  57.5605345  31.0455775  88.0503654
  56.9463491  32.4138093  87.8461456  19.6742260  10.9726465  53.4238672
  19.9362803  10.0585330  53.3145285  19.0751803  10.9624231  54.1703749
  70.7972527  27.6902485  20.5003357  69.9147272  28.0018449  20.2996111
  71.2293053  27.6293468  19.6483660  64.4997931  20.9909415  23.2910609
  64.4523287  20.0585580  23.0797768  65.4141045  21.2260914  23.1330585
  52.6026011  36.6626740  10.8543372  52.6953602  36.5083575   9.9142230
  52.0455790  37.4386716  10.9158647 110.1880427   3.7708339   5.9066433
 111.0030653   4.2266014   5.6962961 109.9142881   3.3753964   5.0790453
  59.7085619  26.6082478  51.1584091  59.9619389  26.7490268  52.0706701
  58.7843990  26.3627267  51.2016726  50.7241154  31.8644762  39.0225983
  49.9269724  31.3455844  39.1300440  50.6570768  32.2263217  38.1389666
  42.9793596  11.0962415  41.0824633  43.0743933  11.6450262  41.8609428
  42.0518351  10.8602262  41.0675716  51.7678452  55.7974434  31.8510413
  52.4512100  55.9146595  31.1911154  52.1476746  55.1874828  32.4834251
  64.9267918  67.7298313  90.7233891  64.0459759  67.3589998  90.7770338
  64.8551852  68.4232634  90.0674495  78.1969595  58.0043221  36.5266752
  79.1276073  58.1683254  36.6790771  77.8820658  57.6291037  37.3490405
  44.2522049  54.9072027  40.1968575  44.2868805  55.7578087  40.6344604
  44.1986990  54.2723465  40.9112263  49.5628929  18.4702480  37.3992968
  50.4896975  18.6639726  37.5397921  49.2566490  19.1701603  36.8226075
  77.0104122  14.3038464  33.5836411  76.4036560  14.4352698  34.3122029
  76.4460993  14.1284060  32.8306437  11.4977109 100.1881879  94.2308903
  10.9771096 100.9814685  94.3570490  12.2448193 100.2958720  94.8194988
  58.9126730  43.6574697  60.1995230  59.2654371  42.9945755  60.7931232
  58.3782959  43.1626987  59.5783377  71.0598230  51.2200069  21.1383438
  71.2884140  52.0798302  20.7852364  71.8453979  50.6896639  21.0047770
  21.9586396  22.3144770  59.5462084  22.6194334  22.2151399  60.2315664
  21.1242628  22.1873212  59.9977398 111.0734636  60.3003871  95.6752336
 111.5501386  59.5117431  95.4162834 111.5385658  60.6180864  96.4491703
  16.2268436  41.2204170  34.6685505  16.7108452  42.0462370  34.6680832
  15.9623504  41.0973024  33.7568951  76.0221529  37.2281051  28.4439564
  76.1202860  37.7562571  27.6517057  75.8744478  36.3387942  28.1221819
  29.7962666  53.5201979  34.4475055  29.8037481  54.3664122  34.8948288
  30.6567836  53.4610558  34.0324783  96.2510777  24.6739125  28.2793474
  96.0333252  24.7364902  29.2093444  95.6668186  25.3014278  27.8537989
  78.8832344 110.2741392  14.9898326  78.3578079 109.9432987  14.2613387
  78.2665247 110.3414142  15.7187867  19.3368548 109.0852171  64.0616369
  18.4698694 109.0797494  64.4672728  19.8770302 109.6036817  64.6579885
  67.7511311  21.6791081   9.5232832  68.3241272  21.1144662  10.0420201
  68.1127167  21.6386962   8.6379284  52.7415991  53.7096691  22.0876551
  52.0455408  53.5407400  22.7226353  52.8835726  54.6551561  22.1337676
  47.1547747  48.8840866  59.8067093  46.8093300  49.7755289  59.7594833
  46.3774252  48.3289242  59.8679686   1.3681811 109.1573497  53.6987114
   1.7668503 108.7238313  52.9441547   1.8895119 109.9505578  53.8222694
  55.1476336  15.1014698  40.6966543  55.9920692  15.2402270  40.2678156
  54.9598408  14.1727304  40.5609751  66.9763517   9.0847492  67.4047661
  66.5473890   9.7034401  66.8136263  66.6707563   8.2252419  67.1147823
  87.3497772  40.2915192  25.0809169  86.8346405  40.8795929  24.5286107
  86.8492031  39.4757509  25.0943041  36.4821815  30.7578206  17.1200538
  36.9467282  30.3599715  17.8563583  37.1511126  30.8631039  16.4435351
  33.3614635  46.4201736  39.5053315  32.4288321  46.2174654  39.5784092
  33.7221432  45.7035112  38.9832830  96.1252917 106.2607248  45.0263596
  95.3788317 106.2013878  44.4301128  96.0132528 105.5219896  45.6246471
  11.3159430  18.0502605   3.7014288  10.6357086  17.4857354   3.3342439
  11.8496406  18.3032298   2.9481655  41.3957596   5.6989872  27.5427437
  42.2008801   5.6502610  27.0273376  40.9198284   6.4430106  27.1737599
 103.4319938  98.3189387  31.7152929 103.3694995  99.2521651  31.9187999
 102.5259889  98.0427403  31.5770864  14.4435310  27.0731115  49.5090675
  14.1336644  26.1713791  49.4248343  13.6453915  27.6015115  49.5102930
  35.8674288  20.2909374  75.7795763  35.5069613  19.6976626  76.4386082
  36.6043997  19.8105335  75.4023266  46.6529465   2.2282290  18.0818975
  46.1894512   2.2055469  18.9190888  46.4253759   3.0782056  17.7050900
  62.4544764  41.9957161  15.7325351  62.4369860  41.0759354  15.9969664
  61.7832136  42.0625019  15.0534379  60.6715441  25.5859756  15.3355229
  61.4942646  25.9367681  15.6765640  60.1734161  26.3589740  15.0698662
  56.8438101  46.7948914  59.7019625  56.7494106  47.7462006  59.7502089
  57.6871109  46.6164684  60.1181841  58.5550261   2.2776188  29.6883965
  58.0205107   1.4895555  29.5910263  57.9885530   2.8956866  30.1502752
  53.5126829  12.7246797  44.3174314  53.1165886  13.0461562  45.1273632
  52.9486609  13.0655658  43.6232328  49.6384287  43.3304071  30.1762676
  49.2771101  44.1668034  29.8828173  48.9647770  42.6875210  29.9546218
  39.6303630  41.5638971  16.2819242  40.1253414  42.3120642  16.6157961
  40.2948093  40.8997583  16.0984433   4.3443272   8.0205506  19.7057223
   4.2999968   8.8223201  19.1847301   3.8181362   8.2102585  20.4824877
  67.1128941  39.3885541  54.5957613  67.8630209  38.7942219  54.6132708
  66.6957951  39.2730188  55.4495239  71.5691454  71.2570061   8.5463974
  72.0048506  70.9317900   9.3341896  71.7125565  70.5720665   7.8933117
  33.5251665  29.1458416  19.4566309  32.8484297  29.1236901  20.1332164
  34.3405652  28.9743686  19.9277508  30.5025411  15.7916057  40.1606989
  30.3967667  16.3012397  39.3573809  31.0788393  15.0690031  39.9117780
  76.3991833  17.2434568  25.6795502  76.5158033  16.3243365  25.9200692
  76.3396358  17.2353470  24.7242379  19.6481341  98.0876751   5.1415789
  19.7203367  98.1696136   6.0925287  18.8664406  98.5921259   4.9163759
  74.1880560  45.9974480  27.8905725  74.7585821  45.2557325  28.0920601
  74.0057135  46.3972855  28.7409329  49.5452785   6.9508284  30.2045274
  50.2304459   7.6165366  30.1444411  49.1703320   7.0710963  31.0769844
  94.4599141 111.1771233  61.0335493  93.5053171 111.1851622  60.9634733
  94.7314418 112.0340369  60.7046032  55.4123116  53.4863710  20.5730128
  54.4701529  53.3359146  20.6500578  55.6991863  52.8690863  19.9000359
  11.9468510  46.6770744  37.9379416  12.2295177  47.0393896  37.0982647
  11.1747146  46.1529970  37.7249098  73.4037495  50.5135298  37.9438162
  74.0977716  50.6507444  37.2990394  73.6709595  51.0380316  38.6986184
  50.1879978  83.4820080   3.5175925  49.3445301  83.3279133   3.0920985
  50.8002567  83.6161232   2.7941376  60.8321571  47.5425100  39.1399312
  60.4754162  48.3231688  38.7162113  60.3713369  47.4928284  39.9774337
  46.7507029  51.6076040  47.4073792  45.8400011  51.4074898  47.6237154
  47.1127272  51.9766092  48.2129908  36.2211800  42.1915770  50.9384108
  35.9215212  42.1540451  51.8467188  35.6151485  42.7968454  50.5110836
  44.8343325   0.2100708  77.6316500  45.5460453   0.7586020  77.9615164
  45.2730036  -0.4682668  77.1181726  55.1209021  34.6582985  22.4670887
  54.4664335  34.2817211  21.8787909  54.9433470  35.5987716  22.4522996
  21.8795657  68.3262396  15.2367544  21.6912317  67.9323244  16.0885715
  22.2527289  67.6121998  14.7199130  49.0465355  34.8195791  71.1064672
  49.1000986  33.9643025  70.6800127  48.2018518  34.8102713  71.5566349
  55.5291557  26.1919355  92.1278763  55.1747322  25.6208158  92.8093719
  55.6751680  25.6114388  91.3809204  36.9031215  23.9795351  32.0326376
  35.9971189  23.7430143  31.8340111  36.8872881  24.9321628  32.1247149
 100.5992699  14.9111795  29.0621781 101.0605049  15.7409585  29.1844773
 100.8876324  14.3666375  29.7946763  66.3224602  42.8852654  10.9973657
  66.0561371  43.7806749  10.7886887  65.7141972  42.6079702  11.6824615
  50.4895687  50.8566523  19.5540464  50.6590033  49.9792147  19.8970139
  50.1083946  50.7062101  18.6890006  42.2878122  20.0193381  50.8023357
  43.0759287  20.5610967  50.8423424  42.6123047  19.1202962  50.8539248
  35.9498262  31.0911632  64.9646282  36.4179826  30.7179499  65.7114697
  36.4579487  31.8666816  64.7266865  93.1549644  54.7689629  30.2334476
  93.8961792  54.9664116  29.6608710  93.0262280  55.5689383  30.7430577
  40.4345465  44.3707514  64.8444653  39.7916317  43.8222122  64.3950272
  40.9666109  43.7535906  65.3467131  64.3859196  43.4117413  30.6428146
  63.6326504  43.0246210  31.0888553  65.1461697  43.0211449  31.0737252
  79.0842199  58.6832428  10.0759923  79.6801090  59.4315338  10.0412476
  79.6264839  57.9336405   9.8304629  54.5556068  46.6312361  22.8817463
  53.9328480  46.0781956  22.4099994  54.0371752  47.3814869  23.1725788
  49.3572474  38.0151367  45.6940556  49.0044355  38.0228853  44.8042822
  49.3655014  38.9356279  45.9564638  52.5809526  45.3722954  37.8757572
  53.3970499  45.5836821  37.4224043  52.1224213  44.7799492  37.2798491
  33.3207822  29.0289259  14.3189025  33.9535046  28.8244915  13.6303532
  33.8418937  29.0610981  15.1211727  46.5520144  39.3005371  51.2911701
  45.7038641  39.6769118  51.5261650  47.1377277  40.0544548  51.2220430
  51.5569544   5.0036931  52.0152187  51.4958239   4.0492380  51.9763613
  51.8810892   5.2583033  51.1513090  65.6951141  23.1437945  49.5619726
  65.0232363  23.7554383  49.2608023  66.1144400  23.5914302  50.2968311
  73.9357853  35.9751534  43.2874060  74.4006777  35.3687143  42.7109194
  74.1478109  35.6754136  44.1713905  31.4679122  28.8693643  25.3368258
  31.0760975  29.1523719  26.1630344  32.3101997  28.4906340  25.5885100
  93.5946352  74.2728394  88.4330466  94.0337593  74.7998219  89.1006484
  94.1740543  74.3184655  87.6725039  27.9824924  23.1641293  34.6240759
  27.6588178  23.3461738  33.7418485  27.2889590  23.4796095  35.2034855
  42.9472351  12.4452579  32.0945573  43.6274624  12.1222663  32.6854873
  42.6366282  13.2521892  32.5051880  25.6819677  16.2666786  12.8380585
  24.9333668  16.8414176  12.6783645  25.5919361  16.0051310  13.7544203
  38.8764024  40.7337809  31.4191222  38.3363318  41.5197802  31.3369083
  38.3076525  40.0964880  31.8511081  83.6374664  22.8509974  35.0755978
  82.8515530  23.2564497  34.7093058  83.3408451  21.9985676  35.3943658
  39.9454188  59.6254349  25.7568979  40.3903627  59.4271898  24.9329114
  39.0612698  59.2773151  25.6414604  30.1981068  16.9243562  13.7773860
  30.4983974  17.0282447  12.8744662  29.9477172  16.0027468  13.8419843
  79.0643406   9.7754568   1.2709314  78.7527704  10.5457497   1.7461206
  79.8191595   9.4719958   1.7753032  62.4987334 106.1420889  31.5526891
  63.3921545 105.8115227  31.4590716  62.5913065 106.9371740  32.0775723
  46.2817001  23.6021185  49.5915413  46.1129427  23.0300760  50.3402185
  46.0792637  23.0624437  48.8273430  25.4165602   9.3871087  59.4213820
  25.2106333   8.7428325  60.0986814  26.3139296   9.6587747  59.6141434
  38.2466334 101.5170951  39.2461348  37.7741783 102.3210097  39.0299416
  38.6406582 101.2409527  38.4186554  44.4607210  35.3127575  35.0437021
  43.8567400  35.7878542  35.6144238  44.4254923  34.4089890  35.3570604
  75.1442766  42.1663523  25.6121302  75.9960032  42.3794031  25.9934402
  75.3470278  41.8643475  24.7267389  57.2634363  23.9925623  86.1138725
  56.3313961  24.1739035  85.9928513  57.2962618  23.3962393  86.8619061
  24.6747899   9.7722328  48.1562710  24.5139933  10.6931221  48.3620358
  24.2914867   9.2923063  48.8904238   6.5976107  38.5180306  14.2139637
   7.5045383  38.8235569  14.1947341   6.1628771  39.0144825  13.5205829
  36.1609507  34.0124893  27.5072455  35.3685331  34.3750429  27.9033017
  36.7356086  34.7683668  27.3862076  60.2674294  52.4995518   2.5579387
  60.0710154  52.8654432   3.4203637  59.7437477  51.6996193   2.5122154
 108.9964390  48.2871294  60.0570774 108.6991405  48.6149073  60.9058428
 108.3904457  48.6741638  59.4252396  92.3795414   6.4583641  49.9464226
  93.0662060   5.8508658  49.6713400  91.5736103   5.9435999  49.9048948
 105.2183038  78.4950393  89.0427956 105.4022676  78.0876535  88.1963757
 104.2922241  78.3115357  89.2007008  79.6914721  47.6440048  17.3456657
  80.0763512  47.0170116  17.9580188  80.3655243  47.7714443  16.6780996
  90.2123059 102.1050877  44.7103930  90.3718174 102.5564111  45.5393076
  90.5590678 101.2234445  44.8471165  47.7927685  10.3202271  18.4817588
  47.4512148   9.6878517  19.1139567  48.7341785  10.3455305  18.6530387
  53.6024904  27.1293259  36.6006041  53.6419535  27.5775146  35.7557368
  53.7180185  27.8259015  37.2468781  68.3023453  16.4905047   8.5381854
  68.2563019  16.3139856   7.5985301  68.0024815  15.6797028   8.9491767
  28.6748838  10.8317852  43.0740643  27.9401398  10.7282484  42.4693632
  28.5769343  11.7187643  43.4203386  61.4554358  52.6880312  28.2032323
  61.5518665  53.1955814  27.3974228  62.2538090  52.8710318  28.6985493
  65.0722742  26.9940972   5.8514327  65.9070778  27.0180535   6.3191491
  65.0546360  26.1314774   5.4369324  52.2455692   5.9412909  76.1020708
  52.4721432   6.8703419  76.1440182  51.3289070   5.9305108  75.8266735
  68.0091000  71.7434311  25.3391528  68.6666679  71.5972090  26.0191941
  67.5373411  72.5252390  25.6262970 105.2584171  70.5855083  49.3068647
 106.2145233  70.5784130  49.3521070 105.0535965  71.2757635  48.6761284
  55.7965183  58.5510159   2.1693255  56.6593361  58.9246035   2.3488018
  55.2325106  59.3103790   2.0227174  58.0445719  35.4342914  26.6477776
  57.3020267  36.0264087  26.7671657  58.3626032  35.2670479  27.5349736
  49.0752220  55.7352018  50.2883863  49.2580986  56.0565710  49.4054890
  49.4279480  56.4111137  50.8671474  60.4279327  37.1815729  17.7291489
  61.2753344  37.0425057  18.1520009  60.5952168  37.0240808  16.7999327
 103.8133222  96.5268653  95.3782669 102.8765137  96.7229455  95.3650360
 103.8575918  95.5711764  95.4087644  62.5039339  66.3035202   0.3168821
  62.9065323  65.9443474   1.1075395  63.2188749  66.7544556  -0.1322813
  69.8987293  42.9461432  20.8561230  69.5298290  42.2522259  20.3096628
  70.8004904  42.6692343  21.0185385  68.8524199  14.8314524  43.1941462
  68.4532213  15.1871848  43.9880753  69.3018293  14.0385354  43.4866285
  81.4322186  25.9416032  22.6088357  80.9847260  25.1533079  22.9163599
  81.5794659  26.4579773  23.4012437  90.2557182  30.6983042   8.7714833
  90.7203388  31.2230825   9.4233775  90.8764076  30.0103855   8.5311919
  59.1295052  37.6447558  66.1345816  59.6803093  37.1954417  65.4935169
  59.6834183  37.7263212  66.9109583  33.6437321  11.5703058  14.8471534
  33.1831050  12.4087358  14.8801351  34.5311975  11.7954171  14.5679343
  69.0940189  79.6366215  30.4073048  69.2592192  78.7819815  30.8054590
  68.2857561  79.9409199  30.8200336  43.6540365  20.9151125  17.7235544
  42.7764177  20.6030583  17.5030124  44.0859413  20.1569557  18.1171131
  67.2926044  15.8419514  64.0626383  66.9260359  16.4336705  64.7196960
  68.2246447  16.0586286  64.0385675  78.6766911  46.0071945  20.6391025
  79.3143082  46.6416216  20.9664845  78.0104446  46.5396547  20.2045584
  67.7893019  47.9954863   5.2916265  68.6699343  47.7510500   5.5761635
  67.2091627  47.6021910   5.9435403  69.9339581  35.7966709  34.4136858
  69.3452311  36.1835265  33.7656307  70.5892038  35.3308868  33.8941431
 117.7135544   6.0791355  64.3373728 117.8801335   5.7233059  65.2102232
 117.3413782   5.3461945  63.8469458  23.6380935  39.2787766  51.5723944
  23.9090466  39.2187643  50.6563091  22.7073216  39.0556479  51.5619755
  93.8268978 102.6188176  86.7881432  94.5877821 103.0347484  87.1934637
  94.1489345 102.3002046  85.9449294  55.9516430  33.9179301  56.3496923
  56.7650938  34.1392398  55.8963156  55.5550575  34.7641182  56.5568590
  81.6183758  44.0448332  17.0059800  81.3470364  43.6959362  16.1569357
  80.8242321  44.0204859  17.5398064  91.3420773  23.4856200  38.6394143
  90.7291603  22.7607036  38.5166931  92.0290947  23.3307552  37.9911399
  58.4829330  27.4300337  37.2404480  58.2265949  26.6237068  37.6880646
  59.3638277  27.6150703  37.5660539  59.1841459  48.9251328  23.4199977
  59.1829681  49.5467043  24.1479254  58.3283901  48.4989309  23.4675932
 100.9749586 100.6167596  82.3892155 100.5256349 101.3858026  82.7398065
 101.5986902 100.3715175  83.0726257  52.1459866  61.0789442  18.4105492
  52.6161385  61.7936850  17.9812074  51.6180277  60.6874609  17.7146792
  50.1011133  35.8454895  18.1793463  50.3058577  36.5481734  18.7962306
  49.7743988  35.1325798  18.7282073  63.1803942  52.3132467  35.0153136
  63.5147142  52.8618908  35.7248569  63.9518070  51.8530893  34.6845412
  16.3296008  45.7632732  57.8640270  17.0255744  45.7109833  58.5190964
  15.6892371  45.1084232  58.1421232  43.3613062  31.5923643  15.2274454
  43.8869381  32.3921633  15.2437520  43.3806181  31.2746191  16.1301625
  65.2409172  53.4267569   5.3564221  65.8577776  53.1806183   6.0457182
  64.4766235  52.8711653   5.5094016  62.3453951  46.4459324  46.0163355
  62.2554874  45.5155754  45.8099747  61.7376947  46.8833494  45.4200172
  50.8263826  35.8022547  45.4691410  50.3755760  36.6419196  45.5584097
  50.3395796  35.2072287  46.0394049  77.5946760  40.6433010  32.5332856
  78.1916666  41.0312891  33.1730485  77.0658159  40.0282288  33.0414510
  48.8460732  39.9187994  59.1392946  48.1757069  40.0545740  58.4696627
  49.6599150  40.2057648  58.7251139 109.5226765  19.3691409  41.1704636
 109.6959877  20.3096461  41.2109947 108.6795521  19.2617714  41.6107416
  79.0133905  10.9860897  28.2333398  79.4159603  11.1987603  27.3913550
  79.4296694  10.1655996  28.4974170  56.4764833  31.6274309  43.7176704
  56.7146826  31.8795037  44.6098328  57.0472479  32.1552181  43.1591892
  61.5057850  45.0172901  37.5460958  61.9464684  45.5129671  36.8559289
  61.0122538  45.6752682  38.0357122  55.4285002  32.4735641  16.1043036
  56.1367846  32.8399229  15.5748236  55.8302832  32.3018742  16.9559634
  71.3706923  44.3328333  46.6405964  70.9758663  45.0238848  47.1723843
  72.1704054  44.0963984  47.1104765  55.2127695  24.5672345  53.4636974
  55.0425673  24.1792107  54.3220091  54.9297905  23.8997388  52.8387165
  92.9116631  31.7229080   7.2445071  92.2450161  31.5457273   6.5808725
  93.1498814  30.8591557   7.5812805  24.2422628  40.3923082   8.6143285
  24.4720578  40.5110979   7.6927459  25.0835872  40.2948666   9.0603203
  88.4613800  49.7953367  43.6170292  88.7195683  49.9941969  42.7170134
  89.1434288  49.2048359  43.9369488  55.1280165  45.4401350  36.3940787
  55.8518839  44.8201513  36.4827895  55.4889679  46.2743044  36.6942620
  67.9686451  35.0997829  48.1061935  68.6438131  35.3193474  47.4641848
  68.4413481  34.6501493  48.8066339  47.5531960  20.5290914  12.3927248
  47.7773571  21.4555335  12.4804103  46.6637468  20.5303168  12.0390177
  56.0541391  20.1440430  46.9825077  56.1703348  20.6993556  46.2115622
  56.1735725  20.7365966  47.7247000  77.8247356  70.4501820  38.9492679
  77.6015472  69.6565533  38.4628773  77.9506874  70.1516294  39.8499560
  59.6615076  50.9431362  21.3464761  59.5836115  50.1523399  21.8801475
  60.5767632  50.9539032  21.0664344  61.1167574  61.5850258  19.5988333
  60.3218508  61.8286991  19.1245162  60.9466028  60.6962061  19.9107325
  27.1091866  43.9361382  37.8416109  27.7927327  43.4270954  38.2773542
  26.7675400  44.5127439  38.5250115 103.3722019  11.8073237  54.9916744
 102.9726410  12.6550090  54.7966909 104.1826248  11.8017066  54.4823408
  85.7784271  24.5632052  12.8801811  85.2332306  24.0293550  13.4581065
  85.2708244  24.6360636  12.0719337  61.9668722  52.3257017   9.7021306
  61.8612814  51.6043091   9.0819091  62.1645260  53.0854464   9.1544503
  55.9012508  28.5399318  28.7300181  55.4936218  28.1071496  29.4801998
  55.1672983  28.9075899  28.2377076  81.8830681  64.5878506   2.8790388
  81.9301891  63.8990355   2.2160585  81.2526703  65.2163076   2.5270832
  86.7434120  71.3657427  13.0818427  86.5790749  71.7602539  12.2253466
  86.2268734  70.5598879  13.0774391  22.7065110  30.0243688   8.0944049
  22.3091388  29.9983168   8.9648354  22.7281165  30.9543324   7.8687149
  57.1032763  29.8768783   4.4964740  57.0486975  28.9289141   4.6173659
  57.9882812  30.0252843   4.1633469  75.0139856  63.3681870  19.3416500
  75.2051449  63.1217766  18.4366798  75.0333023  64.3251896  19.3384862
  59.7889709  41.4572906  16.9308853  60.4434776  41.8944883  17.4755919
  59.0779972  41.2442017  17.5353205  78.6197042  41.2212801  16.6171837
  77.9877424  41.3076448  15.9034610  79.3785429  41.7278862  16.3277936
  75.9712505  55.0421238  25.2593708  76.9150305  55.2015829  25.2682424
  75.8089209  54.5213842  26.0459518  53.0288124  23.5121059  23.7328529
  53.7046671  23.6637187  24.3935084  52.6049137  24.3634105  23.6241198
  89.2900783  84.4440287  78.3977523  88.7756569  83.7158364  78.7460878
  90.1983005  84.2069858  78.5853162  86.9881821  24.4570565  27.3590279
  86.9615078  24.1421628  26.4555001  87.3372459  25.3458691  27.2926974
  54.6576786  62.0316601  12.8047121  55.1660442  61.6131115  13.4994149
  54.8975801  61.5534163  12.0110095 112.9821396  41.0735607  15.8067048
 112.2066593  41.5332079  16.1285603 112.9259586  41.1471224  14.8539901
  58.1616688  46.5531731  37.2198462  57.7819157  47.1104622  37.8991461
  58.9027405  47.0569658  36.8833327  70.4326439  51.7898417  57.6440430
  70.1581144  51.4906740  56.7772293  71.1117506  51.1689472  57.9077435
  70.6445980  17.3824358  35.3423262  71.0128736  16.5027535  35.4245472
  70.9927273  17.8592217  36.0957932 102.8523922  43.7495995  21.1326361
 103.6742401  43.5019159  21.5562606 102.2755623  42.9984283  21.2713289
  55.1891041  35.9994721  13.4711814  54.4447184  35.5349636  13.8537431
  54.8768377  36.8966365  13.3536386  64.4713926  26.2773180   8.9144337
  64.2107058  26.2338591   7.9944426  63.6498404  26.2027693   9.3999505
  80.1292610  57.8944063  17.1264744  80.9351826  58.3324194  16.8528450
  79.7830915  57.5060034  16.3230193  49.6890926  16.7630327  19.1731584
  50.0456285  17.2565019  19.9118066  48.9641905  17.3003495  18.8537145
  31.5552235  55.5404139   7.4875057  32.1707797  55.0146914   6.9766831
  32.1093869  56.1406612   7.9863447  77.6683807  51.6358185  26.2062192
  78.4538651  52.0389318  26.5760159  77.7743053  50.7006359  26.3807058
  49.3833351  46.6914082  45.8869886  49.0011835  46.0512018  45.2867126
  48.7805033  47.4344492  45.8602285 100.1315022  85.4496384  37.0001221
 100.5402470  85.1964760  37.8278112  99.9892521  84.6222496  36.5403104
  68.7815952  73.4245491  55.9452868  68.2818174  72.7534103  55.4804897
  69.2762136  73.8728952  55.2593088  87.0161915  45.6054926  15.9336483
  86.3935852  45.1098871  16.4655924  87.6270008  44.9465322  15.6036270
  47.2410679  14.8163044  24.5111227  47.1229696  15.6508088  24.9648714
  46.8955517  14.9707353  23.6319184  44.7995615  23.2195592   8.7973958
  44.9841166  23.8720942   9.4729465  44.2654514  23.6853814   8.1539917
  14.4510859 108.3759988  52.3788548  14.9533861 107.7336840  51.8774986
  14.8314017 109.2200921  52.1357536  39.4373822  37.4675989   2.0267853
  40.2302504  37.9913139   2.1421792  39.6032643  36.6685057   2.5269479
  42.7015114  45.5479002  10.6939530  41.8967438  46.0119820  10.4632950
  42.5454617  44.6452570  10.4162502  52.7878332  56.6336823  21.4398551
  51.9021082  56.7312098  21.0902667  53.3429670  56.5468025  20.6649280
  46.2176180  33.1403470  21.0612869  45.5427027  32.4623561  21.0289264
  45.7583570  33.9468503  20.8270574  76.3353014  37.6515222  50.0298452
  76.8734598  36.9043231  50.2912092  75.8124685  37.3255491  49.2972994
  64.4565535  24.2679286  23.1444025  64.5606565  23.4993291  23.7053370
  64.4572306  25.0087118  23.7505960  69.5336628  19.2021585  23.3463717
  70.4537821  19.4076025  23.1808448  69.3105316  19.7126794  24.1247129
  54.4182158  42.8255081  59.3311453  54.4227791  42.9582453  60.2790880
  54.1523361  41.9129181  59.2183638  83.5119724  18.6277711  42.0322561
  83.2891178  17.9309833  42.6495504  83.9211178  18.1734586  41.2957525
  66.3478756   8.3117580  35.1630569  66.6221523   8.6209470  34.2996883
  66.4676046   9.0680295  35.7374692  76.4121246  79.7696209  49.6130180
  75.6499243  79.2013836  49.7243309  77.1534204  79.1670179  49.5531368
  70.0641060  18.8776577  48.1491852  69.8257637  19.3040037  48.9723825
  70.3849840  19.5891666  47.5950861  74.9774933  37.5197721   4.0379083
  75.5888653  38.2511353   3.9509380  75.2098417  36.9270730   3.3230975
  38.2423234  43.3021545  44.3695688  38.5202122  42.4643183  44.7397614
  38.9587712  43.5564327  43.7879562  85.7245255  20.0608754  29.6826386
  85.7290745  19.1548681  29.9914479  86.6135311  20.3747749  29.8480892
  64.8392582  37.6442480  43.1458998  65.2632332  37.7575517  42.2952271
  63.9234686  37.8748083  42.9896879  69.4298369  77.8730410  90.6146666
  68.8173825  78.1061977  89.9169788  69.1715247  78.4234493  91.3539615
  42.1640158  15.9381020  28.6132956  42.9011583  16.2403929  29.1438389
  42.0676184  16.6060805  27.9345155  23.5671711  46.6392517  17.0308352
  23.3014655  46.3141251  16.1706460  22.7944446  46.5168190  17.5823224
  65.3443861  50.4254723  31.1000371  64.9824953  51.1348534  30.5689526
  65.1154089  50.6589699  31.9996381  38.3263803  33.2011533   5.8312535
  37.6693487  32.7113652   5.3366333  37.8191018  33.7158704   6.4589202
  60.6308603  46.9632959  43.8925028  59.9599504  46.6886711  44.5175648
  60.4969883  46.3963795  43.1329536  57.1682024  37.4756145  44.4014168
  58.0756903  37.3309374  44.6693087  56.8590212  38.1786752  44.9726820
  59.4370508  40.0763893  20.0775743  59.4360256  39.4508553  20.8021021
  58.5750103  39.9764919  19.6736753  47.8019428  45.0712109  49.9084997
  47.0750809  44.8152161  50.4762793  47.6528835  44.5877695  49.0959167
  40.2508783  13.3184302  22.2019029  40.6475925  12.6490581  22.7593875
  40.4424763  13.0310047  21.3092041  36.4310861  35.5751872   3.2203439
  36.6348791  35.2502322   2.3433581  35.7530975  34.9820471   3.5439914
  57.5410318  21.6387892  20.1624608  58.3122110  22.2013378  20.0914216
  57.8750324  20.7544136  20.0122857  67.3200464  17.2326183  59.1940641
  67.0889568  16.3611007  59.5154476  67.1379375  17.8157175  59.9309921
  15.4678047  28.8250971  37.2220373  14.7761261  28.1728745  37.3334694
  15.8677876  28.9004397  38.0883908  69.4896269  31.2379789  30.6702685
  69.9926519  32.0502687  30.7284331  69.6545362  30.7940507  31.5021110
  22.2165704  52.5268888  61.5717888  21.4536595  52.8882980  61.1205864
  22.0574665  51.5832424  61.5930653  45.7289934  29.7928023  26.5005350
  45.9533978  29.8786449  27.4270892  46.1134005  28.9565825  26.2374735
  50.4101276  37.7296352  23.7455654  50.8041668  37.7822137  22.8748178
  51.0005808  37.1627784  24.2418242  95.9527683  36.7878222  47.5900888
  96.6192150  37.3047686  47.1374893  95.1539803  36.9292665  47.0819855
  61.6003895  50.4792881  33.7101054  60.9798288  50.4357529  34.4375920
  62.2917891  51.0643721  34.0197611  83.4549457  91.9522589  90.8583090
  83.1652672  91.7575710  89.9670091  84.4047672  91.8365615  90.8321050
  76.3248444  36.9643259  35.9074521  76.7167330  37.8272295  36.0418153
  75.5951738  36.9336724  36.5262198  67.9920530  11.2768018  48.7821198
  68.3150673  11.6718960  47.9723120  68.7814426  10.9823418  49.2364264
  66.1941004  46.5146494  17.6692796  67.0065451  46.1605740  17.3076260
  66.2353230  47.4517155  17.4783885  55.4728842  37.2883940  33.0230403
  54.9445295  37.2698784  32.2250867  56.1847782  36.6714501  32.8532910
  73.4459162  40.5675077  18.1762207  73.1861734  40.4262733  19.0866148
  74.3624401  40.8386993  18.2279575  85.3107548  10.7225585   8.2247651
  85.1398373  11.0081601   7.3272967  85.1168919   9.7852141   8.2188475
  60.3918028  38.2808852  40.1709986  59.9577618  38.8108039  39.5023990
  60.3197765  37.3824930  39.8486066  49.5837164  58.5439777  48.8233757
  49.0236950  57.9153395  48.3679390  49.0340137  58.8884449  49.5272255
  76.0848236  43.2399273  50.5650806  75.3612852  42.7320623  50.9322309
  76.8714809  42.7672625  50.8370829  51.3348627  26.0281253  75.3429413
  51.9930506  26.6784453  75.0977898  51.2009573  26.1646724  76.2808418
  53.7255907  15.2889740  36.7326522  54.6666336  15.2083158  36.8881011
  53.3943176  14.3933451  36.7985344  60.2120209  40.3940248  25.4208159
  61.1465788  40.2978086  25.6040406  59.9605751  41.1984825  25.8745337
  57.1989441  10.6876206  41.9863939  57.7948093   9.9479985  41.8674946
  57.3117399  10.9411955  42.9024744  56.7858887  14.3396401  46.6399813
  56.5832853  14.2293108  45.7109976  57.6351118  14.7811997  46.6491175
  69.0205431  46.9871616  13.5576916  69.9413681  47.2342348  13.4724128
  68.7628937  46.7154503  12.6767707  74.7324800  33.8117290  54.9795580
  74.7358799  34.2513227  55.8298397  74.6848297  32.8796220  55.1920176
  71.6867638  31.9474697  21.9683671  71.3124084  31.3076353  22.5739241
  72.2959709  32.4559569  22.5036550  64.4656229  72.8728056   9.0558690
  64.0896797  72.6226568   8.2118762  65.0463009  72.1468592   9.2840141
  62.1178818  60.3363562  22.8079247  61.8529034  60.2441406  21.8927646
  62.0857000  61.2787008  22.9728007  59.2071056  26.8920803  27.1239829
  59.9558926  27.1763587  27.6481318  59.0453720  27.6194477  26.5231395
  98.2887840  35.5213571  38.8384843  98.8825035  36.0759473  39.3446136
  97.5155163  35.4280114  39.3948793  42.7537680  57.3253107  35.2794766
  43.4253788  57.2736263  35.9595513  42.9423380  58.1425905  34.8182559
  58.2243443  29.7155523  22.3715425  57.6081562  30.3856301  22.6674199
  59.0722704  30.0040412  22.7092171  66.6957569  39.3248749   0.4615846
  66.2500381  39.8851633  -0.1737438  66.5610266  39.7619724   1.3024324
  60.6542063  33.8117909   5.0444198  59.9168825  33.6522436   5.6335980
  61.2152100  34.4223285   5.5226964 110.2068329  19.6112573  55.9558725
 109.4644833  19.2034674  56.4018106 110.9095287  19.6049964  56.6058064
 113.8761026 106.8340867  93.8870936 114.5032865 106.1289495  94.0472746
 113.9561064 107.4041026  94.6518887  71.5089655  39.3595886  37.9837489
  71.3710260  40.0121880  37.2972226  71.9133139  38.6187458  37.5322175
  43.7372732  37.9534268  12.7170014  43.6626148  38.8316226  12.3435974
  44.0654659  37.4142909  11.9973814   9.7031515 107.7230276  45.8024120
  10.0804919 107.3655177  46.6061735  10.4440468 107.7928207  45.2003908
  47.8875017  17.6929164  33.9279246  48.6061907  18.1778121  33.5222220
  48.0335617  16.7840552  33.6654949  47.0261574  32.4744058  17.2205663
  47.6806164  32.5608444  17.9137099  47.5385618  32.3561335  16.4207602
  55.3887558  27.0227575  17.9295981  55.1877689  27.9436779  17.7630401
  56.1436319  26.8375254  17.3709548  51.1781311  36.9573903  53.6364269
  51.7842531  36.9858289  52.8961325  50.3098774  37.0133138  53.2373762
  73.3167839  19.4096136  58.9471674  72.8776503  18.5656559  58.8416719
  73.5772371  19.6566606  58.0598354  46.7133522  61.3091707  35.2501035
  46.6340876  61.7449141  36.0986805  45.9565687  61.6168451  34.7512579
  20.0303763   3.6238240  96.3432427  19.6323126   2.8146551  96.0222687
  19.5014685   4.3211172  95.9555918  68.4097099  86.1848450  65.8924294
  68.1487417  85.2858067  66.0920763  67.5844336  86.6463375  65.7434940
  80.3922844  12.1554780  51.2748718  80.7914925  11.2863004  51.3122034
  80.0137806  12.2827661  52.1447945  86.9455719  77.9129648  33.2084966
  87.7364349  78.1288767  33.7026024  86.3448524  77.5553131  33.8622975
  64.0918827  49.4281387  12.5804079  64.4440746  50.1501751  12.0599663
  63.7815523  49.8423767  13.3856010  72.0030499  43.3633089  14.7066200
  71.4669561  43.4267521  13.9161706  72.5702190  42.6080275  14.5513749
  32.2837186  64.0539742  12.4063933  32.0274234  63.1332016  12.3542249
  31.6450310  64.5117044  11.8597746  34.3634939  38.0561662  62.5639248
  33.4365749  38.2214522  62.3915005  34.7623658  38.9260864  62.5832081
  98.8540459  53.0994749  42.7198076  98.4390926  52.8329182  41.8994427
  98.9672089  54.0461206  42.6344347  44.4771433  51.2874365  53.6238718
  45.3878212  51.1742640  53.3516884  44.0686703  51.7641401  52.9012823
 100.8409309  25.5193734   9.5248586 101.0855389  26.3874245   9.2040950
  99.8862076  25.4998922   9.4588268  47.5035048  22.1244860  27.3639035
  46.9542551  22.8962779  27.2264528  47.9396200  21.9880104  26.5228271
  59.4997025  23.6226845  19.9380982  60.4081774  23.7815619  19.6818411
  58.9804840  24.0367436  19.2487526  74.0139008  61.2973213   3.5885501
  73.6832523  60.4367495   3.8460761  74.9004555  61.3306332   3.9479247
  68.9413643  59.1595125  23.9465189  68.9181042  59.5737362  23.0839014
  68.0394030  58.8793325  24.1020679  70.7335758  46.3116693  48.9591408
  70.7407761  47.2656775  49.0368843  71.3332987  46.0111856  49.6419859
  69.6833658 103.2897758  37.4048495  68.9906120 103.2345581  36.7466140
  69.2492628 103.6456966  38.1801581  73.4454441  72.9410267   7.7651089
  74.1972780  72.5751781   8.2310790  72.6843262  72.5504160   8.1944710
  98.6035442  29.4736195  13.8417900  97.8961468  28.9120817  13.5247660
  99.2420864  28.8664126  14.2156672  93.6318302  26.0510755  40.9322119
  93.7541199  26.9384766  41.2695456  94.5185280  25.7394791  40.7508230
  63.9110184  60.8106375  34.0926576  63.7604141  59.8698616  34.1848302
  63.6620045  61.1773157  34.9410486  96.7062759  29.5675325  29.3720913
  97.5012589  29.1674137  29.0197372  96.7557049  30.4824924  29.0952539
  76.6375399  47.8881359  36.1201525  77.5242281  47.5286102  36.1476135
  76.3654995  47.7852249  35.2082133  71.5007210  98.9452171  25.4511929
  72.1876097  98.3275414  25.2004313  71.0016966  98.4869480  26.1273527
 113.0206299  67.6940060  35.0297904 112.3266506  67.4839926  35.6547070
 113.7295341  68.0456305  35.5683470  70.9795570  76.3100958   3.5946655
  71.7885447  75.8061123   3.6827910  70.7599688  76.5690088   4.4896394
  65.9720182  78.2102346  76.0403776  66.2063551  79.1321802  76.1468506
  65.1894426  78.0981493  76.5800428  10.4506449  59.6593332   6.6564196
  10.4212241  59.4636822   7.5929481  10.8967738  58.9065933   6.2683767
  75.8689547  47.0410585  25.2700901  75.5463648  47.8560400  24.8854136
  75.4444885  46.9961357  26.1268520  80.5807590  55.5516577  42.2326946
  79.7863102  55.9260225  42.6133919  80.8090591  56.1484766  41.5200138
  84.4556999  71.5924740  22.8098774  84.7866535  71.7476225  21.9252110
  85.2019405  71.2254095  23.2838178  72.4115038  63.3227301  35.1050401
  72.5140095  63.9469194  35.8234453  71.6642284  63.6525249  34.6059942
  80.2547646  48.8849592  34.7618580  79.7607374  49.1007376  35.5528092
  79.9546480  49.5197916  34.1113591  71.3442850  57.4187279  65.7406092
  72.1151447  57.9726028  65.6171799  70.6070232  57.9747152  65.4885006
  95.9972858  30.4419470  52.3848677  96.4488506  31.2374091  52.6669312
  95.0771713  30.6982732  52.3222208  66.5741301  61.8974257  22.3815465
  67.3226643  61.4114332  22.0355082  65.8922005  61.7910910  21.7182994
  85.2246475  82.8172493  11.8027699  85.4679108  82.2362995  11.0819662
  84.8279476  82.2382355  12.4536192 114.9714279  41.4632988  65.3162479
 115.0802231  40.5332470  65.5147409 114.9431038  41.8893242  66.1729431
 101.1045361  64.2768908  26.0936975 101.9190884  64.7708988  26.1869645
 101.3865948  63.3694601  25.9785914 101.2008572  52.4932814  45.4471254
 100.7391930  51.7974663  45.9150410 100.8739948  53.3031321  45.8389568
  64.8009205  66.3711929  33.9235401  65.5811691  66.6955423  33.4738231
  64.1065216  66.9775391  33.6658740  95.8545971  46.0179329  32.9631042
  96.1233139  45.5624294  32.1652675  96.1913586  45.4734802  33.6747193
  46.6889572  99.7768402  56.3122463  46.8082047  99.6347618  55.3731918
  47.4974918  99.4517422  56.7082453 103.3005142  44.7750759  40.5084991
 102.3876286  44.8624086  40.2342033 103.5226727  45.6300402  40.8771658
  65.6781101  73.3716059  61.1238289  66.2238455  73.4631348  61.9048738
  65.6052494  74.2607880  60.7770109  97.3630810  68.7749481  54.0965223
  97.4063969  67.8523540  54.3478680  96.4265442  68.9687920  54.0572977
  65.1513386  25.1293302  74.9978256  65.8480167  24.4814825  75.1034832
  65.4435635  25.8814430  75.5127621  88.6267662  79.8269272  26.9990659
  88.1592751  79.1776419  27.5245380  88.4640980  79.5639944  26.0931754
  68.5194874  41.4466476  19.0268767  67.9688406  40.6669283  19.0980089
  69.1450310  41.2356758  18.3337557  66.1133289  45.0487995  36.2137818
  65.3996277  45.2167320  35.5984306  66.6325235  45.8528900  36.2036204
  91.6969299  34.9760890  24.9517536  91.2954330  35.7087708  24.4846272
  91.0417461  34.7173429  25.5998397  60.4848146  62.8052044  27.0800138
  60.0929022  63.2658720  27.8219175  59.9481487  63.0597973  26.3294148
 107.6268291  56.6990852  31.8698311 107.0818901  57.1265984  31.2091446
 107.7451134  55.8074665  31.5423298  50.7788706  62.9505110  39.2576814
  50.0161362  62.4952221  38.9010549  50.4987860  63.8625240  39.3352461
  43.4214973  50.4477072  24.6859026  42.6155567  50.9329796  24.5092535
  44.1106272  51.1116600  24.6635675  71.5166664  52.3541212  42.6548004
  70.9179688  51.7347574  43.0721569  72.1348572  52.5922775  43.3457041
  82.4734974  49.2020559  53.6590290  82.6326370  50.1458311  53.6728954
  82.7433014  48.9265108  52.7829552  87.9112816  74.8327446   6.0016990
  88.7885380  74.9366188   5.6331122  87.8286552  75.5506849   6.6293681
  73.1129551  96.5520096  33.4400511  73.6277390  96.2570572  34.1912055
  72.6953173  97.3599911  33.7383246  63.3767366  36.3612247  39.4134903
  63.3338118  37.1749163  39.9157810  63.5238791  36.6443229  38.5110283
  79.7176981  51.6050959  16.0072052  79.1190767  51.9870138  15.3653157
  80.3406048  51.1010885  15.4835701  66.9878578  49.4683075  21.6286516
  66.5685081  49.1627407  22.4330187  66.7633963  48.8060331  20.9750175
  79.0960169  48.9570618  39.7176957  79.5984697  49.0046310  40.5310297
  78.8149166  48.0437088  39.6628904 101.4917946  72.3608971  24.6475220
 102.2209549  71.8695402  24.2692065 101.8375778  73.2447243  24.7720695
  96.3517666  34.7961283  58.8251066  96.4707088  35.6784129  58.4734535
  95.4739571  34.8066854  59.2066479  56.6341257  89.0639877  17.0440006
  56.1534691  89.6252346  17.6524484  56.2692451  89.2747593  16.1845422
  73.4407663  81.6799450  16.0013485  73.7924910  81.2160492  15.2415264
  73.8470125  82.5457859  15.9625125 112.6404953  17.6099265  32.2762656
 112.7595139  18.5227144  32.5387192 112.5534344  17.6440215  31.3236403
  62.1628618  68.0149984  36.9721508  61.8161058  68.2275105  36.1056471
  62.2463942  67.0614529  36.9694448  66.3861513  59.7075272  64.9907589
  65.8640909  59.5507336  64.2039299  65.7474136  59.7193813  65.7035732
 108.1826860  96.7443412  92.0394921 108.9630682  96.3098424  92.3836592
 107.8892833  96.1790317  91.3249490  72.3878717  65.5133677  37.0600533
  72.1062279  66.1184835  37.7461600  72.2491789  65.9947443  36.2444139
  83.1997490  58.1587839  43.0968428  82.3030472  58.3555412  43.3678389
  83.5709000  57.6717615  43.8325691  93.5379124  73.4689236  31.3362098
  93.1825256  73.4261227  30.4484606  93.0127239  72.8430367  31.8348813
  69.5801926  77.0954800  31.4898133  68.6873388  76.7591000  31.4130282
  70.1037502  76.3318920  31.7328238  82.1010685  70.0820160  44.7360468
  82.8211784  70.6298828  44.4237804  82.5028801  69.5062113  45.3866053
  75.6593418  67.6397943  64.0390921  75.4884148  67.4056482  63.1268454
  76.5750933  67.9182959  64.0473413  70.6539249  39.1828322  15.6186759
  71.5302563  38.8769889  15.8526301  70.8050776  39.9925637  15.1311100
  90.0283051  76.1160135  22.1556878  89.7020245  75.2461529  21.9252348
  89.2612457  76.6847801  22.0896864  88.7770939  60.5293655  36.8049979
  88.7005901  60.7740688  37.7272248  87.9156971  60.7209158  36.4341235
  54.0236378  92.8623772  36.7700171  54.2069721  91.9231033  36.7503452
  54.7408485  93.2357216  37.2823215  91.8955326  87.6317692  30.4441094
  92.0701694  87.1381378  29.6428251  91.4937973  88.4460163  30.1410484
  48.1328154  84.1344547   6.8427831  47.9685211  83.3027458   7.2871929
  48.7216568  84.6078205   7.4305052 104.5672703  71.7701435  44.5128202
 103.7506104  71.8363857  44.0179396 104.8225975  70.8511925  44.4317341
  89.3901348  78.5497713  34.3184137  90.1824379  78.2719183  33.8587642
  89.6168423  78.4864902  35.2462220  81.1397934  30.3099227  54.9889326
  81.6198540  30.4511905  55.8049107  81.7740440  29.8906612  54.4074059
  76.5780735  53.3016443  37.7839875  76.9005489  52.7259302  37.0905924
  77.3660374  53.5767221  38.2526851  98.3919716  71.2552404  31.4406133
  97.8133583  70.6472778  31.9008493  97.9645920  71.4000511  30.5964541
  70.7516241  69.9089718  26.5227985  70.8581543  70.8219194  26.7900276
  70.0114822  69.5925903  27.0408010  72.1084452  61.1619806  47.8529263
  72.4028397  60.6244373  48.5881853  71.2101936  60.8740330  47.6902580
  58.4494257  30.4312158  16.5860784  58.4639740  30.4705167  17.5423610
  57.7133894  29.8545671  16.3812351  87.9274368  33.1404686  25.3473544
  87.8028679  32.3510528  25.8741713  88.4069538  32.8400087  24.5753312
  73.7352705  50.6495094  43.8517475  74.3669987  50.1597691  44.3783474
  72.9117823  50.5737066  44.3337727  87.3481941  35.5139136  52.9349375
  86.4155102  35.7147741  53.0123758  87.7682495  36.3665676  52.8219652
  80.0846672  30.1150846   8.0784112  80.5648136  29.5407200   7.4819219
  80.2912045  29.7805476   8.9511418  69.1277313  71.2427235  46.5714073
  69.1415262  70.4313946  46.0636759  68.3384418  71.1755991  47.1087646
  67.5879574  83.6858273   6.6386044  67.0480871  84.4157696   6.3353491
  67.5596380  83.7474728   7.5933975  77.8183556  38.3052039  20.1766348
  77.2198772  39.0215564  20.3885126  78.4824610  38.7058997  19.6157098
   0.0392012  71.9215679  42.7975512   0.0577884  72.1444559  41.8668509
   0.5828337  72.5898552  43.2147884  68.4994125  82.4938297  23.2298470
  68.1505632  82.4882030  24.1211963  67.7744007  82.8102398  22.6908898
  74.1321802  40.4952383  36.7130876  74.9639893  40.8784199  36.4346981
  74.3731928  39.8710060  37.3975420  42.7386427  34.2630863  22.4437571
  42.3953915  35.1563883  22.4643373  43.3887815  34.2724419  21.7412901
  94.1672516  65.4619837   2.5530899  93.2130051  65.4004765   2.5961199
  94.3530655  65.6652594   1.6363645  69.9565840  81.9156075  48.1195211
  69.3365335  82.6374912  48.2227325  69.5813513  81.3751125  47.4243212
 110.0846130  96.5640586  96.4523865 109.4239599  97.0494979  95.9583029
 110.0609381  95.6819862  96.0814144  63.9142752  55.8348513  21.9973803
  64.8221159  55.6035614  22.1937537  63.4190941  55.0358725  22.1781182
  25.5717104 103.5840495  32.8879690  25.2220696 102.8737361  32.3499727
  26.2519758 103.9829076  32.3453951  74.6156549  23.6043453  28.1729221
  74.1527891  24.0882182  27.4889231  73.9806509  23.5301232  28.8853073
  57.4439573  23.4918475  22.8742623  58.1365824  24.1484427  22.9476666
  57.5551653  23.1233478  21.9978642  71.2905216  47.7009201  27.9324031
  70.6748486  47.9896069  28.6060810  72.1531391  47.9093504  28.2911205
  86.3744545  77.2497749  30.6677198  85.6323051  76.6460657  30.6364226
  86.4564037  77.4808168  31.5929937  96.4949703  52.6855278  26.9329023
  96.8715858  52.4496746  27.7807069  96.9424915  52.1175766  26.3056922
  57.0186377  34.4122410  38.0846310  57.2641754  33.5034060  37.9115319
  57.6456118  34.9300647  37.5796652  98.8905048  19.7527337  12.5702012
  99.3833351  20.4587436  12.9884040  98.7148762  20.0743937  11.6859388
  72.1081305  53.2103348  40.1148939  72.0092726  52.8234291  40.9848118
  72.9550076  52.8895044  39.8048973 103.1178951  94.4748211  43.6620760
 103.8568497  94.4198704  44.2680120 102.7347374  95.3359413  43.8290882
  76.6613150  81.5574455  41.6726685  75.9997272  81.7931652  41.0223103
  77.4181223  82.1004295  41.4521122 102.3418808  62.3457766  31.3290358
 102.4832344  63.2820463  31.1888504 103.1411934  62.0449591  31.7612886
  86.5224934  91.0764885  59.5676327  87.1413898  90.6950474  58.9449739
  86.4100075  91.9795322  59.2708206  68.0542135  32.5614333  51.0382223
  67.2135305  32.5670910  50.5805635  67.9660416  31.8683982  51.6925621
  61.7223310  55.5879641  28.6205578  61.8115664  56.5407562  28.6419511
  62.0068312  55.3012180  29.4883513  71.9357347  81.3286114  49.7467852
  71.3643122  81.7246914  49.0888882  72.4102020  82.0674133  50.1279449
  90.1152420  62.7115583  43.7813711  89.7452927  62.2065687  44.5054913
  91.0623360  62.6165247  43.8823605 110.3543472  57.6356363  42.5734186
 109.6881390  57.8370094  41.9162607 110.6194210  58.4895277  42.9152203
  42.3261660  91.3879866  22.1129632  42.9401034  91.8344552  22.6960492
  42.7364844  91.4378257  21.2496018  45.4432440  39.5628262  61.3860226
  46.3409805  39.2346382  61.3350773  45.5086851  40.4810953  61.1238527
  81.2094879  44.5354080  41.1341715  81.3191414  44.3330050  42.0632792
  81.9721699  44.1406775  40.7114124  98.4266567  37.7513623  73.0550289
  97.5982761  37.4660730  73.4405422  98.4441471  38.6976337  73.1981802
  76.9487047  58.4435225  47.2107840  76.7030859  58.5440207  46.2911129
  76.6546297  59.2537069  47.6271439  91.8869114  20.0292516  20.8110905
  90.9851360  20.2146053  20.5490518  92.2625542  19.5636070  20.0638962
  88.3897495  63.5311270  22.2062826  87.4631596  63.6578560  22.4102426
  88.8292694  63.5684395  23.0557895 100.3617764  57.7368879  30.7541561
 100.2204132  57.5307512  29.8301673 100.3595161  58.6934423  30.7892203
  69.7143602  65.9437370  27.5731301  70.5469799  65.4721975  27.5481224
  69.9356842  66.8015003  27.9357457  80.8279514  75.5856895   4.0418789
  80.0131702  76.0564756   4.2171854  81.2718582  76.1139965   3.3785057
  58.1376171  79.4139624  26.2226152  58.6978674  79.7110796  25.5056262
  57.7522898  78.5980511  25.9031725  86.8165874  47.6469088  34.4492722
  86.7706585  47.5168419  33.5020638  86.9499874  48.5887957  34.5555067
  62.1414375  14.6966588  57.5655985  61.8182755  15.3926301  56.9933939
  61.3573360  14.2065179  57.8129435  78.2652950  52.7219725  47.7375364
  78.0270052  53.0683708  46.8776226  78.2744122  51.7721796  47.6190186
  81.4878082  32.6932716  25.7799363  80.5473804  32.8105950  25.6455135
  81.5596008  32.3223090  26.6594028  59.1882086  96.8571091  20.8493686
  58.6592531  96.2856674  21.4060473  58.5703945  97.2023678  20.2049041
  81.4534569  61.9819307  23.8922167  81.1834717  61.2246704  24.4117284
  81.3954926  61.6828251  22.9847980  61.4591837  46.0716677  57.2072935
  61.3708735  46.6177607  56.4261293  60.5661011  45.9838200  57.5403309
  42.3904896  32.9433322  12.8603995  41.9717073  32.1117401  13.0824471
  43.1170130  33.0183458  13.4790790 104.0819836  28.3883405  24.3392038
 104.2854691  27.6793981  24.9493074 103.9599133  29.1566443  24.8969150
  99.4049549  11.1703384  32.9228306  99.1359520  12.0419598  32.6327562
  99.7113895  10.7368135  32.1263480  63.0403280  59.2535925  25.5763984
  63.3877754  60.0101185  26.0488176  62.5862122  59.6299028  24.8224735
  81.0651684  57.0884180  37.3443508  80.8083248  56.2674284  36.9245386
  81.6179466  57.5258541  36.6968036 104.1707325  55.7246637  61.1702585
 103.7552357  55.1981831  60.4873180 104.4963264  55.0835657  61.8020868
  61.7686176  42.3419809  30.9426618  60.9101629  41.9944906  31.1845994
  61.9366693  41.9806433  30.0723624   1.4875178  38.4788394  24.6287918
   1.9288878  37.6295328  24.6185994   1.2690215  38.6462283  23.7120223
  75.4828548  65.1260567  43.7078857  76.2304544  65.4663467  44.1993380
  75.1036739  65.8964109  43.2847977 106.2761307  39.0668392  61.2710142
 106.1351109  38.8695049  60.3450489 105.7395840  38.4255719  61.7369795
  86.8504429  28.3524108  49.0377760  86.5723896  28.5822058  49.9244070
  86.0673618  27.9834628  48.6292458  62.8629017  65.2240372  36.8003011
  63.7266970  65.0075388  36.4492822  62.4126244  64.3818235  36.8648314
 111.4581490  46.1480045  43.8817739 110.8954334  46.2655020  43.1164122
 111.9882202  46.9443846  43.9138556  73.4193039  74.9694300  14.1122711
  74.0624762  74.7846699  13.4278536  73.8285208  75.6486082  14.6484518
  81.1881828  80.6759834  40.7315254  81.6594410  80.0145054  40.2249765
  80.5746460  81.0634804  40.1073074  86.8934727  13.6878788  45.1053286
  87.3871040  12.9326034  45.4248762  87.0253277  14.3603575  45.7736206
  82.5559998  86.7133999  60.6569719  82.2402096  87.3689842  60.0351095
  82.5582123  87.1652126  61.5008307 100.1275063  94.4963455  31.9449377
  99.2430019  94.3055344  31.6327310 100.6088352  93.6792374  31.8150306
  63.3924788  32.7137087  80.8484676  62.9253023  33.4445475  80.4436746
  62.7102297  32.0704554  81.0408297  84.7083282  88.5538197  40.7858086
  84.8294163  88.1785870  39.9135876  84.3186474  89.4131660  40.6248617
 108.1694919  10.8185535  44.9766588 108.8798649  10.1913600  45.1116991
 107.4446136  10.4756026  45.4993105  73.4558773  69.6339464  62.2678328
  74.3381310  69.3841362  62.5425196  72.8954697  69.3780231  63.0004168
  65.6523466 107.1942711  44.9018764  64.8339653 107.6086330  44.6284103
  66.1081696 107.0006561  44.0827465  67.9271889  73.0537796  37.2261953
  68.5668659  73.0879736  36.5149450  67.7798843  73.9701986  37.4601030
  99.8916054  95.0265884  44.9689865 100.1769733  95.4617786  45.7723570
 100.3743362  94.2000771  44.9598789  68.3778715  62.8736877  38.6117411
  68.1111908  62.0125961  38.2898140  68.1019878  62.8827143  39.5282769
  74.1679382 102.7764606  49.5281172  73.7280416 103.5018349  49.0847731
  73.4560633 102.2066498  49.8192835  15.8391129   7.9724269  17.6508582
  15.8994137   7.0193153  17.7155185  16.2277829   8.1798987  16.8010783
  53.0769396  63.3343697  27.7702689  53.8817310  63.7989187  27.9999113
  52.4418354  64.0284109  27.5937009 110.8567333  36.0774541  20.1927376
 111.7002869  35.7693577  19.8615026 111.0401249  36.3606739  21.0884976
  55.7466602  55.3716135  17.5239468  56.3195419  54.8073578  17.0046616
  55.6164694  56.1475086  16.9787240  35.5168568   0.3680854  58.2126188
  35.6935917   0.9414439  57.4667883  36.2124287  -0.2886815  58.1799459
  78.5226822  68.2632875  27.9930210  78.0929232  68.2483339  28.8481903
  77.9018402  67.8326082  27.4054003  71.9932890  54.8303270  11.5674710
  72.8586197  54.4735336  11.7677987  71.9055986  55.5862236  12.1481276
  95.9239483  58.3006907  54.0949059  95.4454708  59.0774298  54.3846798
  96.8124294  58.4288931  54.4271660  79.8404217  40.8950615  13.1926346
  80.1279736  40.9721375  12.2829044  80.3124905  41.5891504  13.6526597
  10.6190734  66.1699295  32.2501159  11.2410884  66.8911839  32.1546054
  10.9521823  65.4876041  31.6672778  65.3224516  71.9567299  41.7733002
  65.7109213  71.8324232  42.6392508  66.0483694  71.8234825  41.1637735
  98.5494137 105.2340031  34.2523503  99.0015984 104.7463131  33.5639310
  97.6994133 105.4540730  33.8711596  87.2772408  40.2780962  29.7624469
  87.5087166  40.8912516  30.4600835  86.3201046  40.2673864  29.7608161
 102.0715141  20.8449841  52.6911736 102.0612907  19.8903584  52.7605820
 102.2597504  21.0160327  51.7683840  77.7695656  71.2644863  43.6085939
  77.8563643  71.1009598  44.5477200  78.2957268  70.5792284  43.1965208
 114.5119572  72.2131872  59.0014887 113.6689091  72.2600794  59.4523907
 114.5890903  73.0536079  58.5498524 114.6970177  57.1260214  41.9963980
 114.3740177  57.4049425  41.1396027 114.9628067  56.2155581  41.8673849
  97.4791241  69.9167109  26.7172980  98.2435608  70.0301170  26.1524940
  97.8436852  69.6680260  27.5666976  78.7480307  82.0963955  44.8137522
  78.3365154  82.8006649  45.3146362  78.7833452  81.3585472  45.4224968
  82.8131485  60.8250904  56.9783783  82.2497845  60.7276487  56.2106848
  82.2240067  61.1228466  57.6715565  65.0602245  77.7212000  48.6471367
  64.7480345  78.3892155  48.0367899  64.4630384  77.7802610  49.3928623
  82.9435062  98.8635254  48.8673782  82.0675945  99.0857410  49.1830111
  82.7946091  98.1957722  48.1979275  21.9398646  94.5187569   2.0968460
  21.5450911  94.3678474   1.2380034  21.2274699  94.8730850   2.6289865
  25.3138560  19.8456008   7.8829357  24.3875092  19.6237523   7.7886364
  25.4391974  20.6002242   7.3075554  77.1006632  91.0331631  14.6739638
  77.0187140  91.8338108  15.1921105  77.8119707  90.5485630  15.0928140
  73.8158941  84.0140533  55.3690052  74.2499781  84.6417046  54.7912073
  73.6437416  84.5065880  56.1714983  70.6668234  89.7365570  29.0444398
  70.3761721  90.4490089  29.6137905  70.7968712  88.9952183  29.6358299
  89.8883057  66.9563437  40.5544710  90.4776669  67.4351645  41.1372328
  90.3917885  66.8381071  39.7490239  91.0900116 110.0081348  62.4647236
  91.9217110 110.3346062  62.8081322  90.9838963 109.1482449  62.8716135
  91.3918495  79.8253393  42.0103598  90.5179882  80.1113510  42.2764206
  91.9865894  80.4365540  42.4450254  82.5819397  44.8352671  49.9263287
  83.1950569  44.1005421  49.9487114  82.6084995  45.1964617  50.8123684
  63.8684416 104.6074963  61.1232805  63.5688114 103.7159061  60.9457541
  64.4942427 104.5113850  61.8411732  56.8755436  89.9768543  21.5273380
  56.2173557  90.2930737  20.9084463  56.5061188  89.1656399  21.8761706
  41.8609333  74.9039745  59.5840263  41.9765615  75.7715559  59.9715424
  41.0644007  74.9804974  59.0587521  58.2422066  66.8813705  18.5134745
  58.9772654  66.3131475  18.2831573  57.4932623  66.5025330  18.0532706
 108.5370636  71.3968039  26.0196495 108.6634159  70.8455467  25.2473927
 109.3083096  71.9634199  26.0382414  85.9521389  52.9686499  38.5303307
  86.5890408  53.6731529  38.6497545  86.4151669  52.1777868  38.8066912
 105.4584026  74.4243765  60.6218433 104.8917389  74.1530418  59.8996973
 105.6795120  75.3344107  60.4238892  82.0727730  57.8344870   0.9030676
  81.6476727  57.2151661   0.3098051  83.0094337  57.6994181   0.7593423
  94.5311356  79.8976755  49.6801186  93.7221813  79.6811199  50.1437283
  95.2265835  79.7042847  50.3087616  83.2752705  64.0683556  71.0227776
  84.0611172  63.6996365  70.6193876  82.6391125  64.1150951  70.3090906
  75.6340647  82.0054340  44.4599104  76.1793804  82.6032543  44.9712658
  76.1488104  81.8252754  43.6732674  75.4139185  65.4595852  55.0412321
  76.0341883  66.1718941  55.1965141  74.5922852  65.9003782  54.8247957
  83.6355114  65.6778717  33.8584208  84.3217087  66.2747097  33.5598588
  83.0898762  65.5342627  33.0851817  77.8106070  81.5323734  72.1063232
  77.5364065  81.5881634  73.0217075  78.2081223  82.3836327  71.9230700
 108.8352966  77.7912760  51.6867352 108.3331203  78.1591511  52.4138641
 109.7464180  77.8398657  51.9760990   3.0623870 105.8388805  28.5240245
   3.7772136 105.2027702  28.4994173   2.3133139 105.3446388  28.8569546
  75.2565813  67.5835466  61.1176729  74.3916464  67.4922466  60.7179451
  75.6385183  68.3498621  60.6897449  66.7443609  49.6552515  17.4078631
  67.2827530  49.8482180  18.1754100  67.3585749  49.2926884  16.7694867
  20.8613652   6.2620686  90.0588581  20.6301039   6.2426470  89.1302171
  21.5004843   5.5569075  90.1613232  73.0981541  56.1721134  32.3160338
  73.7925673  56.7576599  32.6179576  73.3253860  55.9802341  31.4062095
  87.6524448  75.1668549  24.7482061  88.0652237  74.3753815  24.4026423
  86.7215347  75.0551891  24.5554328  61.5377569  84.9947262  62.5910568
  61.9480419  84.5501328  63.3328342  61.7316818  84.4349384  61.8392134
  83.0213356  48.6015701  22.1407533  82.7574348  47.8011322  21.6870093
  83.0647659  49.2643785  21.4515233  88.2448483  60.8322430  31.9582462
  88.3599281  60.3062677  31.1668301  89.1237736  61.1505127  32.1642184
 105.5682278  56.6762447  19.6100736 105.4804516  57.3450613  20.2891970
 104.7402382  56.7111826  19.1310704  86.4361572  32.6164246  52.4352121
  86.8422794  32.0821738  51.7526627  86.9410515  33.4296393  52.4349833
  88.2627869  70.6901550  52.1302986  88.9504719  71.3141251  51.8979788
  88.6408901  69.8329639  51.9341135  78.7475634  45.5273104  61.1112976
  78.4492779  44.6778345  60.7862616  79.4238615  45.7974100  60.4900932
 113.3417797  50.7924318  28.5931110 113.3789349  49.9345589  28.1701422
 113.2038879  51.4084625  27.8735805  91.2076855  62.1908331  36.0329676
  91.4025497  62.1568441  36.9695044  90.3908825  61.7004395  35.9403300
  92.9730511  62.2586346  44.5894861  92.8608227  62.0416498  43.6639833
  93.4634399  61.5202808  44.9508476  56.5688133 108.9026070   5.0479269
  56.3608694 108.8228893   5.9788603  56.6702938 109.8435974   4.9048978
  74.8729181  78.5665655  69.7416496  74.1657400  78.0790424  70.1640892
  75.1178646  79.2355013  70.3809929  50.9549952  84.3826485  59.7352934
  50.7986116  83.4430981  59.8302746  51.7580032  84.5431042  60.2309418
  94.8300743  93.9882183  13.6279333  94.0742207  94.5608807  13.7582028
  95.5777073  94.5843983  13.5851157  10.0504260  72.5320005  29.6632361
  10.0118689  73.4414577  29.3672156   9.8412471  72.0173359  28.8837504
  70.5000067  72.5726080  27.1343875  71.2417984  72.6279306  27.7368140
  70.1166010  73.4495974  27.1453929  69.4710684  55.2479792  62.1182823
  69.3291330  55.3288698  63.0614376  70.1823330  54.6126175  62.0367336
  53.8415861  88.8999081  51.2556028  54.5681190  88.8505459  51.8768454
  53.1320238  88.4157562  51.6779232  62.8866339  40.7610035  22.2564578
  63.6056948  40.4193974  22.7879500  63.2470608  41.5444040  21.8409967
  70.0121880  64.2580318  34.0031266  69.4580603  63.8930321  33.3132386
  69.4588470  64.2500067  34.7841406  75.5771732  51.6600561  49.1616917
  76.2132740  51.1342764  49.6466303  76.1091518  52.2829008  48.6664200
  88.0141258 105.9215927  27.1921277  87.5888157 105.5949306  26.3992643
  88.8930702 106.1712933  26.9069195  76.3889837  63.5462236  66.9458151
  77.1164989  63.1938219  67.4584246  76.4064312  64.4871569  67.1206665
  85.6895351  72.3968267  56.7749929  85.3281116  71.6239786  57.2089386
  85.8197689  73.0293036  57.4815702  75.4792786  46.5866804  49.1598129
  74.5318937  46.7174101  49.1197681  75.6614017  46.4370203  50.0875330
 104.3430996  46.1081743  55.5411100 103.9345455  46.9284725  55.2646542
 104.9161339  45.8686304  54.8127651  71.4234447  80.0577545  24.9188471
  71.7747450  80.0144768  24.0294957  71.7021179  80.9134197  25.2450705
 101.6204262  74.5174265  50.5824757 101.6341782  75.4121780  50.2426863
 101.2031746  74.5934820  51.4405823   9.4268470  52.5366592  31.1698341
   9.9261908  53.2985258  30.8758140   8.9673571  52.2345400  30.3863621
 116.4337349  32.2142839  54.3236876 115.5158806  31.9865370  54.4716883
 116.5985012  32.9445171  54.9202108  95.0920773  89.1709137  43.5773277
  94.9414062  88.5195637  44.2623568  95.0129128  88.6806202  42.7590513
  89.9960709  43.3463573  10.8358181  89.3810463  42.6458931  10.6182730
  89.7936726  44.0447140  10.2132726  84.1082573 102.9509258  75.7325172
  84.9945164 103.3055592  75.8033705  83.8015175 102.8902626  76.6372061
  98.8703632  82.7323341  36.9706345  98.1556511  82.1569157  36.6980481
  99.5184135  82.6576614  36.2701416  69.5854378  74.1674137  30.0024915
  70.3890085  73.9624596  30.4805088  68.8852692  74.0279007  30.6400871
  82.2401333  61.8308401  66.1981869  81.6210651  62.3422146  66.7192268
  82.9337788  62.4510479  65.9736204  61.8247461  72.0277834  35.0206089
  61.3864517  72.7378225  34.5515966  61.1276817  71.3997269  35.2100158
 102.8689289  84.9302197  22.9720902 102.0530605  85.4288006  23.0169129
 103.0014706  84.7712994  22.0375276  88.2645702  85.2418137  43.6355495
  87.6610088  84.5062733  43.7401056  88.0900002  85.8040428  44.3903017
 102.1121407  74.1580153  37.8950262 101.5539551  73.7068653  38.5283685
 101.6498280  74.9749184  37.7074909 116.3156796 100.7544231  18.1660628
 117.2148132 100.5854034  17.8846121 115.7795143 100.1959229  17.6031792
  20.6991803   2.4091010  34.2283154  20.3921925   3.1412177  34.7631073
  20.3867756   2.6094680  33.3459949  85.4310131  90.5177975  47.1750402
  85.9200287  91.2216377  47.6013041  85.8278751  89.7136211  47.5097418
  67.1280479  86.9523144  49.5926571  67.4155617  87.8200912  49.3088865
  67.1322060  86.9993687  50.5486917 100.2848816  86.2321854  48.0123663
  99.4467163  86.4583397  47.6091671 100.9410858  86.5149403  47.3754358
  10.5240571  11.4325957  32.4654913   9.8331772  11.0164981  32.9810309
  11.3147675  10.9382682  32.6814508  84.5346546  97.4164581  17.3509550
  84.5378876  96.6394043  17.9098809  85.4282188  97.7551365  17.4064553
  91.1608696  87.8820229  16.4222634  90.8269119  88.5210037  15.7926571
  91.9873428  87.5822067  16.0437310  84.5146561  52.9834986  51.2996721
  84.5202446  53.8751745  50.9516621  85.4264641  52.8127670  51.5356541
  82.5653839  79.7145128  22.5287271  82.1052551  80.3836536  23.0354500
  83.4369946  79.6732759  22.9222107  93.6576748  91.9280338  41.0011816
  93.5100365  90.9882927  41.1076307  93.9715195  92.0207977  40.1016665
 103.5901928  60.2009201  13.1034946 102.6371098  60.1144648  13.1231427
 103.7498569  61.1301422  13.2686877  80.7336235  60.2836037  26.4183307
  81.6584969  60.5247164  26.3662910  80.7289314  59.3308640  26.3261771
  60.4216116  45.1665686  90.9297278  61.2183111  45.1550673  91.4601782
  59.8388689  44.5403002  91.3591817  85.6716633  46.4528322  30.6153035
  85.2674580  46.1196280  29.8141623  86.1287403  45.6974459  30.9850359
   3.6237006  39.7128439  19.8353434   2.8814559  40.3122520  19.9128973
   4.1924338  39.9394226  20.5711627  70.2995682  82.1697521  32.0727420
  70.1037216  81.8802738  31.1816311  71.1500597  82.6032543  32.0022750
  88.6594486  56.3129044  18.7780035  88.4653568  55.4751635  18.3575928
  88.3792973  56.9708109  18.1416750 105.2556515  91.6487122  18.5405350
 105.2420807  92.5582790  18.2426524 105.4815578  91.7041111  19.4690418
 101.4795589  58.9125013  33.1357074 101.2423325  59.7593307  32.7577734
 101.1237335  58.2687330  32.5231838 104.0252018  99.1802692   1.4199844
 104.0876770  98.2687283   1.1346306 103.5526466  99.6205425   0.7135268
 104.9788952  67.1815443  39.0546679 104.3408585  67.4155664  38.3805943
 104.4713020  67.1542358  39.8657441 117.2799397  72.2331095  28.0025506
 116.3641357  72.4106455  27.7880383 117.4545860  71.3751698  27.6156735
  56.4027405 100.0186157  67.5909376  55.8428955  99.2496014  67.4840260
  57.2035837  99.6782684  67.9897499  75.3135824  74.5014381  41.8512917
  75.1077175  75.2182436  42.4513292  74.7261095  73.7928867  42.1140957
  48.2656813  66.0225534  35.2943778  48.3355618  66.8185282  35.8214164
  47.6107311  66.2327719  34.6287322  71.7718267  61.3896990  16.3610601
  71.6366434  62.3266935  16.2196422  72.0496845  61.3229895  17.2746122
  71.2087393  49.2690134  10.9909189  71.1946964  48.3208466  10.8605099
  71.2987804  49.3792868  11.9374728  80.9367943  85.9657288  57.9583502
  80.2269173  85.9921646  57.3167801  80.9609509  86.8494320  58.3253813
  18.1018960  20.2135902  45.4117489  18.8843953  20.6927638  45.1391459
  18.0096089  20.4155307  46.3428450  75.6443644  90.3951359   7.7421272
  74.8987913  90.8431721   7.3426116  76.0326004  91.0484409   8.3241034
  16.2598835   1.1906390  28.3715558  16.3486706   1.3990550  27.4415469
  16.6806733   1.9227557  28.8223052  71.7538738  38.0991220  41.4047527
  72.5255585  37.8399968  40.9011793  71.8586493  39.0415239  41.5356445
 109.9308777  79.3047523  69.7374916 110.4185009  78.5149336  69.5037174
 110.2789211  79.5567274  70.5928326  88.5180855  67.5861788  21.4620423
  88.7097168  67.6121235  22.3995042  89.3738365  67.4847031  21.0453629
  92.2063446  57.6346302  38.8323903  91.6218567  58.0964184  39.4335198
  91.6371441  57.0192194  38.3703184   1.5375666  78.7142515  43.4156275
   1.9081454  78.1913900  42.7046251   0.9166198  78.1268215  43.8464212
 105.8666039  74.2648029   4.4374964 105.6807232  75.0662184   4.9267989
 105.2338219  74.2704582   3.7193072 101.0201168  96.0548782  57.1995401
 100.6746292  96.7350674  57.7776527 101.2536526  95.3366375  57.7876043
  66.0231018  68.1171274  14.0687454  66.3422775  68.0976200  14.9709535
  65.6471682  67.2480297  13.9288378  84.1776085  64.3799067  44.5575142
  84.2596245  64.4005489  45.5109739  84.3878746  63.4771872  44.3185234
  46.0508060  46.0794783  13.8956118  45.1786661  46.2605047  13.5451424
  45.9676600  45.2226257  14.3140888  90.2081299  27.0907235  34.3300390
  89.3079853  27.3280835  34.1072273  90.4160309  27.6297116  35.0932550
 101.7631245  79.2870808  15.5106056 102.2208023  79.9164677  16.0679495
 101.5640354  79.7751331  14.7116053  67.1678019  91.5015030   5.3983212
  66.2886858  91.1667538   5.5753344  67.0807648  91.9785595   4.5730501
  72.7213621  76.2307215  28.1714368  72.4189234  76.6890335  27.3874021
  72.7073860  76.8968868  28.8586521 108.4815884  80.3831959  65.3218889
 107.8734112  79.6529198  65.2076578 109.0780926  80.3170013  64.5762110
  71.6857052  68.9143229  64.1921091  70.8620310  69.1578484  64.6145916
  71.4318180  68.6462784  63.3089781  63.0408716  77.2304106  23.6832166
  63.9431953  77.5009823  23.5133886  62.9823780  76.3481045  23.3166885
  94.5688248  68.1276751  56.2007189  94.9575996  68.8657188  55.7312775
  93.8291645  68.5080242  56.6744995  53.6604595  77.4488688  58.8406324
  54.3024731  77.5649548  59.5410442  53.1540394  76.6807699  59.1048098
  75.3628778  50.2423048  35.9178162  75.9358311  49.5453691  36.2375593
  75.9386635  51.0010481  35.8228540  73.3134079  68.3783817  28.7947106
  72.8117180  68.3186007  27.9817128  73.2230711  69.2920971  29.0652633
  68.5886097  78.2016182  27.9994297  68.8193655  78.6312866  27.1757984
  68.3760023  78.9212942  28.5936522  96.0679531 100.2449608  56.7858601
  95.6967926 100.0032330  57.6344061  95.3109455 100.4933357  56.2553120
  97.9767895  81.9612598  31.8069720  97.2708702  82.6025677  31.8884635
  97.7299595  81.2560463  32.4052882   1.8970065  93.1504917  67.5361490
   2.5674014  92.9001713  68.1718779   2.3724322  93.2427311  66.7104959
  83.1603432  75.5811930  78.2713509  83.6012745  76.4138842  78.1027460
  82.5080872  75.5101347  77.5743961  85.6112862  28.6446714  42.4912643
  84.8487949  28.7266445  41.9184446  86.3605213  28.8019919  41.9166946
  79.1035938  46.8132877  47.4137497  78.4331369  46.3962030  47.9548168
  79.8481655  46.9312716  48.0036020 108.9164639  72.5309944  60.0899982
 108.2830620  72.0293808  60.6032419 109.3517494  73.0936766  60.7304287
  95.0823689  69.1803265  27.6786089  95.9516239  69.2199326  27.2797823
  95.0742245  68.3490658  28.1531334   1.2609326   3.6815219  11.1592197
   1.2285840   2.7816348  11.4838767   0.5446946   4.1257434  11.6129875
  74.5315456  58.2230568  33.7474155  74.0031958  59.0019608  33.5731125
  74.3983078  58.0467558  34.6787596  82.1192646  60.4591703  21.7225623
  81.5635204  60.4463482  20.9433198  82.8931236  59.9540091  21.4731812
  57.1218777  48.0914259  31.0716033  57.0521832  48.9906883  30.7511210
  57.4148607  47.5883961  30.3117657 105.9093094  52.3906279  43.4347486
 105.5605221  53.2406902  43.7030315 105.8067226  51.8349886  44.2073917
 109.6314526  84.4341373  38.7261915 109.9095058  83.7661076  39.3528175
 109.8663616  85.2641964  39.1409850  45.1371098  54.4112825  26.4002013
  44.2302656  54.3760443  26.7045426  45.3065062  53.5365486  26.0503721
  92.0738506  84.7098827  68.8823986  92.4597836  84.6231651  69.7540474
  91.1335278  84.7878456  69.0434742  73.5632133  67.5048208  54.7209311
  73.2568455  67.9189348  55.5277014  74.1402626  68.1558704  54.3217087
  75.3946590  23.5698700  18.5599184  75.9004164  24.3347526  18.8345051
  74.9464798  23.8526440  17.7627945 104.3686485 102.9125214  47.1770000
 103.5372925 102.6159286  46.8066931 104.8800564 102.1112728  47.2897148
  18.9827555   0.8524035  96.1088397  18.1564968   1.1345957  95.7165424
  18.9605540  -0.1028969  96.0528285  89.7202015  90.9677029  10.8884788
  89.8196411  90.8688736   9.9416000  89.5189285  90.0858116  11.2015104
 116.0599709  54.3139362  39.5733881 115.5995369  53.5785151  39.1691709
 116.6723537  54.6119642  38.9007854  81.8354321  77.2042322   1.6986257
  81.6616631  76.3660955   1.2701792  82.7566624  77.1562004   1.9540647
  91.0234833  78.8608313  39.4110250  91.1578274  77.9131174  39.4066930
  91.2760925  79.1345167  40.2927923  74.1521883  59.9337292  10.0321102
  73.5254097  60.2845335   9.3994021  74.9972343  60.2858400   9.7525597
  58.6872435  57.6016951   2.0847081  58.9428186  58.4962320   2.3099162
  58.7193108  57.5770092   1.1283638  92.6072502  95.2925491  39.2921829
  93.4710407  95.6801033  39.4332838  92.7808475  94.4976807  38.7879062
   0.2724509  77.5294209  45.4788351   0.0983481  78.3855438  45.8699465
   0.1633410  76.9098616  46.2002754  76.5459824 103.0166054  26.5295410
  76.9911575 102.7303123  27.3270917  76.2305927 102.2071743  26.1275697
  86.1338139  58.4177113  53.1411171  85.9995174  57.5868082  52.6852751
  86.2568474  58.1708813  54.0577221   2.6165919  70.3267384  37.2013092
   2.1921401  70.1953125  38.0491304   2.6667552  69.4501448  36.8201256
  38.8514352  67.6598120  11.3431084  38.4394026  68.3882618  10.8785415
  39.5188475  68.0722857  11.8914306 111.3117313  56.7255640  39.1964960
 111.2102413  55.8140516  39.4705129 112.2259903  56.9332790  39.3894243
  76.7360353  86.4543056  21.2921166  75.8472586  86.4076710  20.9397960
  76.6504812  86.1571407  22.1979904  95.2960491  68.0358839  42.7700996
  96.2025166  68.1096840  43.0685902  95.2777481  67.2277641  42.2574186
  99.3495083  70.3687763  22.5745583  99.4177055  70.2044535  23.5150790
  99.0740108  69.5301962  22.2042656 114.9025631  56.9534922  20.5080986
 115.4770947  56.8391418  19.7510874 115.3202057  56.4466810  21.2044787
  80.7391071  72.3588514  43.3986521  80.9734440  71.5704632  43.8883066
  80.7086849  72.0734549  42.4854946  82.1530533  68.9568996  38.4936309
  81.6627407  69.4646311  37.8470731  83.0689335  69.1824484  38.3307862
  80.9866619  77.8767586  46.9876528  80.9532166  77.4084520  47.8217983
  81.9029236  78.1381702  46.8962955  80.0474453  70.4772758  37.3667288
  79.1886425  70.6571770  37.7492690  80.3969765  71.3406324  37.1461058
  79.3554020 100.4155636  60.0171232  78.5189056 100.5097771  60.4727840
  79.9754858 100.9141445  60.5492449  63.4692812  73.1462049  13.7416816
  62.5419760  72.9340029  13.8480306  63.7663698  72.5738287  13.0343235
  78.7477636  79.5056057  41.4957094  79.2236948  80.3196812  41.6600466
  77.8878260  79.7893524  41.1854982  99.0839577  80.1633739  55.2760792
  98.9322567  81.1084270  55.2663422 100.0335693  80.0724030  55.1974201
 115.0191307  50.3929663  45.9709740 115.2559853  50.6984234  46.8466616
 114.4130230  51.0565901  45.6416225 105.7565975  56.0206795  58.3935690
 106.2283993  56.8360519  58.2238436 105.9880447  55.7930231  59.2940331
 103.0407268  10.1782088  40.0744104 103.4981567  10.1715140  39.2336082
 102.1328146  10.3837257  39.8515010  82.2624207  80.9837723  65.5781031
  83.1826687  80.8627129  65.8120203  81.8020248  80.2899265  66.0501575
   7.2690825  85.5063248  38.4583688   7.9918341  85.4828072  39.0855193
   7.4298816  86.2928009  37.9369974 104.7744560  72.5528717  19.3546951
 103.8592052  72.4600267  19.0902603 105.1379776  71.6711617  19.2730236
  81.9119358  50.3437757  57.0733023  82.7173328  50.6658459  57.4780798
  82.1084595  49.4371986  56.8372297  74.0102243  83.8928318  43.4795237
  74.5218849  83.2301903  43.9435577  73.8967323  83.5346699  42.5991440
  97.5882435  54.6624136  31.7727423  97.6092720  54.9947691  32.6701427
  96.7272663  54.2525578  31.6892385  82.5640678  79.5688725   8.0723977
  82.3905659  79.1498327   7.2294670  82.2020626  80.4502201   7.9807520
  84.2085361  79.9622536  35.7868648  84.4469166  79.3191671  36.4545846
  84.9131966  80.6094646  35.8152938  86.5401173  96.2365723  13.7612557
  86.7939186  95.7494545  14.5451784  85.5849361  96.1776161  13.7414098
  85.7274437 101.5593910  30.8532357  84.8945045 101.7894173  31.2649894
  85.5892372 101.7300034  29.9215579  70.9115982  71.9744015   3.7647593
  70.3187084  71.7317438   4.4759738  71.4360046  71.1884546   3.6114103
   2.1323447 104.7694969  21.6541624   2.4199824 105.6817627  21.6898894
   1.4570670 104.7046471  22.3294663 117.8095245  61.1789036  32.0841980
 118.2788658  60.6726027  32.7472329 117.1016312  60.6013966  31.7985272
  91.6274738  93.7116146  17.2018695  90.8870983  93.6148167  16.6029513
  91.5084171  93.0125713  17.8448224   8.2606749  92.9677582  45.0658703
   8.4204058  92.1255398  44.6399879   8.3026080  92.7743530  46.0023880
  56.9152832  98.7985516  32.2020507  57.4508858  98.0519772  31.9337392
  56.6133833  98.5728359  33.0819035  89.8687553 103.0087185  50.7872486
  90.6752777 102.5028706  50.6878328  89.3471527 102.7815723  50.0174713
   9.0718226 102.5845909  62.8840876   9.1116195 101.6959190  62.5306511
   9.8670249 102.6689529  63.4101772  88.9741516  88.3097076  33.2906961
  88.4103680  88.5041046  34.0394211  89.5070744  89.0972710  33.1812930
 104.5116329 106.5670204  31.0894346 104.8718071 107.3925591  31.4134622
 103.8929367 106.2934399  31.7666388 109.7181988  81.8358135  13.8286054
 109.0087605  81.2944889  13.4823382 109.6145535  81.7872524  14.7789395
  27.8294503  16.9347530  30.1105332  28.7508141  16.8530231  29.8642612
  27.4208485  16.1355739  29.7779894  74.3034554 105.4261398  31.6068769
  74.0487766 105.6034565  30.7013774  74.1382217 104.4905281  31.7233229
 109.9166298 110.4880238   7.4562889 110.8555698 110.3750706   7.6041782
 109.5267391 110.4176140   8.3276469  28.1134259   7.3228507  50.5102301
  27.7606427   7.7129512  49.7104788  29.0164315   7.6375918  50.5520916
  89.8491859  80.6365776  32.4108553  90.0127506  79.9406481  31.7743278
  89.6708870  80.1747704  33.2301092  90.0514698  37.3503828  43.0238819
  90.5518532  37.7081060  42.2904778  90.3939915  37.8064251  43.7926054
  80.7514954  95.9158230  69.0165091  80.1187420  95.4223251  69.5383501
  81.3874626  96.2395668  69.6544552  61.4884233  78.0659771  27.9815960
  61.3849592  77.8619289  27.0521402  61.1276865  77.3044157  28.4356070
  78.5332251  91.0904884  37.3213077  78.0946255  91.6481686  37.9638481
  79.4144344  90.9662724  37.6738310  89.2323112  71.1405230   8.8290858
  89.8900795  71.8320370   8.9024568  89.7408772  70.3324461   8.7612218
  80.8297443  81.4785480  78.0088615  81.3587761  81.0969639  78.7094021
  80.7540131  80.7803345  77.3584795  77.5918007 104.3789196  20.5815887
  76.9205093 103.9030361  21.0706043  78.1184006 103.6941433  20.1692677
  82.9025745  74.8095798  48.0023813  82.4285030  75.2132273  48.7294006
  82.4801064  75.1588154  47.2176600  75.3766060  95.9298229  13.2548559
  76.2569046  96.2069988  13.0009341  75.3489590  94.9967003  13.0433202
  97.9782295  90.2141094  25.1106977  98.8649464  90.5740452  25.0903988
  97.5069904  90.6999016  24.4338107  19.5430140  62.0969057  20.8847189
  19.3148761  62.9088593  21.3373995  20.3048472  61.7640972  21.3591480
  88.1367302  89.9498367  57.8316402  89.0735626  89.9372768  57.6356316
  87.8436184  89.0553856  57.6576185  76.4313126  86.0359383  31.8381047
  75.7099771  85.7793903  32.4126363  77.0386696  85.2968693  31.8715858
  86.2170696  69.6065521  24.0295196  86.8887138  70.0546598  24.5436478
  85.8938789  68.9157295  24.6079183  80.9463596 109.6123791  46.6790533
  80.0909805 110.0145245  46.8301773  81.4604473 109.8452473  47.4521780
   4.0551333  79.3524551  40.2007580   4.5658259  78.5696411  40.4072285
   4.1572051  79.4625711  39.2554069  85.5893707  60.8022451  54.0871525
  84.6396923  60.9134674  54.1315794  85.7148457  60.0358868  53.5275269
  41.6274470  62.5860403  93.0130881  41.5813654  61.7665766  93.5056081
  42.4368208  62.5160502  92.5068775  86.3542271  67.1962929  40.5083466
  85.8908749  67.3446274  39.6840096  85.6993389  66.8003845  41.0833263
  17.4100911   6.7504459  30.1565027  17.2689282   6.3637023  29.2923641
  17.9558789   7.5187163  29.9888182  30.7447373  16.2831550  24.6674132
  30.0236451  16.3923888  24.0474820  31.5337693  16.3283210  24.1273952
  82.2985380  25.5726527  91.4204940  83.0740279  25.0991057  91.1195007
  81.8368071  25.8115195  90.6167623  21.9642787  82.1472263  69.8880196
  22.4913745  82.9061985  69.6382904  21.1193042  82.2918606  69.4621849
  99.0181732  72.8263426  34.7776961  98.2960415  72.8907824  34.1527104
  99.5795918  73.5740852  34.5729351  95.9463120  24.5787215  19.0919268
  95.6104374  23.7035131  19.2854071  96.3268852  24.8772264  19.9179363
 100.2848911 101.0179710  42.0407248 100.9491444 100.8089066  42.6974487
 100.3754711 101.9604397  41.9000435  88.7640476  84.1377163  15.1674688
  88.8128185  83.8873863  14.2448699  89.6772099  84.2307186  15.4389954
  98.4342480  99.7690392  13.9683974  98.6238956 100.5942631  13.5220051
  99.1149330  99.6967220  14.6374846 102.7600765  74.5704222  66.6345739
 102.4895000  74.7393560  67.5370598 102.4168110  73.6981249  66.4409113
 106.6975307 100.7164669  69.1245461 107.0344639 100.0204563  69.6886969
 106.9573689 101.5268326  69.5627594  79.1511345  88.5381889   1.0944936
  79.2397547  88.0619240   1.9200544  79.4136047  89.4341850   1.3055158
  36.0911898 108.0962181  12.6706886  35.2553515 108.3891773  12.3076820
  36.4442305 108.8684368  13.1125760 114.5003700  97.5126457  30.0885057
 115.1195812  97.4703121  30.8172202 114.0519238  98.3504200  30.2036214
  96.4725399  63.3629704  40.7703924  96.9634724  63.5602665  41.5680742
  96.5657520  64.1484451  40.2313471  58.4700524 109.2259830  77.3322430
  58.5668789 110.0923675  76.9369736  57.9574524 108.7281030  76.6953888
  48.8880205 101.2712288  25.9687853  48.5414076 102.1348476  25.7445979
  49.7388697 101.4510632  26.3687110 102.9731655 100.1153374  39.1735578
 102.1010017 100.2935982  39.5253801 102.9819775  99.1701412  39.0226817
   3.1267886  81.7423534  56.4831305   3.8816886  82.3280811  56.4258862
   2.7976184  81.6875076  55.5859852  89.7583866  94.6917820  48.8802004
  90.6124115  94.3343163  48.6371326  89.8945427  95.0667858  49.7502899
   0.9293132 102.2215748  58.5414314   0.1571994 101.9314194  58.0557728
   0.8027224 103.1639385  58.6517429 100.5559444  58.2057905   6.4754611
 100.0889397  57.8984165   5.6985044 101.0303974  58.9821672   6.1782110
  72.8882139  29.3548964  95.5759415  73.2256811  29.0990828  94.7175076
  72.5745886  28.5376738  95.9632573  82.8891373  74.0819550  25.8908105
  82.0728397  73.8503170  26.3337851  82.7274036  74.9542284  25.5313468
  64.0523338 100.5715179  48.8676691  63.8585138 100.5497169  47.9305506
  64.8770332 100.0931358  48.9528751  93.1390953  90.6521797  45.6464243
  93.1907272  91.3465691  44.9896145  92.7438831  91.0733986  46.4097166
 113.3505726  72.4951935  33.6385131 113.4890842  72.0085001  32.8260016
 114.2069721  72.4961662  34.0660858   0.7677989 105.0287056  29.7685194
   0.6596236 104.5953655  30.6151271  -0.0297685 104.8128128  29.2852974
 116.4294529  63.7616777  23.0637026 115.6661606  64.3083096  22.8771448
 117.1792412  64.3121624  22.8378224  79.4815016  86.7524624   3.4178886
  78.6441565  86.5753841   3.8465267  79.5629835  86.0640526   2.7578205
  83.5414791 104.3971252  15.4504454  84.4112682 104.4344234  15.8483219
  83.7043571 104.4775486  14.5106399  96.0383987  94.6245480  51.5242815
  96.5207386  93.8777637  51.8790770  96.4402199  95.3880310  51.9388390
 100.0467300  75.7939291  33.7544417  99.8997974  76.4186049  34.4646668
  99.3449020  75.9732485  33.1287265 101.2175941  55.4037666   8.5404903
 100.9901810  56.3316345   8.6002475 101.8000889  55.2515173   9.2846382
  91.5865421 101.0412788  38.9882064  91.7278957 100.8288288  38.0656457
  90.7438374 100.6397820  39.2000532  71.7145157 100.4657555  63.5649061
  72.3712778  99.7731781  63.6372805  72.2205591 101.2781334  63.5790348
  96.8931961  85.3425217  39.9232888  97.0471382  85.7277966  39.0606761
  96.4338303  84.5227909  39.7409630  88.9643002  83.3179855  12.3864663
  89.8266697  83.0054760  12.1128082  88.3732319  82.5905323  12.1923578
  67.5113916  80.9463310  28.0346632  67.6515818  81.1126804  27.1025109
  66.6785860  80.4758930  28.0714107  93.5427856  78.9469814  24.0380287
  92.9404545  78.7064648  24.7419977  93.7039757  78.1275368  23.5703087
  68.7714577 101.2358952  58.3718777  69.3538475 101.5641022  57.6867962
  69.3611765 100.9179878  59.0555429  92.9432774 109.8434448  47.6518774
  92.7412605 110.7437420  47.9065895  93.8472557 109.8800755  47.3392868
  68.0400562  65.5396128   6.2065130  68.5178137  64.8359251   6.6456115
  68.5529804  65.7224274   5.4192889  43.5486638  17.1560340  63.2129192
  44.0053975  17.6355891  63.9040470  43.3074223  17.8274398  62.5747585
  11.3520770  50.3217077  34.9531817  10.8662085  51.0331869  34.5360947
  11.4939647  50.6225395  35.8507347  82.8205872  43.1043768  45.1402426
  83.1653786  43.7047386  45.8012390  83.5580158  42.5319672  44.9286366
  82.1036911  80.7060242  37.3766661  82.6882553  80.3909683  36.6872764
  81.7644787  81.5362549  37.0421720  94.1346073  70.0943470  34.6057963
  93.9132690  70.9944248  34.8447704  94.0165520  69.5959139  35.4144120
  59.8853636  84.9875259  36.6566372  59.5810223  84.1143417  36.9039392
  59.7375822  85.0340748  35.7120609  17.1895175  63.0166483  41.4752054
  17.0890574  63.9420462  41.2520933  17.9237036  62.9966068  42.0890474
   8.7526642   8.6422591  37.6361656   9.3846737   9.1808467  37.1600199
   9.2770039   7.9375320  38.0164957  23.1438403  65.4320431  56.8410683
  23.6058764  65.3920555  56.0037231  22.5711398  66.1949682  56.7624187
 106.7928028  71.0428333  60.8846569 105.9379673  71.2670326  61.2523794
 106.9600487  70.1522255  61.1929941  17.4114167   1.6870456  44.4474173
  17.1434342   0.9049277  43.9650249  16.7511021   1.7831378  45.1337004
  77.7857828 107.1536064  59.3009329  78.0953979 106.2995243  59.6024561
  78.3858061 107.7815819  59.7032404  86.6116238  99.8292732   0.3481141
  87.4951267  99.9688625   0.0072832  86.3766193 100.6639767   0.7534355
   9.9694209  93.4986115  73.7117195  10.5226664  93.9605141  73.0818081
   9.7286467  92.6854134  73.2678986  80.3400993  46.5475702  58.9455986
  79.6379328  46.4000797  58.3120012  81.0656357  46.8901634  58.4236288
  46.4489191  30.5132101  91.8900803  46.9753378  30.3472231  91.1080566
  46.3277930  29.6497248  92.2849876  19.9523978  96.3175201  70.5407667
  19.3338160  96.5527821  71.2323141  19.5650534  96.6742420  69.7414207
  60.9775066 106.7113209  56.5306234  61.7039633 106.8125248  55.9156036
  61.3512373 106.2236214  57.2645903 115.6677723  77.2483969  28.3743000
 115.6627464  77.8882408  29.0862060 116.5849018  77.1967554  28.1051517
  76.3433266  99.0388107  46.3895273  77.0480776  99.2591095  46.9986439
  75.6149530  99.6015072  46.6523695  74.1770077  67.3394775  42.2096395
  73.3923435  67.2962809  42.7561474  74.6994400  68.0424547  42.5958014
  21.7937314  14.0598445  60.3575420  21.4232384  14.4967895  59.5907021
  21.5666329  14.6307426  61.0915279  99.5768738  95.2229118  76.8545246
  98.7095547  95.6060982  76.7235518  99.5114708  94.7625542  77.6911974
 100.9428024  89.9222565  45.1432085 100.7750034  89.7285652  44.2209530
 101.3513660  90.7878494  45.1356649  52.4913615  45.0795649  85.4530886
  52.2527903  46.0065077  85.4436460  53.3029478  45.0462721  85.9594932
  72.8340101 107.6326656  84.1785240  72.4639130 106.9382858  83.6334610
  72.6355886 107.3643589  85.0756741   5.9360556 104.3126965  24.0755343
   6.1238341 105.0749493  24.6232033   5.0850920 104.0005302  24.3831706
  75.5998468  53.3534336  27.4277020  76.3901711  52.8161001  27.3739433
  75.2581549  53.1895876  28.3066964  83.8529682  44.6861219   0.2062798
  84.6633339  44.7177172   0.7147454  83.2229042  45.1824045   0.7287259
 109.9312115  68.4698582  33.7409854 110.2863312  69.1951990  34.2547989
 108.9870453  68.6265802  33.7260962  17.1037631  79.5001125  27.3140669
  17.1901660  80.2254295  26.6954470  16.1632495  79.4384241  27.4809742
  13.1879538  55.3410052  85.8722809  12.4532192  55.0579737  86.4166024
  12.8812140  55.2193068  84.9737647  89.9247265  89.9466705  29.3223572
  89.0584278  89.7987461  29.7016740  90.2585888  90.7175922  29.7810984
  85.4212570 106.5791988  53.7746048  85.1796913 107.3461056  54.2939615
  84.8520660 106.6213512  53.0061817  79.5932388 105.2518749  63.1091070
  78.9994431 105.1178932  63.8478136  79.8882198 106.1579227  63.2001925
  95.0723171  57.3169088  27.2780490  95.9906197  57.0546103  27.2136378
  95.1029968  58.2622433  27.4251318  85.3929424  84.8328400  43.9291382
  85.4638100  85.6288719  44.4559669  84.4838142  84.8239136  43.6297464
  77.7171803  74.6848774  14.3690920  77.4648190  75.4006720  13.7858343
  78.5286665  74.3440866  13.9928210  85.3761292  98.8944626  20.9335256
  84.7242546  99.4383144  20.4913545  86.1395836  98.9189911  20.3566694
  85.7111073  92.5439930  12.2013438  86.5985203  92.5027370  11.8449306
  85.7605553  92.0572186  13.0240500 109.4421959  79.6247911  27.5116062
 109.9540997  80.2684116  28.0014396 108.5743713  79.6521521  27.9145408
 113.6861515 101.7696953  10.7536137 114.0978813 101.0115528  11.1682487
 114.3096352 102.0425797  10.0805378  99.5175552  98.8405323   0.5451315
  99.8874378  98.7692738  -0.3348370  99.0618896  99.6823215   0.5459614
 108.5300446  48.0653143  49.8258448 107.7406406  48.0223989  50.3655052
 108.2385635  48.4651375  49.0064478  76.2481785  92.1170330  18.0013394
  75.3280973  92.3424244  17.8639472  76.3411474  91.2452316  17.6172209
  30.4227673  32.1041637  65.0151634  29.9139534  31.6777949  65.7047606
  29.7944962  32.2465758  64.3071890  75.1110649  64.9154472  36.9280219
  74.2178535  64.9050903  37.2719646  75.4482317  65.7799053  37.1630907
 112.6229572  68.6365652  49.4297791 113.0481052  69.3448925  49.9132490
 112.6532459  67.8880310  50.0256109  99.4756508  86.8110752  19.8926568
  99.1474056  87.7102184  19.8971331 100.2494335  86.8413734  19.3300092
  31.8162762   7.6027637  70.6629515  31.6530930   7.9239612  71.5497637
  31.4426743   6.7215209  70.6548548  51.3373423  67.5931025  83.0552292
  52.0541811  67.4191427  83.6652374  50.8251572  68.2824993  83.4778786
   1.5661483  90.3507614  77.0922089   1.5475707  89.5738506  77.6510382
   0.9130053  90.9366608  77.4747801  73.6570168  59.0239429  29.4865131
  74.1789150  59.6619844  29.9730897  74.2988586  58.5248852  28.9813232
  73.5343027  79.8623705  45.2342367  73.9947605  80.6969357  45.3220558
  73.1862974  79.6876574  46.1086464 101.3593882  26.4318560  96.3247141
 102.0110720  25.7840060  96.5927281 100.5198019  25.9838866  96.4279548
  88.5114002  75.5590916  39.9608898  89.3826389  75.9220648  40.1203585
  88.3099079  75.8074665  39.0587020  92.9103565  85.6167221  34.0563154
  92.6958752  86.4972591  34.3643522  92.3015022  85.0446320  34.5234776
  75.0164270  88.4127617  47.8478813  75.6991816  88.2037067  47.2104073
  74.2125130  88.4613132  47.3305798  84.3478775  83.2050419  22.2917414
  84.6712589  82.3448277  22.0239949  85.0067234  83.5278893  22.9064965
  85.3435707 104.3112469  36.9093680  86.0621357 104.8717594  36.6165638
  85.3199196 104.4286537  37.8590465  81.3736153  78.3904314  42.7419806
  80.9233570  78.9675856  42.1252203  81.7312908  78.9808464  43.4050846
  77.9445982  95.2803135  17.9230976  77.7350378  96.0608387  17.4101722
  78.6172009  95.5716991  18.5386729  95.7877254  76.4353848  14.1873348
  95.9066677  75.8676052  14.9487233  96.5143585  77.0565748  14.2359531
 107.2093868  84.2125034  23.9247847 107.6734638  85.0165749  23.6917090
 106.3359070  84.5064735  24.1833496  72.4963999  66.9501066  34.6561456
  73.2641411  66.7118931  34.1364765  71.9539022  67.4657679  34.0594673
 109.3345451  44.8310661  20.6974864 109.9009418  45.6012583  20.7447815
 109.1895485  44.6975470  19.7608018   7.1248011  96.9026661  21.5054345
   6.3111167  97.3381996  21.7593431   7.7209525  97.0636559  22.2368121
  91.8257618  98.4169769  27.5250554  92.4221325  98.2062912  26.8065953
  91.0078526  98.6631870  27.0930362  65.7966185  71.8409681  46.6169405
  66.1922169  71.6392279  45.7689810  65.4883242  70.9960508  46.9444990
  84.7921276  70.3100252  42.6217079  84.1753769  70.4821205  41.9102144
  85.5598354  70.8397245  42.4065781 111.7530567   1.4072185  40.3058577
 112.1353657   1.7210631  41.1253548 112.1646053   1.9439750  39.6285439
  99.6752071 109.2007256  23.1144810  99.5900440 109.1913033  24.0678382
  99.3887138 110.0770187  22.8570724  82.5208664  82.4255562  27.8557467
  82.8826618  83.1145668  27.2984290  82.3405552  81.7020226  27.2555590
  70.5594540  69.9249554  22.3617578  70.7189322  69.5337057  23.2206655
  71.2945366  69.6302843  21.8241191  17.6314502  82.3920918  29.6100783
  17.0352893  81.8932438  30.1686311  17.1894221  82.4302578  28.7619138
  20.1610904  75.7960463  52.1358824  19.6810488  75.5762577  52.9343081
  19.8451762  75.1682901  51.4859962   9.9990212  12.7371364  49.6724129
  10.0445210  13.6012035  50.0817585  10.0081955  12.9167228  48.7322569
  82.0967960  57.9947090  53.0774212  81.7289639  57.7103329  52.2407246
  82.5171566  57.2116089  53.4327888   4.0252166  79.5043278  47.9156590
   3.5855822  79.6306276  47.0748281   3.9119487  78.5734606  48.1077242
  12.0484786 111.1731911  60.8859634  11.7022662 110.3681850  60.5008221
  11.9287638 111.0584450  61.8286896  14.8993527   9.4848971  76.0450983
  15.1139771   9.3223434  75.1265478  14.5473706  10.3749805  76.0549259
   0.7251506  98.0824852  56.8828583   0.6156115  98.1814480  55.9371090
   1.4648013  98.6503124  57.0990229  49.8645067  63.2908106  26.9304395
  49.8067474  64.1024971  26.4263940  50.0785685  63.5753441  27.8189492
  82.4305820  89.2153740  69.4542122  81.8140507  88.4833431  69.4701147
  81.9431973  89.9472523  69.8324203   4.4468646  20.5083227  41.8008375
   4.6303897  20.3927898  40.8685255   3.6133723  20.0582266  41.9384432
  48.9804303   4.5538383  33.7550664  48.0543553   4.3829780  33.9265800
  49.0444218   5.5080371  33.7144923  84.4929825  12.0487266  50.7632303
  85.3118264  11.7295699  51.1425447  83.8560044  11.9777637  51.4741802
  70.1178741  96.8246078  26.6811013  70.3973150  96.4775372  25.8339381
  69.2647648  96.4192390  26.8363929   9.5732169  71.8224001  62.3672819
   9.8173671  72.6809311  62.0215225  10.0798087  71.2007904  61.8446016
  11.6336476  14.1938357  32.8167796  11.8179356  13.8589530  31.9392133
  10.7976948  13.7932162  33.0553579  14.7662501  95.3980446  48.6780167
  14.5075469  96.3118172  48.7976980  14.7026496  95.2527809  47.7340412
  99.7420692  75.2927494  41.2849998  98.9810562  75.8429909  41.4702606
 100.1014614  75.6470060  40.4716301  97.1853733  89.5704269  21.3902473
  96.8282700  88.6931229  21.5282011  96.8994522  90.0685501  22.1559834
  82.0038986  92.8187656  37.2798371  81.5278530  92.1342468  37.7499866
  81.3679886  93.5271740  37.1797514  49.8042219  31.6774748  91.5845898
  50.6111067  32.1899985  91.6343886  49.2462557  32.0418261  92.2717234
  94.0602875 102.7592564  39.2488551  93.3783054 102.1251583  39.0273619
  94.1575241 103.2919407  38.4595370  97.1597195  64.2082596  70.3703785
  96.2917137  64.3671131  70.7412815  96.9875813  63.7688732  69.5375872
  11.0460238  61.7970467  45.0818157  10.4491381  61.0543013  44.9907827
  11.1054187  62.1659851  44.2005730 118.2179356  92.4473763  59.3564653
 117.3416615  92.6607513  59.0357685 118.8100624  92.8476524  58.7197542
  96.2631607  98.9823914  46.5224934  95.3648472  98.8793182  46.2084103
  96.7760277  98.3805275  45.9830761   3.8157420  79.7965908  34.6069789
   3.7294535  80.3060436  33.8012195   2.9487853  79.8380613  35.0105715
  87.8593540 108.4501934  46.2703943  88.3849144 108.7108803  47.0267391
  88.3411598 108.7887955  45.5157804  72.5757790 108.2027435  22.6439095
  72.7451992 109.0567398  22.2461247  72.7835989 107.5719738  21.9545841
  14.0790229  83.9000034  40.2146530  13.3711104  83.6206532  40.7952166
  14.8427539  83.4064198  40.5135202  16.5479903  66.8845940   5.0892895
  17.4145083  67.2844887   5.1632005  16.6890769  65.9644270   5.3120458
  10.0289683  80.3602505  69.2693663   9.6233992  79.6486282  69.7646856
   9.9413352  80.0951004  68.3538103   3.2746749  92.8814316  30.1799607
   3.7660651  93.0694771  29.3803334   3.9243941  92.9422474  30.8802438
   0.5783229  87.3022556  68.2736158   1.0324149  86.6535187  67.7358675
  -0.1304574  87.6221752  67.7154875  66.4019060  79.7012711  31.7869091
  66.3628387  80.4029465  31.1370230  66.0216951  80.0851727  32.5770307
 112.0337486  74.9327421  64.1144371 112.5578308  74.3188286  63.5999680
 111.7973232  74.4438124  64.9026537  59.2693996  82.5460434  37.8707623
  59.8269558  83.0149078  38.4916782  59.8680019  82.2577477  37.1817088
  82.4360466  99.9752522  60.5163956  82.3787498 100.8820820  60.8174181
  83.3651447  99.8439121  60.3273058 113.8027477  61.4215994  27.3726535
 114.0554810  60.5088139  27.2341371 114.1971684  61.6544151  28.2131672
 112.3940468  87.6428795  37.6967001 111.8578911  87.9741955  38.4171128
 111.8515205  86.9711018  37.2836471  64.5861578  79.7317171  38.6634803
  65.3904390  79.9273539  38.1827641  64.4791651  80.4708576  39.2621899
  88.8433647 107.0434093  67.2397900  89.6502686 106.8793678  67.7278805
  88.2037067 106.4455414  67.6266098  40.5761181  17.0300059  18.2004666
  40.2668892  16.9842677  19.1051865  39.9552380  16.4934020  17.7077222
 104.9519062  62.8064680  43.1062841 105.0032806  61.8523550  43.1634283
 104.0169334  62.9910612  43.0169535  68.1038332 107.5092220  45.7483864
  68.1414700 108.4531498  45.5940485  67.2248030 107.2554016  45.4671097
  97.1177387  99.2647457  40.0237560  97.4643326  99.4060612  40.9047461
  97.8902245  99.2715073  39.4585466  98.6063385  87.5429440  10.2129471
  98.0068970  88.2829762  10.1167107  99.4709301  87.9093266  10.0272536
 114.4346458   3.8093715  35.4381990 114.8183519   4.6271949  35.7546997
 113.8219053   4.0809970  34.7548246  98.1634426  74.6086502  23.9405847
  98.0088139  75.5186415  23.6871386  98.9917278  74.6309328  24.4198203
   6.1514907  77.0663214  22.8112626   6.4533095  77.1464968  23.7160897
   6.6643958  77.7150774  22.3293138   5.9518962  78.7180805  25.2316475
   6.4176039  79.2869234  25.8446503   5.6151919  79.3128729  24.5615125
 113.2041961   3.0347495  25.5350947 113.8735468   2.4931293  25.1169443
 112.6204139   3.2884841  24.8202181  73.3704901  50.9211063  16.7203307
  73.0746078  51.1259413  15.8333540  73.1048727  51.6782475  17.2422647
  66.0789871 109.5777416   1.2512392  65.5746698 108.9831352   1.8065183
  66.2808037 110.3218746   1.8184909  26.8079619  70.5665874   2.5827566
  27.1319442  70.6763983   1.6887721  27.3642211  71.1389923   3.1111068
  82.5757122  78.5488033  18.7049723  82.5238705  79.4853354  18.8958991
  83.1996155  78.2078838  19.3458760  85.6770229  82.8595066  38.7389779
  86.5711689  82.5676537  38.5613346  85.3951454  83.2769203  37.9250097
 104.8331165  69.1739845  13.5003829 104.9552345  69.3933201  12.5766897
 104.0042591  68.6958742  13.5254729  47.3647915   1.6315227  37.3974705
  47.7234112   1.3590102  36.5528655  47.3578297   2.5878577  37.3573899
  79.2807961 105.7114315  55.3021622  79.9490404 105.7036686  54.6168709
  79.6305847 105.1382065  55.9842873 102.3454571  88.7861252  19.3022084
 102.9365063  88.5104656  20.0028491 102.9251957  89.0120983  18.5748374
 113.8380623 111.3387585  24.2119431 113.8162231 110.9635448  23.3316207
 113.8404274 110.5801392  24.7956586 118.1690389   1.3480430  70.6132984
 118.6631710   0.9748607  71.3432360 117.3192579   0.9090095  70.6500196
  98.3308697  72.4624634   5.9189832  98.1601906  72.7857876   6.8036085
  97.9730415  71.5746689   5.9152663  74.8605347  65.6111813  69.6660137
  75.5356216  65.3404760  69.0437508  75.0398779  65.0965309  70.4529047
  26.9799363   3.9236407   4.6477073  27.8751313   4.1152434   4.3681762
  26.9840275   4.0845542   5.5912757  36.8944680  10.3057914  49.2279530
  37.1524083  11.1141448  49.6709633  36.6677033  10.5813079  48.3397532
  99.9225140 108.1326866  37.6070523  99.3627357 107.5572872  38.1283903
  99.3290520 108.5323906  36.9712305  25.2102124  14.4089656  36.8738151
  25.2211701  13.9633517  37.7208972  24.9895035  13.7221198  36.2447119
 115.4152966  96.9660378  44.5164537 115.2609253  96.3263321  45.2115631
 115.1510715  97.8030777  44.8982763  81.3564301  99.6135330   4.0732563
  82.3128510  99.6286011   4.0377909  81.1139870 100.4899883   4.3720508
  11.0248618  80.3393841  21.4349294  10.6654887  79.6663475  22.0129442
  10.4965930  81.1169720  21.6152596 101.2363243  64.5834780  23.1014752
 102.1567917  64.3240595  23.0605268 101.0510159  64.6619797  24.0372777
 109.3410873  99.3055439  46.1241388 109.1479301  98.8718319  46.9552946
 110.2969646  99.3419170  46.0894251 117.9313087  96.2351513  44.8637247
 118.0882931  95.6679916  44.1087914 117.1733189  96.7632198  44.6130657
 113.9616013 104.6088219  27.1726465 113.4394073 104.0090561  27.7053905
 114.0576839 104.1608906  26.3321948  79.7347116  73.9994621  39.3251801
  79.1933775  74.6692562  39.7429848  80.6320477  74.3141842  39.4345665
   2.9233794  97.0792103  29.8961544   2.4305205  97.5562668  30.5637884
   3.7595801  97.5416088  29.8396444  29.7304474  19.0580516  45.9638071
  29.3411099  18.4823470  46.6219902  28.9982258  19.3062739  45.3994751
  32.6575713  95.9236336   3.9882237  31.7607837  95.8272839   3.6677080
  32.7544265  95.2302170   4.6409357  70.1455914  20.4103713  13.9063954
  70.5582272  20.1481109  14.7293079  69.4902264  21.0590701  14.1631591
 116.4638424  88.5537720  35.9310555 116.3614273  87.6565170  35.6137609
 116.1420155  89.0997028  35.2136827 108.7436867  93.7475491  69.3942547
 109.4919300  93.2915878  69.0089417 108.7488270  93.4817219  70.3137875
 101.7497158  72.8149939  19.1219544 101.2926102  72.7076244  19.9560761
 101.8526936  71.9235754  18.7887883  42.6183831   7.3831802  31.6153264
  42.0356595   7.0471149  30.9343529  42.1560132   7.2068267  32.4346828
  79.4240522 101.9522667  55.5085182  78.5932922 102.1442318  55.9435129
  79.7656584 101.1872768  55.9714746  44.5986020  13.8001781  30.0299263
  44.3227040  13.4107070  29.2002130  44.1055428  13.3203464  30.6954241
  87.0810223  61.5218782   4.6693236  86.6369438  61.3923788   3.8313174
  86.6324615  62.2691154   5.0651300 105.5259609 106.5089607  69.4620514
 105.8237362 106.5581894  68.5536766 105.3160477 107.4134350  69.6946430
 109.8382187  53.1607723  13.9289522 110.7272816  52.8643990  13.7340903
 109.8711205  54.1101789  13.8115716 113.8811207 104.0608501  20.9978271
 113.7217426 104.8305225  20.4515386 114.8031235 104.1297722  21.2456250
  87.7957648  53.3524035  90.1145592  87.2948569  53.9948653  89.6120056
  88.2981318  52.8722952  89.4562587 104.9082756  94.5070744  32.0847678
 104.6125126  94.2599010  32.9609299 105.5684185  93.8510990  31.8608832
  34.3064057   3.2035117  10.3509581  34.4129120   2.8730350  11.2429631
  33.3849656   3.0455642  10.1454413  29.2909943   1.8170695   8.2654512
  29.6399342   1.0475116   8.7151855  30.0661217   2.2845988   7.9542899
  98.3085346  79.4090414  65.4020977  98.0572701  78.8516235  66.1385584
  99.0311909  78.9413977  64.9834013  57.4151325  78.5392475  36.5515304
  57.7141047  78.9927149  37.3397017  57.7778816  79.0510845  35.8285737
   4.6485572  86.1700821  49.9686146   3.8587050  86.0176277  50.4873991
   5.3273730  86.3603210  50.6161070  80.0763130 102.9027557  30.6431055
  80.0446224 103.8379860  30.4416895  80.9307957 102.6169777  30.3199768
  10.5881839  99.2098999  44.2190981  10.3513007 100.0580215  44.5943499
  10.8094363  99.4043446  43.3083439  77.0993632  35.1519488  91.5083548
  77.5159758  35.4152106  92.3289382  76.5981787  34.3684958  91.7347655
 101.8842584  17.8433280  66.0782814 102.5113613  17.3498016  65.5496979
 101.0461075  17.7201038  65.6326962   7.8142123 111.2049294  31.6083145
   7.4708991 111.8365383  32.2403240   7.0368056 110.7703972  31.2575269
 100.9499741 110.5276203  19.6451223 101.2131500 109.7870159  19.0987861
 101.5430546 110.4942226  20.3957081 105.6754476  10.3008990  37.8699470
 104.8852188  10.2074103  37.3379445 105.8415395  11.2433963  37.8885555
  81.6450500  85.2100372  41.0322809  81.9650936  84.6222973  40.3479052
  81.1903000  84.6354008  41.6480970  97.9063129 110.7378960  48.2370853
  98.7807465 110.9794044  47.9316854  98.0369377 110.4634476  49.1447449
  24.0399794 106.4254379  54.8657274  24.0822367 107.3301506  55.1754713
  23.2677607 106.0602283  55.2976322  26.5571724  15.0888400  69.6290779
  27.1585785  14.8777633  68.9149475  26.4355980  16.0363059  69.5676851
   1.3446097  89.5443535  27.3012090   1.0117202  89.1076469  26.5171742
   0.6635337  90.1765919  27.5306392 104.5750696   2.6411300  26.7669797
 104.9688703   2.2655635  25.9795141 104.2176658   3.4810405  26.4788079
  62.4747979  18.1713634  46.0742664  62.4587571  18.0164676  45.1298189
  63.3867680  18.0250030  46.3255215  69.1892927  34.5626448  78.1651631
  69.3546694  34.2741869  77.2675696  69.5898932  33.8865660  78.7116614
  63.1993008  75.6717110  61.6704702  63.5509300  74.8016930  61.8593073
  63.6033535  75.9179258  60.8383942  99.2196751 107.1731091  19.5288932
  99.8078632 106.4368153  19.3611801  99.4283962 107.4478436  20.4217482
   3.7309890 104.5210457  15.3706443   2.9831652 105.0431061  15.6612265
   4.2305045 104.3527031  16.1696315 107.3595905  67.1563530  18.3438611
 107.1874905  66.8800497  19.2440128 107.4755096  68.1047010  18.4024274
 111.1005688  56.1907673  35.7674432 111.1343384  56.8742800  36.4366961
 110.5576611  56.5627432  35.0723767  95.4085159  65.8931828  13.4240985
  96.1503124  65.3365946  13.6611259  95.6981087  66.7808294  13.6349523
 107.3690701  80.7414246  10.9913969 107.3562241  80.5728912  11.9335568
 107.4112797  81.6949654  10.9192002  71.4949244  28.0609797  93.2577976
  71.3796156  27.8946875  92.3222321  71.4420431  29.0131663  93.3401200
  25.6363808   7.9904990  42.5448656  24.8879181   7.4071841  42.4192762
  26.0479771   7.6816421  43.3519745  35.8168255  14.6723418  37.0936847
  36.1075245  14.0493732  37.7597475  36.5147625  14.6656947  36.4386559
  74.0715313  80.5758667  37.5794053  73.4840155  80.5630112  36.8238354
  74.0694761  79.6738768  37.8997803 112.0202732  85.6305981  45.8467865
 112.1624947  85.3646183  44.9383545 112.2917080  84.8721027  46.3637352
  83.0219269  93.1404209  69.6583128  83.4689808  92.3722553  70.0136900
  83.1802750  93.8295174  70.3035307  11.0763888  88.9586926  44.5279932
  10.1554541  88.7637901  44.7015762  11.5234332  88.1192970  44.6365356
 108.8468170 110.4856014  69.0713835 109.1262817 110.4816818  69.9868727
 109.4045162 111.1418056  68.6535311  15.2250724  81.9778156  28.4754968
  14.4271235  81.5836334  28.1231833  14.9524169  82.3699760  29.3050122
 105.1359558 107.5938892  62.3099422 104.4573498 107.5447655  61.6366529
 104.7361374 108.1011295  63.0164099 111.8551159  71.0060024  41.2166309
 112.1482277  71.9161558  41.2606049 111.4446831  70.9278917  40.3554249
  25.8737790   8.7172465  86.8527794  25.5377041   8.9853244  85.9975433
  26.4101922   9.4555812  87.1414948  70.9731388  86.5134716  51.1342907
  71.6760683  87.1583843  51.2130356  70.6665134  86.3826275  52.0315599
  97.2472000  97.4048710  31.6032100  97.0530605  98.3118343  31.3666749
  98.2020092  97.3718834  31.6622925  42.7906262   2.6872211  31.8455148
  41.9120347   3.0405479  31.9850922  43.1131112   3.1465774  31.0701251
  40.4037701  10.0755363  12.4530780  39.5667016  10.0611358  11.9890273
  40.9745728  10.6098609  11.9009018  84.2128468  93.0001545  38.6783099
  83.7342739  93.0354118  37.8500795  83.7483311  93.6118126  39.2495632
  34.4122939  37.7737761  39.1089678  34.9548869  37.4497223  39.8278642
  33.6634402  38.1850028  39.5406365 116.7045975  50.8937788  49.9560356
 116.6901302  50.9280205  50.9125137 117.2213554  50.1142979  49.7520638
  18.9469580  82.7337074  50.4657030  18.9873366  82.2833538  49.6220303
  19.3439441  83.5887909  50.3000021  92.6082802  77.6698303  81.1690998
  92.4447823  77.2667837  80.3164196  93.4285259  77.2763157  81.4667034
  57.8385102   5.2547889  31.2948775  58.1643235   5.9355502  31.8836427
  57.9539334   4.4399791  31.7837405  96.8134975  75.9355688  44.6926498
  96.3276100  76.7222500  44.9402046  97.1544933  75.5945539  45.5194902
  97.6136684 102.5326347  19.7851050  98.5629272 102.5693703  19.9024963
  97.4950695 102.2956657  18.8653135  48.1430470  12.4520545  35.4585743
  47.8129517  12.8645187  36.2567806  49.0933262  12.5539069  35.5117035
 113.0357647  51.7881823  16.3963473 112.9538918  51.4225197  17.2771537
 112.1338749  51.9493055  16.1191201 114.2127228  97.5281525  27.1891999
 114.7674942  98.0018902  26.5694952 114.6138668  97.6911449  28.0428648
  33.3266215  86.7432976  33.8528442  33.4174590  87.6954842  33.8894153
  33.1747775  86.4821243  34.7611189 112.7945232  68.9174652  66.5598536
 112.2675514  69.7152328  66.6055441 112.3677826  68.3867168  65.8872271
  96.6126442  99.4132328   5.0551140  96.5855026 100.1723671   4.4727048
  96.1805344  98.7166214   4.5609012  12.8305375  16.7648082  23.6061502
  12.1877514  17.4229674  23.3417749  12.3682343  15.9309440  23.5214472
  93.3982944  87.1379948   5.6078541  93.5378551  88.0493832   5.8650041
  94.1960144  86.6864967   5.8835626  87.8937626  81.2528229  38.0687809
  87.8621006  80.5508804  38.7187791  88.6009026  81.8244553  38.3678341
 115.8175278  90.0330734  30.8396173 115.2091599  89.8243523  30.1307034
 116.1953163  89.1891670  31.0872650  18.4903656  16.3958793  28.6689663
  18.0873143  16.4137035  29.5369887  19.1788517  17.0595508  28.7109041
   5.6735282 109.7161293  31.5208340   5.8258967 108.9152336  31.0192537
   4.8037867 109.5977879  31.9026518  91.4227486  90.5719280  49.0708590
  92.0466900  90.7677555  49.7698402  91.7449951  89.7582340  48.6831808
 112.3860741  94.7752190   5.9562397 111.5383339  94.5576477   6.3438344
 112.2621822  95.6482697   5.5838710 102.4275494 100.3737068   6.4500457
 101.6398716  99.8377800   6.5426612 102.9702663  99.8954868   5.8231521
 107.1766186  97.7798367  21.5138483 107.5680065  97.2544289  20.8159947
 106.6686726  98.4483528  21.0541749  57.7975976  37.2279697  17.8414488
  58.7455212  37.3579841  17.8137326  57.5739609  36.9087939  16.9671845
   2.9019313  48.0423450  21.0773849   2.5832324  47.2884989  21.5737534
   3.7686591  47.7773285  20.7695055 115.7942200  71.9087553   2.1008229
 114.8929596  72.0738173   1.8238233 116.2938023  72.6408148   1.7392430
  87.9753208  84.1560555  57.3489094  87.5629902  84.2683792  56.4924049
  87.3453522  84.5246601  57.9681873   4.6748369  88.5714431  31.6897607
   3.9700001  88.4094973  31.0626960   5.1954239  89.2683000  31.2902474
  90.7545734  74.7461791  47.9010391  91.6127385  75.0802226  47.6398849
  90.7726050  73.8212819  47.6551294  82.6250965  30.2591794  92.2180936
  82.8622753  29.6127051  91.5532237  83.4181482  30.7816523  92.3377961
  95.6313766  89.6040554  29.1544604  94.9242295  89.9722190  29.6842051
  96.4218617  90.0382752  29.4751096 100.7802857  98.3806391  49.8746490
 101.2157811  97.6685638  50.3431797 100.7405079  99.0959592  50.5094433
  40.1773756  98.1567628  27.2505784  40.1486271  97.2973235  27.6710176
  40.7183092  98.0245550  26.4720249  59.1114998  32.4270725   7.0572370
  59.8089218  32.8332138   7.5719041  59.3498039  31.5007663   7.0198417
  70.5842226 105.8210684  19.7230077  69.8280829 105.9772814  19.1572475
  70.2256792 105.8320178  20.6104517 118.2887519  77.5199957  13.0449998
 117.5308693  77.0747418  13.4239376 118.6860860  76.8676276  12.4681342
   1.6155564   7.2625869  85.5734327   1.6064297   8.1209939  85.9968558
   0.8673417   7.2818845  84.9767449  33.8561457 110.3182503  24.6709204
  33.9563673 109.5938648  25.2885389  32.9778212 110.2038279  24.3080425
  70.7098872  31.2099355  89.5046934  69.9169404  30.6839269  89.6085068
  70.9512359  31.1004322  88.5849145  27.6514452 100.2718718  13.0560184
  28.3310765 100.8961661  12.8018761  27.5526875  99.7017426  12.2935021
  11.3704127 105.5789442   3.3963254  11.5468043 105.5766065   2.4555212
  12.2172755 105.3873939   3.7992662  64.4032240   9.3640059  21.2065482
  64.9203205   9.3933415  20.4015756  63.5130405   9.5781094  20.9273219
  33.6777371 104.4573415  27.8695703  33.7684696 103.6663325  27.3382473
  34.1318196 105.1353474  27.3692203  54.2800379  11.3020599  37.2838378
  55.2036428  11.5490556  37.2371626  54.2922163  10.3664339  37.4855471
 102.9419071  75.2448171  91.5447619 102.4733240  75.8345669  92.1354014
 102.2790987  74.9591058  90.9160444  51.7572069  10.3020155   4.9322265
  52.1832657  10.2024674   5.7835764  52.3842621  10.7994950   4.4072974
  51.8266964   0.3957397   4.4454232  51.3835287  -0.3305584   4.8839736
  52.4481344  -0.0260851   3.8520381  33.0796021  95.2875430  23.5400486
  32.5836151  94.6851535  24.0944433  33.4017485  95.9576673  24.1428614
   5.6535404  84.8855610   8.0706793   5.2332800  85.6642003   8.4358257
   4.9835032  84.2041225   8.1247467  69.8626345  83.8836951  13.4018052
  69.1614455  83.2533069  13.5666525  69.8622626  83.9993162  12.4516141
  60.9046602   7.4785680  30.1421118  61.1389923   7.9230189  29.3273830
  60.3954935   6.7179203  29.8621130  79.0017700  17.4233913  16.4522529
  79.3536854  17.0717561  15.6344867  78.0520248  17.3930120  16.3369560
  88.1369621  77.3938959  85.0394729  88.9231283  77.9304712  85.1407900
  87.4567873  77.8740042  85.5118003   8.5487479  98.4488697  27.6604009
   8.5162609  98.6307807  28.5995960   8.4224194  97.5022812  27.5952721
  42.2374535   2.7188265  20.2680874  41.6835451   3.2838678  20.8067393
  41.6498518   2.0272258  19.9637103  89.1014988  49.2490130  92.1631050
  90.0265152  49.4823414  92.0847627  88.8888914  48.8294118  91.3294598
 106.7678100  62.3546266  74.6815947 107.7036602  62.3278254  74.8808244
 106.3964540  61.6246497  75.1770356  70.4233837  43.0668736  32.0637250
  71.2760973  43.3820581  32.3633528  69.9739313  43.8522196  31.7515492
  70.0600958  16.6036963  25.0220919  70.9822798  16.5959311  25.2785158
  69.7714615  17.5001562  25.1932049 115.4676760  90.2227540   0.2657608
 115.8926714  89.4899125   0.7113571 115.9868730  90.9876318   0.5140064
  65.8889818  23.7182045   0.7673555  66.6824913  24.1645908   0.4718585
  65.1759529  24.3044281   0.5140521  41.1607599   1.3295047  41.3438082
  41.5795660   0.4687916  41.3465452  40.2864838   1.1693314  40.9885359
  23.9136958  21.4660025  10.1518309  23.6457324  22.3379970   9.8619103
  23.7469506  20.9010053   9.3973744  22.0205116  17.9558718  41.5194559
  21.5770531  17.1462011  41.2664509  22.8518796  17.9317307  41.0456657
  44.2320108  11.9753122   9.4549745  44.7379065  12.0983207   8.6517525
  44.2445087  12.8330636   9.8796350   5.8547848 111.1857009  41.3326168
   6.3209313 110.4510262  41.7316055   5.3899496 111.5981929  42.0606375
 108.5644783  94.8654599  21.0308194 108.7893165  93.9392502  21.1192226
 108.5115756  95.0099714  20.0860715   1.1059397  79.2343326  39.0005541
   1.3282316  80.0080295  39.5184469   0.2298444  78.9900274  39.2988849
  61.2388468   9.3789726  24.0616012  61.5480042  10.1340139  24.5621681
  61.9781971   8.7710363  24.0639615  24.6032429  17.6772273   4.6604061
  23.6528087  17.7395844   4.7553870  24.7421527  16.8684459   4.1676509
  20.7181328  88.0969472  48.8729143  21.4628285  88.5047002  48.4308767
  21.1090058  87.5996728  49.5913601  48.8890457   2.0776203  28.0479598
  48.2457352   2.1508987  28.7529492  49.3085670   1.2296894  28.1937194
 111.5849954  65.6706899  93.4251115 111.4159948  65.5888587  94.3637135
 112.5240022  65.5078697  93.3357328  83.6922169   8.3136344   8.4291625
  84.4427204   8.0218917   8.9467114  82.9345512   8.1429189   8.9886570
 111.3948668  97.6556737  27.0992851 112.1895374  97.9077704  26.6289902
 111.4424504  98.1371028  27.9252362   7.3486870 108.4081925  44.1631269
   6.8464678 107.7155409  44.5923615   8.2163685 108.3586342  44.5642519
  18.7796276 110.1783043  52.2028446  19.6608895 109.9571527  52.5040007
  18.7584656 109.8886288  51.2907743  80.7837582   0.6920158  16.3101065
  80.5669880   1.6002172  16.0993659  80.3986549   0.1822655  15.5973053
  49.2828465  21.3875270  15.3095508  48.6972189  21.9577456  14.8114324
  48.6975431  20.8537412  15.8468843  33.7826556 102.3496694  36.2664962
  33.2703894 101.9930555  35.5407953  34.6748989 102.4066038  35.9246087
  29.5338607  32.4619436   6.0024446  29.1136193  33.3151174   6.1107284
  29.2131090  31.9417381   6.7391509  32.9835010   6.2067664  39.7322130
  32.1610880   6.6730148  39.5822811  33.5895109   6.8820471  40.0371408
  96.8583948  50.5213379  95.7000405  96.4811212  50.0276678  94.9719009
  96.2315351  51.2264370  95.8616447  47.7461910   3.1205863  14.9771011
  47.0168066   3.1977138  15.5921459  47.4121904   3.4939006  14.1614366
  13.3899849  87.3987050  30.0005627  13.3205479  87.0963783  29.0950203
  14.2403668  87.8361173  30.0424957  59.3983984  40.1003361  55.1659584
  60.3397226  40.1355553  55.3359509  59.0727234  40.9566355  55.4433060
  32.5505686  12.0234311  20.8349848  31.7854667  11.9067192  20.2717543
  32.8856993  12.8906012  20.6070900  15.1671189 105.9201665  23.2038426
  15.6770294 106.0839058  22.4104881  14.3372505 105.5644340  22.8860188
   8.7257784  99.0793116  11.2800467   9.3147724  98.6853702  10.6365204
   8.3433073  99.8304362  10.8264363  68.2983923  28.5476160  27.1949697
  68.4036922  29.1390467  26.4497495  68.0841780  29.1232133  27.9291582
  32.1282530  11.7943025  11.4624846  32.9178262  11.2749171  11.3106811
  31.9937682  12.2707117  10.6432283   0.5217825  65.8344358  91.5433630
   1.2814652  66.0654038  91.0087982   0.8375107  65.8906942  92.4452397
  64.6217459 106.8001453  26.4235854  64.4774931 105.8560361  26.4874578
  65.4534548 106.9463856  26.8742633  33.1211138  52.5050354  64.2451191
  32.1936941  52.3585796  64.0589094  33.1512094  53.3757496  64.6415854
   3.3352315  57.2640697  89.8931566   4.0969216  57.5754418  89.4041648
   3.6473977  56.4838282  90.3514221  41.1732340   0.3901813  11.7988586
  40.6585407   0.4260111  10.9926081  41.4789534  -0.5155630  11.8477988
  24.4652438  22.1510744   0.4021404  24.6697378  21.4285755   0.9957801
  24.6288729  21.7966127  -0.4718242  49.1355801   2.1969955  42.9721165
  49.1911650   2.8672168  43.6532497  49.4044256   1.3887796  43.4088564
  86.9982846 109.6071022  35.1502800  87.7112688 110.2068397  34.9307346
  86.3537122 110.1550425  35.5980730  14.3162417  56.8494749  32.4480033
  14.0395784  57.2605133  33.2669878  15.2719426  56.9000912  32.4655151
  70.9208393  46.5742302  10.4110205  71.2353182  46.9476843   9.5876950
  71.4783525  45.8097076  10.5556428  65.0288486  10.6624973  52.5293827
  64.2171240  10.2183521  52.2842979  65.2278614  11.2271059  51.7824936
 109.9362052  75.6239290  50.5153656 110.0599540  76.1013050  49.6949816
 109.5388592  76.2631006  51.1068153 111.0826302  16.3540363  34.5971274
 111.7390537  15.7854521  34.9996853 111.5919590  16.9862711  34.0900803
  69.6154690  16.2246454  30.3099394  69.5385838  16.0652518  29.3692422
  70.5488968  16.1210883  30.4949117  90.5710727  71.6958731  79.3693414
  89.7820169  71.2176269  79.6241000  90.3998596  72.5993424  79.6351603
   5.8245962 106.4309246  53.9345121   5.2506464 106.9472070  54.5004320
   6.6084545 106.9706423  53.8320065 111.2696773  62.1907073  92.4385047
 112.0169145  62.1719509  91.8405774 110.8842737  61.3173907  92.3676830
  18.1670826  64.3333430  22.1321630  18.2898539  64.9955172  21.4519525
  18.0415314  64.8367209  22.9365754 112.1939195  98.4418781  19.2377949
 112.6120699  97.5819476  19.1941738 112.9032529  99.0416903  19.4686770
  61.9995308  10.1364493  14.8485446  62.1873140  10.9726655  14.4222677
  61.0495424  10.1353872  14.9658000  89.3033601 109.9125933  44.6058369
  88.9211441 110.6322971  45.1080036  90.0011230 110.3217288  44.0940094
  73.8455582   0.8975644  32.6611233  74.2860794   1.0603864  33.4951830
  74.2241907   0.0766537  32.3465228 100.9368992  25.2284646  55.8707762
 100.7672119  26.1685586  55.8102751 100.9676075  25.0506377  56.8108130
 116.1658944  73.6936850  16.3472402 116.0854043  73.7175150  17.3007524
 115.4123486  74.1919083  16.0307384  21.6514158  31.3353610   3.7296647
  21.1719203  31.6243172   2.9532495  22.4985504  31.7764139   3.6659211
 113.1746448 102.6224668  34.9793100 112.5389470 103.3203949  34.8211408
 113.2133687 102.1418555  34.1524220  73.0526257  35.8360004  14.2782509
  73.7721729  36.4572692  14.3900859  73.4657860  35.0545859  13.9109302
  49.1297859  32.8907412  87.0977858  48.2191211  32.7524846  87.3581818
  49.6106262  32.1797388  87.5214609  21.0394740  27.0209837  57.2419691
  21.8305945  27.4296713  56.8907785  20.3426886  27.2972775  56.6466665
 109.4760877  38.4534150  94.5951608 109.1073543  38.2805186  95.4614009
 108.7270147  38.7285226  94.0665462  68.6217785  21.3299656  17.3669052
  68.6175442  21.4607859  16.4186966  67.7897644  20.8945346  17.5523293
  78.9249659  13.6333609  28.5216546  79.2115593  12.7313745  28.3784270
  78.5334539  13.6244440  29.3950796 117.5193442  54.6076960  49.2506599
 117.5778640  55.0975842  48.4304047 117.5480808  55.2785249  49.9328566
  14.0376871  95.1523621  18.6128867  14.7145813  94.4758839  18.5923231
  13.5763853  95.0550039  17.7798486  35.4891270 111.0396502  21.4916635
  36.2180346 110.7373230  22.0334458  35.2045553 111.8542820  21.9059420
   4.9045199  87.4141545  67.0440817   5.1016110  86.9619031  67.8643560
   5.6295031  88.0284901  66.9291019  22.2424579  22.9979110  56.8900490
  22.7836752  23.7339997  57.1755075  21.9953084  22.5536489  57.7010870
  31.1424607  86.0932965   6.5628231  31.3210791  86.9511909   6.1776638
  31.9563978  85.6035943   6.4447731  51.4670801  14.0087879  26.5083480
  51.3537550  14.2921913  27.4155807  50.5755329  13.9288867  26.1692405
   8.0138129  79.5137377  44.2983103   7.2491186  80.0282903  44.0400362
   7.8094881  79.2081375  45.1821041  24.7726601 106.3235290  12.1881974
  24.5142573 105.6325306  12.7980995  24.3143433 107.1032695  12.5015390
   5.2375239  93.1330640   6.8924028   5.0841540  92.6562126   6.0767293
   4.7462862  93.9481075   6.7893553  38.5168045  75.5878754  16.5768754
  38.1360596  75.0081010  15.9172332  39.2315834  76.0324235  16.1211348
  12.7969330  95.5415220  21.1081123  13.6572426  95.5634851  21.5271807
  12.9784077  95.2939815  20.2014589  42.7684402  36.3570690  63.2535553
  43.6604881  36.5297556  62.9524469  42.4783325  37.1872306  63.6315775
  16.7938137  15.4673362  56.5354824  15.9135449  15.5438983  56.9035816
  16.7314374  14.7416413  55.9144306  32.7030683   3.7450004  22.7436757
  32.0375204   4.2519203  22.2785830  32.9253149   3.0335364  22.1431279
  23.1369131 107.2590063   9.8628801  23.5643929 107.1318934   9.0159249
  23.8439291 107.1763722  10.5028224  61.3356256  66.4457178  27.4551034
  62.0991325  66.3613462  28.0262184  60.8363008  65.6424952  27.6025438
  51.1654043  15.4479098  40.4967785  51.5106821  16.3406396  40.4899645
  50.5844355  15.4100025  39.7369909  50.0053519  86.0004420  57.6657057
  50.3072279  85.4984231  58.4227276  50.3078192  86.8928594  57.8340530
  67.8441752 110.1055179  28.4362388  68.5876788 109.5026636  28.4350324
  67.1308661 109.6052882  28.8327146  42.5394457 107.8308434  44.3678999
  41.7191904 107.4256830  44.0863800  43.2214564 107.3139195  43.9390802
  61.2024689  31.6005850  21.9847751  60.7019949  32.3488188  21.6593480
  62.0916176  31.9372106  22.0958304  62.0239210   4.5634112  13.5313284
  61.4588928   4.0074059  12.9948258  62.8229618   4.0497839  13.6494255
 102.5734652 104.1502149  12.5636256 101.8756832 103.5057307  12.4454236
 102.7407588 104.1519613  13.5060906  25.6987715  28.3960366  10.6830490
  25.5705118  28.5833192   9.7531533  26.6486788  28.4059548  10.8005714
  64.1121101  23.5998392  12.8585243  63.2624245  23.8056755  13.2482636
  64.7502184  23.9936876  13.4534431  80.9920341  76.0563081  85.0541606
  81.7837793  76.3732927  85.4887751  81.1176330  75.1096731  84.9882808
  97.2212965  91.0194915  83.6612180  96.6124326  90.7955068  82.9574075
  96.8370182  90.6259959  84.4446233  88.9908218  17.1279669   4.7624955
  88.3230114  16.4562047   4.6247017  89.8165894  16.6442859   4.7822082
  48.0437105 108.8289375   3.2793283  47.1010416 108.7842567   3.1192997
  48.1899660 108.2356210   4.0160897  78.6122179  40.3906965  27.7599406
  78.8080215  40.2921581  28.6917043  79.2415428  39.8183250  27.3211098
  39.2494917  32.5328803   1.8844512  39.8380828  31.8476987   1.5677193
  38.7716675  32.1235538   2.6058170   8.8311898  74.8795896  77.7644494
   8.6063134  74.9212175  76.8349722   9.7796856  74.7513431  77.7758816
  83.5546190  72.1629053  82.6609412  83.4586078  72.3861712  81.7351082
  84.1292364  71.3973778  82.6643720   3.0698239  53.5476395  88.7705216
   2.6739632  54.1167527  88.1104973   3.8037621  54.0558567  89.1158905
  48.9702797  44.5807648  10.1904428  49.2559671  45.2023220   9.5209068
  48.7998629  43.7713528   9.7087324  13.9693516  99.8055847  33.7230325
  13.8891524 100.5339486  33.1071711  13.0660742  99.5532651  33.9145041
  91.8563461  26.5833068  17.1424317  92.0721722  26.5596294  18.0746830
  90.9640598  26.9284463  17.1118438 102.3500425  65.0270789  82.5151768
 101.9076473  65.3474986  81.7291441 103.1261141  65.5815225  82.5960710
  39.7636271  24.2095709  14.7840500  40.4046917  24.4792461  15.4417276
  39.5677209  23.2979131  15.0002337  38.8105774  24.4601083   7.2589421
  37.9420662  24.1986704   6.9530487  39.2309809  23.6395264   7.5161165
 117.0978052  71.9011849  86.7628220 117.2745783  71.7959624  87.6976546
 116.7543966  72.7910608  86.6826781  89.7950363  27.8549385  21.9671035
  90.4608631  27.8537774  21.2794185  89.0970612  28.4127688  21.6237593
 108.7254411  52.7779480  75.8953789 108.8233263  52.8797087  76.8421092
 109.0825588  51.9095015  75.7096413  47.6841563  81.2821431  11.4295232
  47.7903574  82.0537825  11.9858730  48.4473151  80.7386465  11.6255796
  57.4276495  10.8045673  17.9869699  57.4365044  11.7236805  17.7197909
  58.2941675  10.6569314  18.3658910  57.1206999  19.2382634  27.8389001
  56.7922258  19.5899975  27.0114827  57.6973486  18.5189915  27.5813007
  66.4039373  33.0567694  17.5887036  66.6754436  32.3533559  16.9990218
  67.0078564  32.9953647  18.3288014  90.1255781  67.8437334  94.7975403
  90.1163942  67.1680062  94.1196468  90.9441311  68.3180493  94.6518490
  51.6203403  26.9974065  10.2834463  51.0600233  27.6829171  10.6472504
  51.1659956  26.7123508   9.4906366  46.0371017  19.2502320  42.0375443
  46.2390614  18.7395418  41.2535524  45.8823872  20.1371217  41.7123985
  27.6873701  84.7382994  29.3929768  28.4464377  85.2921076  29.5755792
  28.0446451  83.9946957  28.9075470  91.7281342  11.7352486   9.4332325
  92.3992062  11.1660254   9.8099113  92.2147942  12.4847269   9.0901852
  58.3595324  15.6462216  56.0542345  58.4901667  15.5748653  56.9997883
  58.2561636  14.7419643  55.7578135  66.5833616  52.0178795  23.1496572
  66.4831924  51.1063290  22.8752971  67.3619986  52.3238230  22.6845145
  72.3784971  18.2383227  10.2241099  72.7678967  17.6352358   9.5909542
  72.9535580  19.0034199  10.2111077  49.5451975  22.7675343  57.7895355
  49.0252066  22.2414112  58.3970213  49.9980783  22.1250343  57.2433472
 118.1346416  14.5145166  16.6989577 117.7269077  14.4029045  15.8401668
 117.5613785  14.0386724  17.2999346  96.9005663 102.7455419  82.0183137
  97.4458439 103.2521051  82.6202276  96.0111982 103.0620092  82.1767714
  51.0629034   6.3616168  16.3632381  50.2229643   6.5056175  16.7991269
  50.9968090   5.4776937  16.0019302  95.1993877 109.1976731  96.0258975
  95.2313406 109.9074596  96.6673134  95.9251625 109.3810695  95.4293655
 116.1082281  30.9717274   9.5881861 115.3794999  31.1399746   8.9907920
 116.2555975  31.8090296  10.0280023  72.2756529  19.5021331  23.2126188
  73.0022240  20.1151490  23.3245850  72.6079130  18.6719561  23.5541439
  36.4058798  94.6614737   0.8542271  36.1054724  95.2959795   1.5049124
  35.8691614  94.8383326   0.0816413  90.8576965   8.7319064  50.1095724
  90.1566029   8.1801713  50.4563951  91.5348434   8.1139183  49.8342657
  26.4127183  44.6339989   0.4716741  26.0443330  44.3338537   1.3026008
  26.4121056  43.8557577  -0.0856178  70.7266951  36.7159224  18.5526443
  69.8750305  36.5901160  18.1342280  70.6261253  36.3279867  19.4219112
  69.5504522  11.0848129  28.2936716  69.5159864  10.2808869  27.7752614
  69.1874456  11.7572606  27.7172399  65.4855013  24.4075871   5.1593328
  65.3103161  23.7752199   4.4624427  65.4602528  23.8901234   5.9642088
  77.8905869  19.0963888  83.7592030  77.4788380  19.7868156  83.2395840
  78.6117554  19.5345080  84.2110920  20.7633339  49.7550302  83.5805145
  20.4766404  50.3182905  82.8616455  20.0537240  49.8042654  84.2210224
  88.5236454  41.1246061  13.6232388  89.4360352  40.8937836  13.4486306
  88.0528831  40.8530617  12.8352821  19.5653075 108.0331803  34.1238952
  20.1562231 108.0719094  33.3718610  20.0966614 107.6596807  34.8270273
   4.2596834 108.8606046   7.4200070   4.4785898 108.0805473   6.9102788
   3.8630217 108.5194195   8.2215559  35.3517509  15.1477706   3.4258142
  34.9075937  14.9155176   2.6103303  36.2678814  15.2652144   3.1745249
  22.6866978  97.8238327   4.9804062  23.1590431  97.8826971   4.1499507
  21.7747467  98.0017741   4.7503853  70.4785824  27.7682757  31.3940454
  71.3014984  27.5775266  31.8442154  69.8743010  27.0934987  31.7034841
  99.0913391   9.8130995  20.4495454  98.3404922   9.6278620  21.0135913
  99.8400974   9.8306525  21.0455942  20.9835672  14.1076159  38.6270595
  21.1253548  13.6144435  39.4350863  20.7423353  14.9858212  38.9216638
  38.4479022   9.9801922  30.4165936  39.1672492  10.3892469  30.8976817
  37.6566863  10.3458238  30.8122277  34.5678711  42.1887636  17.0879197
  35.4008794  42.0655823  16.6327763  34.7533369  42.8535509  17.7511597
 106.5992672  64.3427211  76.5901390 107.4754221  64.7264927  76.6262403
 106.6747696  63.6329543  75.9523609  47.6828384  14.1991735  37.5318885
  47.3362780  13.6587942  38.2418990  48.2014418  14.8714769  37.9738045
  36.6698855 103.3070118  30.7034111  36.0021418 102.9293091  30.1309681
  36.9410532 102.5817306  31.2661457  81.8988514  54.9151278  22.0064139
  82.8462029  55.0129128  21.9104767  81.5436172  55.1795959  21.1578298
 105.7144273 102.9286088  42.4876785 105.9176577 102.7067740  43.3963680
 104.8797596 102.4927546  42.3156548  31.0595083  19.3710971  43.6529970
  30.5999207  18.9950740  44.4037390  31.3053727  18.6152911  43.1195736
  84.6884632   4.9655822   8.8576114  84.0799427   5.4391921   9.4247341
  84.1274738   4.5251843   8.2191980   2.7607016  50.9757233  24.4525242
   2.7190642  50.4343891  25.2408457   2.5156264  51.8517828  24.7503424
  55.7079697  24.2516828   5.0907189  56.0682535  25.1006293   5.3470683
  56.4603519  23.7631464   4.7568288  42.5298804 102.6985903  10.6439710
  42.7780455 102.4092932   9.7659320  42.1506899 101.9212253  11.0540283
  38.2061267   1.5795431  26.8471932  38.7644935   0.8335271  26.6282940
  38.6586690   2.3354031  26.4728761  62.3044890 108.3249808  33.3970213
  62.7470988 109.1709819  33.3291268  62.7339667 107.8883291  34.1326284
  93.8389874  24.6724772  16.3573873  93.1042576  25.2592921  16.5364325
  94.5586491  25.2561235  16.1172247  13.6578291  96.3894350   4.0997851
  14.5524710  96.1078174   4.2909241  13.1092518  95.8422966   4.6618664
 108.6052877  77.3526090  83.8447001 109.5367176  77.5614660  83.9157942
 108.3914644  77.5208872  82.9269901  53.4496355  20.5342293  14.2725801
  53.0555773  19.6923864  14.5011628  54.0502310  20.7213259  14.9940467
  30.3420687  32.5142717  52.6916218  30.4290819  31.7824197  52.0808411
  31.2302470  32.6619983  53.0165005  45.9129000  23.6579967  32.5738454
  45.9219551  22.9231906  33.1872034  46.2516165  23.2921290  31.7567515
  60.4497623  23.3718491  26.3399529  59.7903156  22.9286003  25.8061981
  60.8797646  23.9769840  25.7356882  51.6684263 107.8145466  37.6085687
  52.2897166 108.5368312  37.7010012  52.1618956 107.0386479  37.8744769
  40.7113873  46.9021868  93.3392370  40.7190930  46.1389327  93.9168316
  41.5273987  47.3613154  93.5381293  59.3030596  37.3736668  24.5990801
  58.7996483  36.8335557  25.2082515  58.7395239  38.1276917  24.4255733
  66.6047716  38.7621737  51.9565201  66.5251970  39.0931106  52.8511572
  66.1021805  37.9475379  51.9568968  85.2247238  23.8305306  23.1077361
  84.9786758  24.5204282  22.4915099  84.5944595  23.1285977  22.9455709
 102.4702245  53.7828567  82.5497058 102.0898086  54.2663100  83.2830456
 101.9689113  54.0711723  81.7869547  18.4954751  18.1643152  34.7682762
  18.0041897  18.9832914  34.8326802  17.9181230  17.5074399  35.1573920
  59.3039608  32.1971941  26.9651294  60.1968956  31.8749475  26.8424058
  59.0695477  32.5808978  26.1201119  41.8414736  28.8021851   7.4126405
  41.3901043  29.4406343   7.9648000  42.5040054  28.4160447   7.9855114
  46.4710760  34.5784235  72.3748064  46.3062143  33.7496066  71.9252348
  45.5996513  34.9163747  72.5812817 100.2093250  61.9510871  80.9788337
 100.6855280  61.6139423  80.2200201  99.3048937  62.0339471  80.6765631
  82.7275944   6.7043066   1.9063693  83.1104565   7.3916000   2.4516012
  83.3439255   5.9749287   1.9725196 100.5018330   8.0316591  16.1507976
  99.7963619   7.9477018  16.7922759 101.2995148   7.8464192  16.6464102
  29.1368931 110.8012185  21.4107037  29.4672554 109.9028785  21.4020014
  29.9002617 111.3391880  21.2007332  91.3769913  37.7502894  45.5900002
  91.5519524  37.0265794  46.1915541  90.8475208  38.3631492  46.1001968
 107.4681074  73.5966759  68.4984067 107.6638586  72.8004211  68.9922598
 107.6611835  74.3096476  69.1071966 110.6406988 108.0881019  46.0191202
 109.6848000 108.1267194  45.9875727 110.9263242 108.9282400  45.6602097
  85.0218391  34.8291850   9.1837806  85.8338451  34.9182725   8.6848408
  84.9443626  33.8896155   9.3494236  87.2663593  26.9345331  22.5368047
  87.8194809  26.1550975  22.4842858  86.9733620  26.9593668  23.4477210
  60.8113718  18.4870458  48.3929205  59.9321127  18.4076428  48.0230236
  61.3949919  18.4389627  47.6357508  61.3898390  97.2415693  43.2782602
  60.4459303  97.3404021  43.4027719  61.5315550  96.2950463  43.2626200
  13.1155127 108.6979179  15.6855917  12.6632231 109.4145275  15.2404630
  13.7502449 109.1324576  16.2552559  80.2123165   0.8000433   9.3945551
  79.3391514   0.5818497   9.7204584  80.0691795   1.5374832   8.8013214
  91.5734512  74.4941109  69.8245385  91.0385925  73.7170082  69.9866131
  91.4326650  74.6929722  68.8988688  38.6835408  28.5994625  43.2770586
  38.4426475  28.1460881  42.4691916  39.2106938  27.9634309  43.7605953
  73.8059360  98.3824962  76.2640121  73.6806804  97.4344485  76.2221792
  74.2979461  98.5943168  75.4707339  66.0179710  54.9862051  10.4605997
  66.4824820  55.6838226  10.9229708  65.1534033  55.3542280  10.2780652
  76.4369202   6.9291782  30.9594917  75.7715797   7.6172954  30.9661031
  76.6708231   6.8133157  31.8804145  91.1348182 102.3231261  86.4035621
  92.0740730 102.4770635  86.5052405  91.0607225 101.8226093  85.5910209
  65.3043699  20.9932899   0.5100898  64.5501184  20.8604264  -0.0640881
  65.4051447  21.9440150   0.5569986  65.2905035   5.2856112  47.0620584
  64.5653677   5.6859517  47.5417805  66.0753870   5.5838847  47.5216484
  75.2140760  16.7455471  29.3525672  75.8874178  16.9540906  30.0001383
  75.4329729  15.8623874  29.0553403  56.7585135  17.5155199  33.2515240
  57.4810314  18.1394899  33.1818151  56.1404276  17.9309845  33.8528466
  83.1697369  25.4473996   3.1590509  82.2716427  25.4197311   3.4890363
  83.0753326  25.6153440   2.2214398  35.7176137  12.3430192  42.6247120
  36.1097407  12.7052128  43.4192467  35.5884814  13.1008661  42.0544243
  36.0923600  20.9563947  18.3871329  36.5752554  20.3720999  17.8026307
  35.2777267  21.1425328  17.9202735  60.7726336  30.1697850  24.4898486
  61.1068392  30.4950595  25.3257537  60.9818459  30.8619118  23.8626122
 113.9287281   6.4208001  26.1876559 114.6922779   6.2372112  25.6403828
 113.6003017   7.2606266  25.8666253  77.1947432  17.3755372  32.8417301
  77.6889610  17.3983705  32.0223045  76.7908335  16.5078127  32.8537226
  61.8981266  30.9402657  26.7012739  62.7434826  30.4915142  26.6862655
  61.8760395  31.3811350  27.5506139  31.2926119 106.6671989  36.5783930
  32.0408457 106.2284310  36.9831824  30.7185524 106.8875320  37.3119736
  21.1850136  77.6624055  29.2107201  21.5810602  78.4880729  29.4893861
  20.2977770  77.6894207  29.5689249  19.3344808  20.2492547   1.9771659
  19.9190068  19.8118794   2.5962502  18.8671029  20.8964157   2.5053430
  21.3598603 110.2568989  44.8394775  21.3321942 111.1769260  45.1021862
  22.2540968 110.1244661  44.5247650   1.0906189 101.2910588  26.1501527
   1.0810822 101.0888500  25.2146029   1.7300862 100.6824870  26.5202236
  41.0988665  21.6184402  11.1025739  41.6906929  21.2186337  10.4652905
  40.5263424  22.1790290  10.5789447  38.7680626  56.9654655  24.8122787
  37.9972172  56.8078423  25.3574228  38.4230876  57.0261383  23.9214683
  64.4054651  43.1147814   7.9973978  64.9809837  43.2951450   8.7406850
  64.2511225  42.1709585   8.0374843  83.9981270  23.8299370  37.5916433
  84.2317772  22.9726171  37.9475164  83.1098938  23.7150788  37.2538924
  60.1872444   6.8820864  22.7613211  60.4208136   5.9547591  22.8030372
  60.5178499   7.2494602  23.5810590  18.5712212 104.5079614  35.8774877
  18.3494919 103.9480324  35.1334786  19.1257447 103.9599253  36.4328146
 118.0915689   4.9924773  31.5157485 117.2827941   4.5027590  31.6650510
 118.7228006   4.6025068  32.1204805  54.2307758  36.4892364  47.9939270
  53.8580847  36.2576199  47.1432257  54.2562199  35.6633496  48.4771395
 105.7719458 106.6631572  44.3178511 105.8114398 107.0295985  45.2012491
 105.6147135 107.4189148  43.7518644 111.9952191  93.1390972  20.4741216
 111.8327940  92.3576970  19.9456680 111.4019860  93.0512602  21.2201715
  72.1363926  34.9396300  32.6604414  72.7341318  34.3558121  32.1934342
  72.6140642  35.7662535  32.7293658 114.1134022  52.4216747   5.4498339
 113.9215644  53.2971382   5.7859755 114.0099250  52.5012207   4.5015737
  88.0373287  33.9301682   4.4800988  88.1342888  34.8537517   4.2480895
  88.2540607  33.8932133   5.4117072  65.2222443  15.9958613   4.8621809
  65.2846098  16.3152254   5.7623744  64.3635845  16.2933493   4.5614490
  15.3640413  33.7469125   7.9846776  14.5065141  34.0533781   7.6897925
  15.1719201  33.1799102   8.7315577  44.4666022  88.2857151  34.0713239
  43.6105269  88.5379476  33.7252855  45.0853079  88.8631267  33.6240840
  30.8380192 111.1681165   5.6796640  30.7595843 111.5454018   4.8034588
  30.1436775 110.5104933   5.7203054 104.3597013  61.9621610  96.2202677
 104.5732290  61.0302174  96.2663033 104.0645868  62.0960563  95.3195956
  27.5143838  34.6706963   6.4569443  26.6779923  34.5393944   6.9035351
  27.8706670  35.4695415   6.8457150  59.0679502  68.6130762  10.7597125
  59.0269232  67.8136492  10.2348709  59.9642229  68.6336565  11.0951221
  31.8365037  72.5842875  87.9586443  32.0233666  73.1504708  88.7074753
  31.1540925  73.0473202  87.4726853  69.6329308   3.5761452   3.0753958
  70.2892590   4.1747731   3.4319216  69.4540834   3.9122903   2.1971861
  76.3211966  30.8915353  12.3796272  76.8812895  31.0785985  13.1329763
  76.6740084  31.4379144  11.6773272  64.4088793  17.5189030  18.0283141
  63.9759827  18.1967032  18.5473704  65.1767826  17.2752607  18.5452187
  89.5888424  43.1660795   0.6866590  89.1909218  43.9909124   0.9651206
  89.3998623  43.1132460  -0.2502106   0.1481145 104.8463006  17.9951644
  -0.4070718 104.1416652  17.6612651   0.9473151 104.4053728  18.2834220
  61.0372925  17.9930353  21.1879158  60.7231331  17.2371602  20.6917405
  61.6258621  18.4474075  20.5851173  52.7078152  52.4053240  19.7551739
  52.0618868  51.6994143  19.7816324  52.4720907  52.9732847  20.4887176
 111.7301351 103.1980985  91.4725414 111.9112903 104.1309732  91.5872514
 112.1630937 102.7769559  92.2151145  15.0397700  84.8880787  17.8108692
  15.4434794  84.0299339  17.9406333  14.7437733  85.1479072  18.6832821
  17.4043107   5.1611108  23.4757447  18.3260012   5.3315812  23.6698055
  16.9236505   5.6932378  24.1098094 100.7729704  93.4661096  94.2207622
 100.6714565  94.4074362  94.3615933 100.8863384  93.1033509  95.0992752
  73.7071848  24.7015023  25.6505513  74.5504522  24.4758749  25.2578402
  73.6219788  25.6444311  25.5096292  58.5173750   8.0364776  32.4687147
  57.5617790   8.0770546  32.4309325  58.7989092   8.9483982  32.3954296
  22.3411864 100.8152194   1.7358397  21.4356583 101.1244411   1.7106956
  22.8674143 101.6043205   1.6068478  55.2007341   1.8958311  25.3584266
  56.0408258   1.8870358  24.8997283  55.2700615   2.6279381  25.9711623
  62.8430319  22.5387120  41.7026615  62.2609329  22.1490574  42.3550081
  62.6537275  23.4761691  41.7422533  53.2396793  17.8308952  14.9324560
  52.8383064  17.1254158  15.4398322  52.7961731  17.7985787  14.0848184
  81.9652778 110.6938737  86.3989666  82.7457077 111.1494296  86.0833350
  81.7313225 110.0982278  85.6871345  48.7405062  30.5298805   7.8309208
  49.1576576  30.8285713   8.6390036  49.4686174  30.2612686   7.2706258
  48.8342207  96.1278636  23.7967801  49.4184988  95.8827598  23.0793047
  48.1116503  95.5025072  23.7415242  57.9455137  30.3415966  61.2315989
  58.2619905  30.6664395  60.3886557  58.3219814  29.4647741  61.3070154
  93.8762856  35.0315046  29.1151595  94.8261070  35.1454782  29.0824199
  93.5591412  35.4301977  28.3047938  48.7654352  53.6250305  23.4762073
  49.0886497  54.1020536  22.7118707  48.4639406  52.7869320  23.1256056
  48.7638283  10.1516771   5.6488788  48.5046387  11.0002351   5.2897090
  49.5362282   9.9026048   5.1413476   6.5252465 110.6012896  10.7839191
   6.1438959 111.2466283  10.1886535   5.7713288 110.1937995  11.2102842
  64.2141771  52.6391077  29.5937371  64.5027256  53.3322906  29.0000486
  64.3931341  52.9833317  30.4687905  67.7472401  19.0268433  31.1402678
  67.9685640  19.0909278  32.0693231  67.4002934  18.1406999  31.0372782
  96.8061352  37.6247764  27.1199799  97.2723293  37.6253486  27.9559803
  97.4965477  37.6948190  26.4606929  81.8467266 108.7833541  91.4748272
  81.1123544 109.3712037  91.6519320  81.9495613 108.8084310  90.5234977
 108.9908374 105.3929586  32.6102161 109.0858210 105.5348111  31.6683626
 108.0853022 105.1022620  32.7185297  71.5449667  10.3249395   3.6107817
  72.0612478  11.1277235   3.6830628  71.4362717  10.1940751   2.6688203
 102.1019966  45.5553263  87.3349091 101.2730629  45.2266174  86.9869867
 102.7580339  45.2729028  86.6976598  96.7697811  32.0888901  28.7377477
  97.5250149  32.6758647  28.7739563  96.3318539  32.3124242  27.9164743
  49.4125414  18.1439233  41.7110157  49.7066879  17.4531054  42.3047161
  50.1638794  18.3052385  41.1403131   5.8638131  68.1942182  96.0400441
   5.2646576  68.4353810  95.3335872   5.2911889  67.9264825  96.7588251
  80.5054474  17.5772202  25.9983802  80.5033779  17.7997470  25.0674081
  79.6914864  17.9511452  26.3358283  89.1194057  24.4897676   3.6548790
  88.9819241  24.1454792   2.7723855  90.0673008  24.4507790   3.7822023
  47.2073078  30.1483607  32.7171540  46.7586517  30.7105374  32.0855737
  46.5958643  29.4288087  32.8740239  64.5855951  34.9063301  16.4983082
  64.5989132  34.6229410  15.5841172  65.2700663  34.3868756  16.9200850
  92.5256920  15.0964415  48.4382629  93.1211281  14.3763530  48.6460018
  92.5114250  15.1270497  47.4816561  29.2144364  83.5328574  34.2483544
  29.3078535  84.3733091  33.7998629  28.3075016  83.5241575  34.5543265
  81.2097359  10.6901526  23.7668276  82.1051502  10.3878176  23.9186668
  80.9738445  10.3221381  22.9152679  82.9567242  30.3588557  28.1061172
  83.2638645  30.3457212  27.1996236  83.5258961  30.9926438  28.5426855
  57.5677061   9.4140106  21.5078902  57.3916054   8.4907019  21.3270020
  57.6776218   9.8106569  20.6437016  90.2891636  26.7178583  26.7909813
  90.5865860  25.8149362  26.9027901  91.0709095  27.1947598  26.5122652
  49.2588234  29.2434430  24.8895502  49.6046543  28.4404206  25.2791500
  50.0118876  29.8328090  24.8474073  41.0498667  11.7938530  29.9455214
  41.6076708  11.0640264  29.6763825  41.5127134  12.1893489  30.6841612
  16.3380163  96.2869174   5.0874555  16.4503592  95.9300835   5.9685242
  16.6149348  97.2001643   5.1618057   9.2915743 106.3628973  22.7473521
   8.9919060 105.4588736  22.6515770   8.4972351 106.8893455  22.6573038
  92.2279007  69.1805511  92.7350893  92.9738170  68.6244410  92.9599929
  92.3057873  69.3153196  91.7906302  76.0117245  20.9753799  31.3820863
  76.0195398  20.8475065  30.4334998  76.9259930  21.1462045  31.6082788
  51.0741711  34.1894841  50.8324385  51.4427185  33.3752251  51.1750603
  51.4530325  34.2743754  49.9575186  85.2361202  14.4005144  11.1739600
  84.4614887  14.2927480  11.7258322  85.8450508  13.7293816  11.4822042
  56.7270803  54.0955687  23.6434031  55.8795404  53.6612988  23.5468936
  56.6109133  54.6845150  24.3889737  56.3582706  50.9551048  33.2558274
  56.0042906  50.3642750  33.9205456  55.8586645  50.7525921  32.4648714
  50.4411983  23.6568117  74.1317987  50.5523872  24.4295573  74.6856356
  50.7598829  23.9306712  73.2717609  68.9227867   4.6748945  28.9689803
  69.3392467   5.3772628  28.4695077  69.6390057   4.2740884  29.4615459
  73.9507866   0.9004480  29.7642040  73.1111813   0.6076811  30.1185822
  74.5960808   0.6168425  30.4118133  92.1393108  46.1693239  26.7935491
  92.4757481  46.5848875  27.5874901  91.3299847  46.6424131  26.6001153
  67.2021198  61.8936348  27.6506233  67.1955585  62.3528719  28.4904361
  67.6180983  62.5074053  27.0452499  88.6608887   4.7111598  21.9845819
  87.8175259   4.8396850  21.5504861  88.7593555   3.7606514  22.0400047
  14.7105664 103.3049859  21.6399741  14.8158901 102.5238432  21.0968781
  14.8907154 103.0036468  22.5304651  85.4483509  27.8764915  20.7072258
  84.7987747  28.5118794  21.0081506  86.2423992  28.0968046  21.1942434
  91.3138563  45.7047897  88.1353220  90.3620559  45.6032627  88.1352362
  91.4651424  46.5450108  87.7024552  60.3420782  31.9930959  33.3404374
  60.6103992  32.2474003  32.4575067  60.9303999  31.2743855  33.5718822
 104.6138000  26.0555506   8.8958794 105.2740669  25.8634639   8.2300067
 104.8658276  26.9111395   9.2432719  68.0050659  21.5489984  30.3852201
  67.0839643  21.7827392  30.2704477  67.9835415  20.7026458  30.8318257
  23.6821985   9.1092688   7.9812062  23.2659268   9.8456681   8.4291625
  23.7962437   8.4474820   8.6633086  41.4859152  30.3463531  56.4312887
  41.2473631  31.1509562  56.8916607  42.4134684  30.4561806  56.2219810
  69.5551157  18.5796380  42.3547029  69.3565226  19.0555978  41.5483189
  68.7550926  18.6471701  42.8758955  83.7622005  74.4652050  96.1679124
  83.2354767  74.2644232  95.3942983  83.1226951  74.7154062  96.8347432
 107.6691515 110.4179996  94.7565485 106.8651754 109.8994058  94.7263579
 107.5355083 111.0248845  95.4845983 111.7297459   7.9394764  20.7053423
 112.2096634   8.0379224  21.5276694 112.4113750   7.8771096  20.0362158
  19.6572893 104.4331820   9.5672452  19.0040797 104.2781289  10.2495277
  20.1915520 105.1515527   9.9059755 107.4190235  67.9029083  26.6529918
 107.7630520  68.3388233  25.8733416 108.1977463  67.6367092  27.1418357
   9.5514714  83.4073346  83.2320681   9.1785752  84.2808169  83.1128886
   9.8405777  83.3927744  84.1444495  61.2376690  36.8365097  49.0202904
  61.8411922  36.8839979  48.2788467  60.9359598  37.7367830  49.1415739
 102.2183132  55.0628948  28.6945152 101.6867352  54.3234062  28.9891338
 101.8359184  55.3126669  27.8533125  81.9951708  84.6652954  88.5697672
  82.1842415  84.0543478  89.2819646  82.8497583  84.8518747  88.1810430
  90.8441639  44.3159533  22.1543241  91.7751598  44.4297361  22.3454714
  90.3988457  44.8747540  22.7912450  76.2676620  20.9989738  28.6620235
  76.1164761  21.9207788  28.4530950  75.3976917  20.6008482  28.6323118
  71.6242886  13.7147164  65.4854536  72.1415710  14.4482875  65.8179092
  72.0845747  12.9358900  65.7981825  67.9804945  31.0780478  16.3362694
  68.1996965  31.3270450  15.4383922  68.8011885  30.7455158  16.6997480
  60.8838415  40.3770971   9.6186429  61.6860962  39.9847627   9.2741257
  60.2822828  40.3851414   8.8741302  67.4152374  53.4324789  12.9351199
  67.5324297  54.3789530  12.8533590  68.2487822  53.0619812  12.6450062
  67.6678705  49.7547150  24.7633982  67.6032209  50.1849461  25.6160140
  68.6067963  49.6224165  24.6324539  20.1544415  83.1731671  87.1564391
  19.9681222  84.0353029  87.5282439  19.3433987  82.9227799  86.7139980
  62.0110655  50.6205511   0.5233336  61.1280251  50.4032898   0.8221154
  62.1481276  50.0642252  -0.2434436  57.1086264  32.6598525  22.5737929
  57.5923729  33.1097054  21.8810797  56.3324022  33.2019329  22.7147174
  84.7429085  47.4783373  19.1361058  84.1020298  46.9192219  18.6968994
  85.0638294  46.9477367  19.8652840  88.4817058  96.1807292  88.4135017
  89.3225986  95.8033937  88.1551418  87.9487545  96.1444658  87.6192227
   2.3886733  15.0051141  15.8060551   1.6119532  14.7609520  16.3093591
   2.0486979  15.2537835  14.9465132  97.2484112  41.5098953  42.2931194
  97.4042416  41.7041969  43.2173443  97.2468376  40.5538416  42.2463179
  38.3760786  37.6769233  50.2760887  38.0087829  37.6405573  51.1592627
  37.9319835  38.4170437  49.8622847  64.8202324  19.4452548  35.4689789
  64.6673822  18.5093892  35.3384972  64.0499687  19.7490728  35.9492111
  74.3089199  19.1194129  28.5525513  74.2664003  19.1890597  27.5988340
  74.6832228  18.2531643  28.7129903 105.7328415  66.8717575  16.1430812
 106.3261795  66.7616749  16.8860948 106.3112354  67.0129538  15.3935730
  51.3211823  38.3160925   2.9368046  50.7315588  38.5465670   2.2188506
  51.9130707  39.0647483   3.0103672 107.7580261  46.0438013   8.4396511
 107.3393536  46.1929607   9.2874110 107.3252487  45.2636766   8.0927479
 105.0596142   7.6353979  51.7731285 104.4759083   8.1385255  52.3409176
 104.4723034   7.1738255  51.1745882  87.4563980  13.6313307  12.8512156
  88.0547523  13.7379897  13.5906982  88.0162716  13.7016821  12.0780230
 104.1788673  89.8322487  10.4400349 104.5146084  90.0588036   9.5727515
 104.7199345  90.3384209  11.0460627  65.8273077  22.3808098  35.4746342
  65.0265121  21.8763971  35.3313494  66.5138721  21.8657112  35.0509238
  99.5595741  38.6869335  33.7364721  99.9260330  38.0297685  34.3281460
  99.9484253  38.4861612  32.8851676 104.6403599  10.8101535  15.1231062
 104.9340630  11.6510940  15.4735184 103.7496758  10.7087660  15.4587030
  52.2400093  19.9910569  19.3517745  51.8433571  20.5828381  18.7124836
  53.0835199  20.3931499  19.5592380   6.3334136  19.2017353  15.1578939
   6.5033774  18.7136328  14.3522263   5.7067733  19.8779988  14.9005520
  83.1779194  39.1163731  41.0022259  83.3714199  38.9361811  40.0822735
  82.6814365  38.3527637  41.2965727 105.4853821  32.8096509   6.0224938
 105.2438736  32.2624493   6.7698061 106.2684345  33.2780504   6.3117462
  59.8679352  63.0078077  14.7220504  60.8117771  62.8739071  14.6356571
  59.7147608  63.0308104  15.6666350   1.8377339  90.2491253  93.0668437
   2.3999249  89.4894736  93.2188475   1.6257607  90.5694836  93.9435825
  59.7231388   7.1910155  61.4559937  60.4086208   6.8486315  60.8823061
  58.9572001   7.2779667  60.8885384  61.7306137  43.3687162  56.2145329
  61.6885376  44.3062305  56.4030361  60.8235073  43.0702591  56.2802315
 107.6513004  29.6055198  31.6388702 108.3870220  29.5393133  31.0301232
 107.9189682  30.2774048  32.2658968  59.6764708  48.4249353  35.3313899
  59.5969105  47.7211523  34.6875072  59.3861437  49.2093468  34.8659396
  73.8051701  24.1876078  60.8533430  73.5625696  25.0757003  60.5912971
  73.2649708  23.6197519  60.3038406  75.3280210  36.3741016  10.1307738
  75.8670425  36.3181472   9.3417525  74.7174263  37.0896244   9.9534690
  55.4116839  14.9808787  96.5018680  56.3475531  15.1505278  96.3941723
  55.1387900  14.6039151  95.6654124  87.7321339  82.6154327  26.9277620
  88.1184483  81.8057060  27.2614360  88.4831142  83.1727409  26.7236304
  45.1545477   9.6138889  39.4445872  44.7524500   9.8399961  40.2832937
  44.5353174   9.0078682  39.0377402  82.0071983  22.2021890  42.9626608
  82.2684574  21.9832206  43.8571024  81.2972641  22.8354192  43.0687284
  60.3855181  37.6904750  35.1940584  61.0097647  38.1225824  35.7770085
  60.9016800  37.4538088  34.4234776  79.9844265  21.6141009  55.2048969
  80.0004673  22.5702262  55.1624918  79.4885063  21.3482952  54.4305277
  29.2482924  11.2294865   3.9131296  28.9775658  10.5600762   4.5414841
  30.2032495  11.2453997   3.9766651 100.6742698  89.6672576  88.1291923
  99.8809702  89.7444027  88.6592427 100.3800232  89.2569392  87.3159954
 101.3076687  81.8720913  22.8088760 101.3464355  82.1189690  23.7328768
 102.0950794  81.3463211  22.6682019  79.4168377  51.2603283  33.3716798
  79.0803719  51.9265652  32.7723861  80.3329277  51.1498642  33.1171012
  58.4935093  19.2852187  19.5533526  59.4167709  19.3102872  19.3019772
  58.0746937  18.7562239  18.8743889   8.7969797 104.8411639   7.2833830
   7.8499144 104.8451049   7.4222201   8.8995903 104.7773362   6.3338417
  87.9645061  60.1376247  57.8789091  88.2109261  60.9967184  57.5361681
  87.0914555  59.9781227  57.5203180  62.9153252  34.6195817  18.7913203
  63.1256008  35.0026822  17.9397035  63.0973959  33.6858416  18.6854398
  58.5205364  29.0648198  40.7405996  58.4567642  29.8864388  40.2536631
  59.4024706  29.0746665  41.1125326 111.6295177  51.3517925  82.9275980
 112.3559934  51.9310861  83.1575671 111.9909937  50.7671767  82.2614220
  67.6742887  12.5164521  38.4538126  68.3964777  12.8115082  37.8991795
  68.0048847  12.6097178  39.3472552  93.3437729  41.3444376  18.6765909
  92.4259281  41.4214468  18.9370883  93.4390354  40.4325056  18.4017432
  68.4201765  72.5499153   2.0154083  68.2661581  73.4532356   2.2920421
  69.1643953  72.2612381   2.5436437  89.7999668  40.4281855  36.1176229
  90.4424572  41.1117315  35.9273553  89.2421818  40.8062983  36.7974305
   2.9046492  54.9282598  17.4106944   3.6427645  54.3236589  17.3340416
   2.6816134  55.1497889  16.5065861  50.5297709  22.4220133  22.8544474
  51.4499950  22.6043344  22.6642251  50.1127195  22.3721242  21.9943261
  80.6234390  91.6486519  91.4304402  81.4986974  91.9906705  91.2482944
  80.7716924  90.7419103  91.6989037 105.1475221  90.4257076  90.8933386
 105.8620960  90.5536693  90.2694455 105.5803186  90.1401680  91.6979423
  96.7724419  37.6624751  37.4721766  97.0564461  37.1258712  36.7321539
  97.4982834  38.2684422  37.6211405  77.2366428  77.5401068   6.3120943
  77.2905159  76.6039324   6.1199808  76.5038681  77.8518248   5.7809615
  88.6853409   9.7415465  14.4297934  88.6543846   8.8071334  14.2245007
  88.0861378  10.1447606  13.8016212  54.6302843  35.0632596   6.2850493
  55.0740242  34.9407983   5.4458046  55.0611973  34.4458890   6.8761492
  53.0557966  14.3102133  11.4880610  52.8340197  13.7997258  12.2668099
  52.2484207  14.7751725  11.2685287  83.2357597  56.8890047  33.7008762
  82.7896786  57.6682901  34.0324736  84.1390896  57.1721601  33.5592651
 102.9159355  12.9089582  22.7840376 103.5103989  12.4315858  23.3628011
 103.4650326  13.5786366  22.3762918  88.5441017  36.2666416  35.7418513
  87.8540993  36.7723155  35.3124118  88.7311363  35.5517650  35.1334071
  13.1045394  54.4611216  15.0109911  13.0932956  54.6910000  15.9401095
  14.0327792  54.4529676  14.7774875  99.7897911  17.0237470  16.4449561
  98.9239883  17.1836567  16.8205154 100.0643349  16.1883783  16.8231320
  61.0483742  69.8897743  31.9283891  60.7727194  69.9440193  31.0133481
  60.4156733  70.4301643  32.4015737  75.5213928  12.5179577  74.2028379
  75.2642918  13.3276260  73.7617397  75.4100609  12.7070355  75.1345491
 108.0974007  42.7492857  25.5820656 108.7450314  42.0539188  25.6972504
 108.0661011  42.8931665  24.6362591  82.8007156  88.7568157  91.1703935
  82.0350153  88.7878841  91.7439487  82.5014908  88.2785648  90.3971079
  82.3596191  35.4150891   9.6380585  83.2650948  35.1119375   9.5713198
  82.3310947  35.9052491  10.4597390  99.2198164  92.9780238  92.1545857
  99.7479803  93.0706518  92.9474875  98.3911878  92.6091974  92.4604931
  82.3495674  92.8540993  13.3234286  83.1165314  93.2203197  12.8831100
  82.6043224  91.9577789  13.5423720  39.6493626  57.2881508  35.3256798
  40.5018091  57.2696638  35.7606792  39.6647286  58.0896378  34.8025990
  82.3433971  42.8236771  26.7699862  82.6703930  43.1416130  27.6115441
  81.9471836  41.9760132  26.9717598 102.2199821  32.7495360  37.1080112
 101.8804741  31.9886303  36.6368580 102.5488281  32.3931098  37.9332685
   4.4090306  75.9317296  91.8007937   5.1577031  75.5217486  91.3676235
   4.6885525  76.0410350  92.7097216  67.1764421  39.2049456  24.5993900
  67.7439022  39.9505091  24.4035459  67.7490139  38.5776019  25.0407934
  77.7075148   6.6771287  19.2649734  77.5687551   7.1602154  20.0795937
  77.8997612   7.3532969  18.6153042  48.7448454  30.2861738   3.4097764
  48.0971050  30.2566409   4.1139013  49.1284180  31.1608267   3.4737226
  55.5399513  39.8747134  16.5540481  55.4967308  40.8218718  16.6853964
  56.3356447  39.7403669  16.0392129  63.5825586   8.0305642  23.4857559
  64.2309380   8.1946093  24.1705394  63.8491297   8.5981888  22.7625871
 103.6932755  30.9707403  11.8272865 103.4361362  30.4035687  12.5542188
 104.4476032  31.4578795  12.1588111  82.5100517  59.5074749  17.5221944
  82.0751381  60.2455950  17.9491138  83.2953930  59.3555355  18.0479181
  32.3648600  23.5479593  17.6711726  32.7223735  22.9071832  17.0564985
  31.7605738  23.0449247  18.2170796  70.2057743  29.8974442  23.2469368
  69.4500208  29.5253038  22.7924252  69.9593449  29.8844075  24.1717815
  46.8206882  20.6047606   9.6897840  46.7445517  19.6685612   9.5054853
  47.6045990  20.8795261   9.2141551  64.4588232  29.0855289   9.9595451
  65.2564383  28.7362099   9.5620239  63.8222694  28.3747053   9.8836714
  55.9636402   2.3805183   0.7553145  56.4765596   3.1448653   0.4927911
  55.8441687   1.8829146  -0.0536040  38.8656116  37.8196812  26.7249632
  38.5384822  38.7103915  26.8508601  39.6652365  37.7817917  27.2497463
 103.0804634  22.0543671  25.5134892 103.7298679  21.3832283  25.3035665
 102.2729492  21.7423463  25.1050687  61.6103554  27.6937342  28.2793188
  61.7617464  28.6339688  28.3756042  62.3950386  27.2860312  28.6457634
  64.6898413  80.8723164   7.5437397  63.8151217  81.2346840   7.6844335
  65.0720692  80.8221340   8.4198761  88.1153011  36.4630580   3.4094977
  88.0904007  37.4176478   3.4756061  88.8696575  36.2813854   2.8489828
  40.7038784  55.7024765  29.8038912  40.7232380  55.3739214  30.7027292
  39.7725654  55.7660961  29.5921421  74.5724058  30.6754470  44.8401403
  73.6591005  30.9145880  44.6822739  74.5235872  29.8651719  45.3473902
  40.3135014  32.0911884  22.6618934  41.1399031  32.5326657  22.8578401
  39.8201466  32.1317697  23.4811521  93.7094307  86.4684582  28.4759569
  93.0886841  86.8840027  27.8774405  94.1888237  85.8457565  27.9294658
 115.4114246  39.9560905   6.0324728 114.5803928  39.4811654   6.0407317
 115.9964466  39.4060731   5.5114645  75.7692575  12.1883357  24.3477488
  75.8712912  11.5373874  25.0420761  74.8302794  12.1952116  24.1619873
   4.7542988  89.2700618  94.1021888   4.4727456  89.9492758  94.7150776
   5.7025754  89.3835633  94.0379545  51.9164228  86.7207623  20.9667897
  52.0963240  85.8352089  21.2824917  51.1472321  87.0003510  21.4631820
  73.7671137  21.8277383  23.8318300  73.3571196  22.5158548  23.3077717
  73.3601475  21.9090009  24.6943903  92.0771503  27.5557184   4.3041867
  91.3600063  27.4638796   3.6768892  92.6833057  28.1679320   3.8870555
  77.7679491   0.6549282   3.2392359  78.5261297   1.2229532   3.1023216
  77.7272558   0.5343043   4.1879326  58.4946394  20.6829739  13.4218085
  57.6560736  20.6364369  12.9626012  59.1313648  20.8890557  12.7374494
  10.8643757  84.9918693  92.6923016  10.3394448  85.2731841  91.9429371
  11.6008698  85.6029504  92.7117300 107.5736172  81.2513893  89.0887961
 107.7628834  82.1896523  89.0973130 107.0532591  81.1048406  89.8787209
  63.4254980  67.1959734  29.9453688  63.9062309  66.7337799  29.2587066
  64.0688419  67.7924824  30.3281426  72.8720665  44.9102545  31.5433240
  72.2314167  44.8071003  30.8396506  72.8092957  45.8327055  31.7910576
  49.0041273  97.0396335  45.3816319  48.9062804  96.9642467  44.4324350
  48.1067198  97.0681603  45.7134104  11.3942294  28.4070468  65.6621647
  12.0770602  28.3141685  64.9978256  11.4169554  27.5814724  66.1460447
  70.3210449  51.5087223  24.8761153  69.5236826  51.9991350  25.0759554
  70.9157419  52.1598625  24.5038414 109.4980652 101.6074937  91.7526084
 109.6892196 100.9328025  91.1010846 110.3213341 102.0858806  91.8506315
  22.5584912  11.5493309  24.7625780  22.3865747  11.0732400  25.5749893
  22.4580908  12.4713123  24.9994349  73.4375477  36.0555363  22.6796961
  74.1610956  35.9856200  22.0569420  73.6222744  36.8549371  23.1727147
  57.9011917  40.6572485  50.4346275  58.1249952  40.9570551  49.5535707
  57.9846716  39.7046542  50.3918982  54.8881453 109.1813477  20.9000015
  55.5426329 109.2914207  21.5897584  54.3538588 109.9741000  20.9480810
  72.1707153  39.1091824  20.1127839  72.4758959  38.4069967  19.5382988
  71.2298059  38.9560342  20.1992154  53.9380360  67.8544950  16.5170169
  54.8405361  67.8396511  16.1984205  53.9964199  68.2576132  17.3832250
  79.4172525  36.0803270   8.9430565  78.8551664  35.3058934   8.9197278
  80.2877998  35.7383800   9.1466463  67.7075434  39.8422456  40.1527357
  68.0022240  40.7526064  40.1779556  68.4731054  39.3508554  39.8549366
  96.4200878  62.7712107  19.7600543  96.1261272  63.2362747  18.9767706
  96.3178253  63.4067583  20.4684734  46.1963797  40.5653381  21.0488343
  45.4906654  40.0363159  20.6769085  46.9878197  40.0481892  20.8991051
  92.3276520  24.3381405  46.0727358  91.9869232  23.7036467  45.4422140
  91.7260075  24.2846346  46.8153000  43.0810690  28.3707762  24.6507573
  42.2770882  28.7972164  24.9473906  42.7953053  27.5129533  24.3365741
  41.2423897  25.8587980  17.2280741  40.4947329  26.3996172  16.9736135
  41.6943598  26.3740873  17.8962314  51.4104462  43.0900335  11.3351941
  50.7957172  43.3160162  12.0332420  51.3042450  43.7868977  10.6876373
  97.0275242  73.1638580  82.1613124  97.0224077  72.7677899  83.0327108
  97.9042036  73.5379475  82.0734003 109.5986938   3.6526996  54.9428272
 108.9941692   3.8984835  55.6430912 109.2218781   4.0417337  54.1535950
  13.2908856  83.3011692  91.8852365  14.0217816  82.9500049  91.3765934
  13.6596333  83.4639733  92.7534279  97.4124367 109.7561114  94.2364377
  98.0414612 110.4563897  94.0627527  97.9533512 108.9957755  94.4498247
  78.1791782  31.2906551   4.5838448  77.2818470  31.4114833   4.2733160
  78.2401466  30.3562570   4.7823769  98.3673746  90.3614133  89.9159100
  97.7002842  91.0478705  89.9160072  98.8954527  90.5405062  90.6939146
  91.0097534  58.4769651  93.5126769  91.3614828  57.9977220  92.7624461
  91.5740806  59.2460900  93.5915205  50.3211308  92.3503876  16.6332972
  50.6524944  91.6482544  16.0734391  49.6016312  91.9488811  17.1204817
  53.7033272  47.4733496  14.5196640  54.6187210  47.5854063  14.2632878
  53.2756186  47.1282816  13.7359381  52.9920006  36.9166565   8.0061871
  53.1329823  36.3381743   7.2567105  53.3039331  37.7719641   7.7105898
  90.9373743  71.8215662  95.2354261  90.3848106  71.5473002  95.9673289
  90.4371673  71.5827435  94.4550499 100.8245659  34.2896795  22.3416567
 101.7368317  34.2035651  22.6184154 100.3273487  33.8071680  23.0021024
   4.1159188  85.6585758  76.8402973   4.8362862  85.0557869  77.0245591
   4.2977368  85.9870356  75.9597924  44.1656828  31.0119033  21.3151836
  43.2418823  30.7703614  21.3820910  44.4955349  30.9477830  22.2114635
  98.8523006  62.2240448  18.0566430  99.3768501  61.5709972  18.5198951
  98.0979538  62.3734999  18.6266053  58.3020163  29.0858603  25.5575895
  57.6992989  29.7225618  25.1734376  59.1525936  29.2995811  25.1740885
  62.1222591  65.6138229  18.5365450  62.3009872  65.9901381  19.3983305
  62.8921175  65.0783443  18.3446801  52.4981165  42.7930689  15.6245065
  53.0364990  42.4443483  14.9140334  52.8960896  43.6380243  15.8340383
  59.7301531  83.3599472   1.1363872  59.4486237  83.9918900   1.7979106
  58.9189482  83.0788803   0.7130887  68.5595131  43.2179689  38.5589743
  68.1997013  43.0268717  39.4251442  67.9694557  42.7726126  37.9509234
  28.2344508  54.6221495  41.1033487  28.6669064  55.4345083  41.3665724
  28.9349461  53.9698792  41.0945463  57.3202562  39.0087247  23.3938646
  57.7314043  39.8438597  23.1708384  57.0228529  38.6565852  22.5549483
   0.1940684  38.0642462  33.7064433   0.9288077  37.4566770  33.7916350
   0.1204066  38.2204938  32.7649593  66.9059134  41.5626431  14.8307157
  67.2102356  41.9310617  14.0013266  66.4783001  42.2945452  15.2753508
  98.8080692  30.5592537  42.7535486  98.0898380  31.0246396  42.3248386
  98.4460926  29.6972966  42.9590559  84.2834377  43.4005880  16.5809965
  83.3512306  43.1990957  16.6624355  84.7268105  42.6339579  16.9442070
   8.6726432  12.3779798   5.3054678   9.2959456  11.6613102   5.4242527
   8.0812602  12.3077452   6.0548437  95.0669765  41.0251665  40.4745579
  94.3350792  41.6093588  40.6727457  95.6383038  41.0888577  41.2399101
   6.0877566  17.4460459  30.5504346   6.1584525  18.1831980  31.1569357
   5.4651408  16.8510234  30.9682059 116.8480188  65.4139077  95.2052265
 116.9685489  65.2392291  96.1386027 117.7135736  65.6838560  94.8983468
  83.5315228  21.2702250  24.7290635  82.9532719  20.8357739  25.3560495
  84.3822956  21.2973928  25.1668763  84.3560344  82.4512332  80.3093007
  83.5076792  82.8751605  80.4389635  84.9904329  83.1666892  80.3527549
  66.9533556  92.0984037  18.2034218  66.6462439  91.2378735  18.4887350
  66.9670027  92.6249452  19.0026700 109.8926813  90.5860871  89.4038120
 110.4500610  90.0878614  90.0015864 110.3970653  90.6362932  88.5918346
  75.3199387  15.0403059  35.5368066  75.4781818  15.8486354  36.0244489
  75.1729631  14.3780553  36.2121248  67.1926546  66.7503834  32.4255991
  67.7388287  66.4362574  33.1461859  67.5857496  66.3661337  31.6419792
  61.8306351  51.2110615  25.3128958  61.4183950  52.0319176  25.5821276
  62.3938370  50.9730577  26.0493660  77.8987837  45.1055288  49.1563368
  78.3529520  44.3778372  48.7315655  77.1462059  44.6997023  49.5866394
 101.5722942  47.8552485  14.6760225 100.6450272  47.6218176  14.7198069
 101.7161846  48.4096527  15.4429400 109.9260074 102.8913158  89.0967199
 110.3147871 103.4301990  89.7856942 110.6755430 102.5168031  88.6339345
  67.5193357  28.8349128  39.3397999  67.0819378  29.4927049  39.8803782
  67.5795412  29.2381310  38.4737611  40.6144350 107.8486119  30.7335043
  41.3343161 108.2957299  30.2884364  40.9968870 107.5363727  31.5535474
  83.5073280  51.2150764  22.9602003  84.4425297  51.0821867  23.1150246
  83.1390476  50.3316784  22.9457402 118.4516525  47.9287815  26.4220428
 118.5660553  47.0917463  26.8720555 117.6383305  48.2841825  26.7804193
  96.4948559  31.2759876  21.8842888  96.4838982  31.2516165  22.8411174
  97.4055290  31.0963559  21.6505384  78.3418798  21.3349438  33.5151124
  77.7331638  20.6987691  33.8905883  79.1943550  20.9011340  33.5515308
  63.4791708  39.0225863  11.6952407  64.0485096  39.1347861  10.9339917
  63.5922384  39.8281717  12.1997011  98.9809132  54.3460274  29.3823624
  98.5591412  54.3966675  30.2401376  99.1768456  55.2556324  29.1577244
  26.6035401  97.3151487  68.2306865  26.6551434  98.1563848  68.6844352
  25.8491074  97.4030917  67.6481727  58.3498430   8.7445265  26.7032003
  58.2395458   8.9142960  25.7676554  57.7847719   9.3875128  27.1315575
 104.7487068  24.3929982  19.7337329 104.2000294  25.1772547  19.7449732
 105.3859520  24.5564628  19.0384424  70.2996254   2.6736796  11.1309671
  71.0961914   2.2216320  10.8528280  70.5838823   3.2406089  11.8479192
  49.5853472  55.3313828  13.2240582  49.5889235  54.9288464  14.0924942
  49.6159363  56.2724876  13.3961618  79.1140795  77.6647902   4.2346138
  78.5071468  77.7534628   4.9694592  78.5811424  77.8464699   3.4605327
   5.1852833  94.4721215  89.0976378   5.5577790  93.6499327  88.7790635
   4.2795693  94.4605344  88.7881705  63.3533478  31.5482044  40.7296467
  63.5122967  32.4384761  40.4159880  62.5726223  31.2628531  40.2550125
  26.3768744  38.8456488  12.6642573  26.6297531  39.7373343  12.9033887
  25.4277301  38.8888645  12.5481021  88.4059906  29.8876643   1.0576681
  88.1170940  30.2252960   1.9054760  88.1989098  30.5872774   0.4380768
  50.3696966  41.4008617  47.3431063  50.2943993  42.0291615  48.0612946
  50.2016401  41.9170189  46.5547085  98.8152504  47.1463823  15.5725098
  98.8918400  46.4064169  16.1748517  98.4720707  47.8592539  16.1112785
  77.4669647  29.2334771   8.2423300  77.3409843  29.3067622   9.1883695
  78.3725452  29.5085931   8.0992723  69.7725630  49.9088526  32.6922202
  69.3931389  49.5902491  33.5112190  70.0983286  50.7837486  32.9035592
  72.0705444  91.7303270  45.5740526  71.8403060  92.6481431  45.7183865
  72.7104813  91.5334933  46.2581327 101.6915542  98.2993406  90.5444118
 100.7565004  98.5000795  90.5844948 101.7388565  97.3519700  90.6727967
  64.3925190  16.6810441  32.1669865  65.1754761  16.3031554  31.7664790
  64.6149254  16.7659283  33.0941129  82.6978016   0.3398161   8.2975459
  81.7484760   0.4450415   8.3603084  82.8425598  -0.5997257   8.4095174
   3.2253872  30.3391975  94.1406411   3.1262909  30.5312389  95.0731280
   2.4546658  29.8159259  93.9206412  68.0956602  44.1654778  28.0113411
  68.6968803  44.8102999  27.6385593  67.4184370  44.0554953  27.3438787
  86.0726452  36.4166307   5.2276039  85.3673553  36.2673068   4.5979249
  86.8515396  36.5504193   4.6875459   4.1820752  87.9989808  83.2782057
   3.4201371  88.0987065  83.8489321   3.9679276  88.5143631  82.5005475
  95.7126808  32.4970031  45.2111053  96.0396957  32.4894834  44.3115330
  96.5018082  32.5092983  45.7527256  81.2528896  57.0201254  50.5557489
  80.4993248  57.1428204  49.9784040  81.0612392  56.2117529  51.0311890
  77.7458429  30.4730248  23.0230761  77.0578671  30.5605793  23.6828136
  78.1786013  29.6463609  23.2365608  60.8629942  46.8315554  22.5524545
  60.2375698  47.3619509  23.0461740  60.5126810  45.9420300  22.5999451
  12.2964625  65.6061316  21.5338373  12.7968364  66.0182190  22.2381377
  11.4153819  65.5044222  21.8938041 104.4992924  45.5194807  19.1465700
 103.7641239  45.0718975  19.5654166 105.2325344  44.9106646  19.2356217
  86.6635609  22.2038484  49.0453434  86.2092972  21.8104768  48.3002663
  87.1257114  22.9555511  48.6744070  90.4922390  73.5770798  30.7058358
  90.9479618  73.0349255  31.3497424  90.8390331  73.2887173  29.8615527
  66.9948053   3.0314246  20.6645107  67.2572470   2.9786682  21.5835166
  66.1396170   3.4609705  20.6839204  78.8948679  33.8503456  19.9847925
  78.2785273  33.8774490  19.2529273  78.5797501  34.5231509  20.5883360
  96.7556000  60.1254225  19.3996608  95.9376240  59.7944069  19.7705841
  96.6766548  61.0776234  19.4572377  66.6479540  70.6789684   1.4428066
  65.7911539  70.8655739   1.0589983  66.9386768  71.5184021   1.7992669
  73.4562826  48.3144665  15.8093119  74.3124151  48.4696817  15.4103339
  73.2856512  49.1029310  16.3245237  60.3354883  36.6456270  14.9398410
  60.8983326  37.2075582  14.4072354  59.7177887  36.2647390  14.3156612
   9.6768319  88.4446638  82.6945689  10.3263318  88.7091439  83.3460489
  10.1944100  88.1797522  81.9341972  79.3567038  35.5363178  39.0630794
  78.6961079  35.1241684  38.5063243  78.8568449  36.1121702  39.6416688
  91.7226696  71.9913626  32.6440883  91.5035534  71.0690069  32.5119066
  91.7720318  72.0919657  33.5947061  89.8445129  50.9105396   9.8923141
  90.4488564  51.5115452  10.3279638  88.9845371  51.1373043  10.2462077
 118.1466389  45.2849865  38.0858254 117.5036621  44.5848179  37.9737139
 118.8444138  45.0707960  37.4665761   6.5584426  57.6011419  43.2961321
   6.3026576  56.8323946  43.8058662   7.3651843  57.3374748  42.8535509
  69.0755272  38.2147932   0.7894620  69.0311098  38.1071210   1.7395492
  68.2207918  38.5721254   0.5486934  57.5696182  72.6551056  27.4091220
  57.5851870  72.2081852  28.2554364  56.6727591  72.5412607  27.0946074
  13.0275969  54.3036461  32.7678657  13.5100798  55.1160574  32.6147938
  12.3476844  54.5438480  33.3973551 108.9458466  46.2008524   5.8726591
 108.9786530  45.2565765   5.7193720 108.5844612  46.2878942   6.7547363
  92.3055172  63.6195898  27.2902536  92.3525906  64.3570995  26.6819024
  91.9601250  62.8976393  26.7651558 107.6028824  73.7066603  11.8302810
 108.3023262  73.7020826  11.1768377 107.4804115  72.7846718  12.0564997
  94.4361305  47.8101015   9.5651340  94.6920013  47.7815008  10.4870582
  94.5366859  48.7291098   9.3170577  94.5821667  73.8016176  24.4078398
  93.7461853  73.7754536  24.8733187  95.1619720  74.2990494  24.9845791
  88.2465744  66.3749313  25.5664468  87.9045582  66.0392237  24.7378612
  87.6011276  67.0238638  25.8466387  43.0207491  52.0201063   7.5020683
  42.1524286  51.8403387   7.8625304  43.5866117  51.3578606   7.8988844
  11.0382418  50.4028082  19.0116715  11.3516001  49.5663834  18.6675358
  11.2547927  51.0386181  18.3297050  23.7775187  50.0952387  17.5020719
  23.8283305  50.0535297  18.4570110  23.9302401  49.1951084  17.2145498
 104.0815449  25.0275540  23.5981989 103.3621693  24.5980668  24.0610814
 103.6604691  25.4767776  22.8653121  99.6502018  62.7363014  12.4066615
 100.1568985  63.1543875  13.1028605  99.4758892  63.4399986  11.7816329
  72.9542112  50.3363371  29.5993161  72.9359198  50.5178785  28.6596680
  72.0651054  50.0473595  29.8047829  72.9610109  58.7408113   4.1403404
  72.0449448  59.0176821   4.1203004  73.0830336  58.3800697   5.0185239
  90.1084805  82.7214146  30.5509114  90.1727200  82.0310020  31.2107944
  90.2143383  82.2653484  29.7160268  99.9029827  65.4263496  32.3587465
  99.5321178  66.2938404  32.5204349  99.5415497  65.1654291  31.5116811
   0.3382449  37.7857018  38.2357812   0.7944636  37.0816875  37.7748489
  -0.3196187  37.3371840  38.7670755  72.6079130  37.2599220  36.7290759
  72.0598364  36.5820646  36.3336587  72.9959297  36.8374157  37.4953437
   3.3270221  70.6721783  30.1646876   2.3919921  70.8113241  30.3149462
   3.3866172  70.4200935  29.2432022 104.1652966  67.3887968  20.6921124
 105.0461483  67.2316408  21.0321403 104.0672684  66.7569733  19.9797797
  79.3642044  84.8965454  36.9315195  79.9326992  85.4620361  37.4542642
  78.5787916  85.4219246  36.7787623  93.5094357  72.4373007  43.7340164
  93.5492039  72.5237465  44.6864748  94.2955208  72.8841209  43.4199333
  85.7576561  27.0539904  31.9610357  85.9145546  26.6429782  31.1109257
  85.1969528  27.8044462  31.7644048  67.6703882  41.7115974  53.6344099
  67.4851227  40.8403921  53.9849949  68.5552692  41.6423655  53.2760429
  43.5709589   7.7058218  67.7534750  44.4347304   7.3122881  67.8770092
  43.2644957   7.8941820  68.6405089 105.8268166  61.0851574  21.0723901
 106.4533615  61.4426947  20.4432297 106.2712860  61.1521769  21.9174862
  95.1015949  60.7386446  45.7290220  94.9957275  60.2168846  46.5245056
  95.9858131  60.5344343  45.4245615  72.4339056  58.9912748  22.0449758
  72.2924948  59.8335648  21.6127944  73.0418730  59.1869783  22.7579331
  33.2946812 108.4373134  86.7807033  33.3949601 109.3881410  86.8265769
  33.7711178 108.1091588  87.5432995  61.0080004  76.9420338  43.6670780
  60.0544500  76.9392014  43.5836172  61.3196373  76.5172291  42.8679180
  86.5133476  39.2306423  48.6551237  87.0337772  39.7835588  48.0723190
  86.7543793  39.5175505  49.5359325  72.6914644  13.2625520   8.9007068
  72.7868080  12.3176742   9.0204924  71.8525505  13.3635199   8.4509665
  71.4447021  78.7018442   2.1361487  71.1315060  77.8647327   2.4787648
  70.6476879  79.2018318   1.9600496  82.7735615  35.9694386  15.7788217
  82.8873348  36.9192839  15.7459927  83.6645126  35.6204677  15.7532525
 113.3692837  55.0094604  25.9336543 112.4373913  55.1623917  26.0899425
 113.7115479  55.8640242  25.6713438  61.9455814  79.4868279  37.2072983
  62.6639462  80.0521183  37.4912548  61.2829065  80.0912857  36.8730497
 101.0344982  68.3151531  30.9627151 101.1485386  68.0577517  31.8775773
 101.1397076  67.5012684  30.4700136   5.9522395  37.1831203  31.8340278
   6.0404162  36.5242505  31.1452985   5.5190520  36.7221546  32.5524235
  72.4100447  39.0536928   6.8875754  73.2693338  38.6411452   6.8000877
  72.5227928  39.9248838   6.5073848  94.3748474  58.2419872  18.2635081
  93.5810280  57.7071714  18.2555914  94.7933578  58.0370855  19.0996242
  88.4729958  40.0692701  17.8112006  87.7994823  39.7127748  18.3904469
  89.0167236  40.6123590  18.3818567 108.4616947  18.7443602   5.2339035
 108.2862186  17.8214669   5.4175007 109.1381550  18.9897263   5.8651179
  96.9402218   6.4751828  25.5512047  96.7435169   6.9894117  24.7681928
  96.3743114   5.7063639  25.4812574  58.5300732  14.7483683  40.2051306
  59.2837143  14.4307303  39.7077703  57.9566288  13.9860260  40.2840185
   0.1380973  23.1066298  21.6234994   0.2304606  22.4237251  20.9591627
   1.0130553  23.1923604  22.0021081  74.5703905  14.7914265  69.0175846
  74.9454897  15.5908202  68.6481216  73.6897295  15.0454090  69.2935613
 101.5444374  69.8538160  45.9742594 101.8350697  69.9184370  45.0645399
 101.5037060  70.7607365  46.2776804 107.9353523  54.6877146   6.5078050
 107.6843834  54.4913816   5.6051975 107.1078682  54.7021389   6.9887459
  73.7583780  58.5209227  40.3711700  73.0530310  58.0613279  39.9156547
  74.4175339  58.6781693  39.6951365   3.7144904  42.4811792   0.3220598
   4.2158942  41.8741179   0.8664015   2.8939109  42.6080894   0.7982698
   0.9704451  45.9420824  65.0605202   0.6356387  46.3025475  64.2394209
   0.2096038  45.5286789  65.4684877  29.5954453  82.8806441  95.3283887
  29.1860234  83.6642163  94.9614809  28.8893067  82.2353523  95.3630958
  90.2572727  66.2561989   0.9074297  89.7028255  65.7723665   1.5195796
  89.6499634  66.5915680   0.2479248   8.9572560  99.1622441  93.8544088
   8.2341038  98.7846654  93.3536920   9.6420132  99.3199151  93.2044267
  36.7418068  10.7316016  84.9879756  36.7382592  10.3738211  84.1001609
  37.0742195  11.6233633  84.8855081  20.3548865  43.7881374  18.8371432
  21.1033301  43.2801533  18.5240650  19.7104983  43.7245083  18.1321979
   1.3076453  44.9288130   5.1309723   0.9492354  45.0499249   4.2517069
   0.5505519  45.0082493   5.7112622  98.8220596  65.5824566  26.9347763
  99.7358704  65.4323101  26.6926169  98.4379578  66.0079908  26.1682153
  76.6054106  40.2887678  10.3264725  75.9430981  40.9362078  10.5681217
  76.1210585  39.6197605   9.8426729  74.2934942  47.4668074  57.1475887
  73.9337206  48.0236864  56.4571619  74.5625734  48.0785608  57.8328514
 110.6172371  63.3329105  13.3787405 111.2236404  63.9230824  13.8261759
 110.0734425  63.9098406  12.8423870  92.7019882  65.8195448  12.5657630
  92.3307896  65.6921434  13.4388125  93.6105728  65.5295753  12.6471567
  62.3685265  23.3269858   2.9694924  62.1543264  22.7776885   3.7235621
  63.3122396  23.2168531   2.8533044  58.6155653  49.0260506  13.5505867
  59.5332003  48.7834692  13.4267402  58.3671665  48.6100340  14.3760943
  71.7832279  26.5424800  48.2426405  71.1269140  26.4665627  47.5500202
  71.5724373  25.8341956  48.8510227  64.8580170  51.4335918   7.6896191
  65.6538057  51.8301010   8.0442041  64.2165709  52.1440697   7.6881552
  61.6189146  76.5661526  20.8855677  61.7223072  76.3029575  19.9710894
  61.9452858  75.8196592  21.3880181 112.2787094   5.5371433  43.6007166
 113.1006813   5.0529629  43.5222387 112.0005035   5.6848580  42.6968288
  82.0251942  95.8598900  26.7585874  82.2759628  95.4161930  25.9483552
  81.4377213  96.5607548  26.4759159  79.0238523  70.5259895  14.7456074
  79.1316509  70.4380989  13.7985671  78.3032322  69.9337864  14.9606252
  20.5053364  98.7723678  76.2923434  20.5063569  98.4164041  77.1808925
  21.3881432  99.1228097  76.1737087  54.3574286  61.8288660   5.8546603
  53.8242435  61.4996338   6.5782285  53.9880848  61.4122105   5.0760639
  77.4499941  56.6566944  38.7354946  78.0971384  55.9940529  38.9770436
  76.6228056  56.1774158  38.6877084   4.1462933  81.7236560  91.9435674
   4.2299782  81.1442273  92.7008608   4.8683487  82.3451274  92.0365476
  38.4793984  80.1799076  88.9242491  39.1304432  80.5142682  89.5411560
  37.8013264  80.8551591  88.9022317  94.9732113  60.6252146  15.9524691
  95.8267307  60.1933050  15.9868109  94.4410992  60.1555490  16.5947342
  81.3780325 111.0973540  33.3672619  82.2887915 110.8040587  33.3942032
  80.8654803 110.2891777  33.3865261  73.3047056  65.0952148  45.6888056
  73.4358835  64.6721411  46.5373564  74.1808605  65.3731966  45.4217720
  93.9348030  37.9469943  72.0402193  93.1018543  38.1530213  72.4644613
  94.0150356  38.5966563  71.3418388 107.4574375  24.4063139  46.5040827
 107.4318409  25.2099276  45.9846783 108.0250645  24.6180940  47.2451544
  93.6022949  51.5170956  29.1388154  94.1591072  50.8115959  29.4681644
  92.9701138  51.6708803  29.8409057  67.6146715  16.5784834  94.5315765
  67.9140299  16.6747998  95.4356454  67.5560206  15.6324385  94.3981956
  54.7089195  54.2652607  28.8485050  54.6974564  53.5658073  29.5018554
  53.8981771  54.1445732  28.3541751  62.6423740  48.1742907  24.8612785
  62.3734093  47.9787779  25.7588673  61.8277311  48.1611013  24.3588758
  84.1830349  70.1497221  15.2337813  83.4438992  70.6682968  15.5515563
  84.7135639  69.9859905  16.0135055  75.9689474  44.0486050   5.9108722
  76.3716364  44.9158144   5.8658886  75.1325083  44.1955423   6.3524675
  98.3150196  77.0861721  22.9950285  97.6763248  77.0989513  22.2821951
  98.8042736  77.9025316  22.8929138  56.3153982  51.6428518  18.7170935
  56.1462402  50.8322287  19.1972101  57.2129107  51.8778753  18.9526105
 104.5216465  76.4302206  32.0308042 103.6241341  76.4712858  32.3609829
 104.4454479  75.9904623  31.1840224  45.5727022   8.2079123  87.3789361
  45.4636687   8.2241772  86.4281061  44.8927134   8.7957142  87.7080861
  98.9110374  60.7883453  28.7825513  98.4705353  61.4430952  28.2408071
  98.2136440  60.1890707  29.0485311  68.0578899  71.7768049  11.8895280
  68.7852669  71.6423035  12.4970317  67.6905632  72.6245928  12.1396530
  79.4265461  29.7227144  15.7577121  78.8090229  29.0059137  15.6124699
  79.0112305  30.4828763  15.3504014  84.1221523  63.9192533  65.7189798
  84.1224003  64.8437738  65.9669590  84.9761295  63.5944796  66.0044384
  83.2262421  32.8222299  47.0116711  83.2715511  33.7671661  47.1575212
  82.3192596  32.5919986  47.2131634 110.4991228  93.0479139  95.8163206
 111.2872631  92.8805607  96.3330954 109.8693973  93.3980435  96.4464708
  92.4774170  28.7867093   1.0728466  91.8866730  28.6968017   0.3250623
  91.9620800  28.4885979   1.8223768  91.2503529  59.3630219  40.7670975
  90.4705334  59.8656750  41.0025883  91.9573689  59.7687006  41.2688780
 113.2430458  54.4667339  15.0208902 113.8448143  54.5597124  15.7594430
 113.7652016  54.7054005  14.2549753   5.1708846  34.6718049  25.5866408
   5.5084853  34.2735100  24.7843814   5.9426074  34.7832251  26.1418462
  78.8230705  81.8174362   8.2154620  78.5697985  80.9620762   8.5625035
  78.5441589  81.7966461   7.3000348  73.6557722  34.6583533  25.7955861
  74.3048906  34.6756768  26.4988518  73.6612749  35.5480719  25.4425979
  81.0219193  57.3144436  19.8328686  80.8559990  57.5858879  18.9300823
  80.9321880  58.1181526  20.3449583  80.0570965  40.4086733  22.6817727
  80.4578972  39.5425797  22.6077652  79.7339296  40.5990839  21.8011260
 100.0885313  32.7345274  90.3771540 100.1855963  33.3072279  91.1379537
 100.5756014  31.9437788  90.6089160  97.8254986  44.3937731   6.4476430
  97.2615337  45.0869226   6.7907524  97.3766422  44.0879774   5.6594473
 102.4692059  68.6368608  11.3227630 101.8621254  68.7944317  12.0458496
 102.8209496  67.7627707  11.4915049   3.8459639  41.1783600  24.5077157
   3.6774878  41.8308878  23.8279653   3.9162688  40.3503275  24.0326905
  83.7652683  52.8529358  13.3298743  82.9769230  53.3958387  13.3265662
  84.2202759  53.0864334  12.5207555  51.1907721  65.6406593  34.4131422
  51.7807627  65.4146671  35.1322198  50.3135204  65.5439854  34.7837043
  87.1799850  70.0106859  31.2300086  87.1914959  70.8352947  30.7440853
  87.9556274  70.0514936  31.7894292 101.7443752  77.1046162  32.2583270
 101.2806416  76.5364075  32.8734112 101.4588547  77.9890633  32.4873877
  91.1061668  70.0488806  40.3812170  90.6743908  70.7772493  40.8276272
  91.8609047  69.8433876  40.9329224  74.9385834  49.3537760  18.5286379
  75.7766294  49.7191000  18.2450092  74.3114614  49.6540976  17.8707993
 106.2911034  45.0550318  42.2948742 106.7182255  44.6273947  41.5526295
 106.2291622  45.9750509  42.0380449  90.0125885  65.2411556  17.8922617
  89.1403389  65.3100348  18.2804036  90.3159046  66.1463499  17.8225827
 107.9001045  39.5296407  30.9153128 107.3186398  39.5709538  31.6745377
 107.4277496  38.9905119  30.2809215  83.8236523  40.6436014  13.6685324
  84.0359020  41.5703440  13.7795424  84.6663380  40.1949167  13.7377894
  71.9361210  91.8148518  22.3618555  72.0404434  91.2930775  23.1575370
  72.0844221  91.1949158  21.6477656  77.7808952  53.1072044  41.1254025
  78.6110687  52.6795292  41.3354731  77.1129656  52.4659777  41.3681602
  91.2891674  22.7364826  48.4736919  90.6178570  22.7314925  47.7913761
  91.4041042  21.8143773  48.7033558  22.0012253  31.8286894  70.4255584
  21.1606758  31.4800738  70.7225063  21.9942683  31.6956805  69.4776681
  97.1685600  70.3635359  19.7599447  97.1352863  71.2693882  19.4524431
  97.9234982  69.9851751  19.3092227  73.9529991  18.9767492  46.8939400
  74.6072912  19.6250665  47.1543598  73.2099819  19.4962943  46.5869665
  70.2727699  47.0727777  24.0344667  69.7774744  47.6732063  23.4773350
  70.9882355  47.6045847  24.3830562  87.1080017  52.2213030  21.0723948
  86.2777805  52.5263023  20.7064295  87.5596237  53.0213594  21.3410783
 100.3434181  49.8410082  23.3997345  99.8585415  50.5872536  23.0472541
 101.2361622  50.1672745  23.5128331  88.8385010  22.4873972  28.1784058
  88.4301567  23.3017898  27.8847170  88.7117195  21.8795967  27.4498892
  45.8304804 106.8106581  11.0309339  45.1218432 106.1743159  11.1264801
  45.5134505 107.5920064  11.4839447  86.7615795  58.1691933   4.1694248
  86.4730263  57.3543692   4.5805559  87.2875977  58.6031961   4.8411250
  91.0280800  46.5852022  23.9671826  90.9186840  47.3821878  24.4859099
  91.4764023  46.8759727  23.1730223   1.6389804  39.8871040  31.7386961
   2.4331050  40.3362131  32.0283508   0.9926944  40.5856657  31.6359496
  81.6799927  37.1632528  53.8338375  82.2421837  37.7042484  53.2793188
  81.1597061  36.6481352  53.2172441  15.7545697  95.6237786  92.9988360
  14.9365269  95.3473442  92.5857776  16.3042294  94.8401874  92.9896885
 107.6002216  45.9483433  16.4399338 106.8680286  46.4306641  16.8239760
 107.7368164  46.3598537  15.5865657  14.0695338  86.1722088  53.7402010
  13.7959723  85.2557373  53.7018967  14.3721728  86.3690853  52.8536987
 102.6211548  58.1897449  46.4249182 103.5704613  58.0841303  46.3625193
 102.3764324  57.6977968  47.2087145 104.4986343  47.0529604  29.5378733
 104.0812016  47.7701712  30.0149417 105.0845432  47.4868679  28.9176583
  90.8697891  51.1055326  27.9342866  91.8198013  51.0635900  27.8250265
  90.5245304  51.0757780  27.0420170  78.9309835  65.6613398  39.7749352
  79.4201088  66.2534761  40.3462219  78.7499523  66.1799860  38.9910531
  85.4635334  48.8968086  14.2645001  86.4097118  49.0237856  14.1947925
  85.1051426  49.3395233  13.4952176  46.9322205  69.3278599  15.1702082
  47.2423220  69.1371059  14.2849505  46.5148449  68.5159206  15.4579341
  74.6638203  52.0540953  32.9052949  73.7327719  52.1026897  33.1221437
  75.1022387  51.9616175  33.7511492  91.2860966  52.5766420   3.4351489
  90.9000301  52.4507046   2.5683606  91.4907169  53.5109615   3.4727550
  70.2297592  64.9380684  21.7321205  69.3347645  65.1654816  21.9841075
  70.6825399  64.7916126  22.5626469  14.1881423  97.0015335  28.1132174
  14.9934726  97.4467659  28.3767414  14.4434218  96.0845280  28.0124283
  22.5182586  64.1705561  70.3548288  21.8108611  63.6981153  70.7937241
  22.2431521  64.2171192  69.4391966 108.6226368  62.8663158  17.7498305
 107.7454758  62.7251434  17.3936188 108.8444138  63.7612486  17.4926424
  12.9686772  83.0538076  82.5322106  13.4621560  82.8047674  81.7507437
  12.8918587  84.0061181  82.4735907 103.7518883  59.5372963  29.5013309
 104.3713188  59.4121408  30.2202678 102.9041100  59.6470261  29.9319863
 105.0604534  58.7543011  31.9091177 105.8790207  58.8149834  32.4015594
 104.6220970  57.9824495  32.2673440 117.9928112  67.8953838   2.8549799
 118.4702301  68.4165812   2.2094879 117.1907234  68.3917665   3.0177113
 112.7352524  96.9268131   4.3229154 113.6151218  97.2977829   4.3895131
 112.2441483  97.5662422   3.8069844  67.0529270  83.6525154  21.1701226
  66.3511562  83.8703060  20.5566740  67.6036596  84.4351101  21.1916637
  69.8929834  40.3396845  32.3555899  69.6090508  41.1458063  31.9245625
  70.8229971  40.4785395  32.5345421  94.4724274  43.0750847  29.1122103
  94.8181820  42.2836113  28.6996007  94.7068119  43.7811375  28.5098934
 115.8751678  52.0435143  17.0602500 116.0536194  52.9386234  16.7718685
 115.1988506  51.7289495  16.4603579  84.4626999  48.2738972  24.6418619
  84.0331554  48.4068918  23.7968540  84.7031116  49.1546106  24.9295759
  10.9929328  39.5978355  18.1306791  10.6522326  40.3749943  18.5736012
  10.2953963  38.9480162  18.2167077  18.6667286  63.9540469  88.8341620
  19.5732914  63.6829656  88.9787093  18.7134110  64.9054121  88.7395224
  54.5047682  46.2948988  90.0337234  55.0969523  45.5646895  90.2135786
  54.0014189  46.3995360  90.8411452  75.0546122  66.1764669  20.0867963
  75.5509853  66.5228987  20.8283043  74.1422987  66.3794088  20.2935123
  69.8992651   1.1898659  86.6679385  69.5638197   1.4488314  85.8096602
  69.1393584   0.8261202  87.1223083  70.2871799  90.2911282   4.0891504
  70.1277304  90.6956673   4.9418831  70.2454710  91.0179520   3.4676862
   7.0880179  86.8961048  24.8445821   6.9850020  87.0231533  23.9014602
   7.7336459  87.5528049  25.1056123 113.3339882  23.5596228   7.1653092
 113.3552837  23.7704206   6.2318522 113.6629677  22.6621485   7.2157484
 112.1195984  49.5591211  12.9547644 111.1754036  49.7137308  12.9260385
 112.4991894  50.4236650  13.1119263 103.6490631  90.3240013  43.6343670
 103.3959389  90.3565311  44.5569181 103.4540844  89.4267178  43.3640003
  65.2569628  45.3330278   9.4617653  64.5922852  45.2114391   8.7837899
  64.9432421  46.0784292   9.9738061  75.2974844  62.4379253  42.6880693
  75.3974581  63.2178879  43.2338667  75.9348106  61.8162775  43.0396366
  79.4727850  72.5088930  19.9648881  79.4230509  72.2850847  19.0355504
  79.7154140  71.6894102  20.3959465  72.0344877  47.7656555   8.2869416
  71.2361002  47.9209280   7.7822620  72.5392628  48.5732794   8.1911445
  22.7696740 101.3633865  75.2891424  22.6955639 100.4544395  74.9983480
  23.7027489 101.5634387  75.2144459  33.8347661 109.5840686  96.4198724
  33.0613934 109.3444532  95.9092636  34.5719086 109.2478221  95.9101817
  61.7580748  42.5345135  18.5721886  62.3084116  43.1925201  18.9969134
  62.1302319  41.6968441  18.8479340  27.3358952  73.6666434  79.9587932
  27.8144394  72.8406423  79.8884347  27.1856534  73.7771874  80.8976438
 113.2013512  24.6542478  37.4326396 113.2373142  25.2746820  36.7046261
 114.1109848  24.3872166  37.5649118 115.5023575  42.0009804  25.9556222
 114.8885822  42.1347713  26.6778469 116.2087917  41.4784956  26.3353372
  78.6053276  57.0026159  44.0425825  77.9526234  57.6133633  44.3849230
  78.0918074  56.2743378  43.6930943  85.3520393  45.9597254  35.8639860
  86.0241318  46.3774157  35.3254080  85.3569317  46.4573193  36.6816711
  71.8017721  86.5823936  30.1982665  72.1861362  86.6722202  29.3262410
  71.2924528  85.7731915  30.1533246  53.8653803  29.9166751   0.1421967
  53.0335283  29.4479275   0.2094721  53.7075615  30.7496285   0.5866193
  21.4727055 105.4612582  96.0017639  21.8579709 105.4449409  96.8778568
  21.4510380 104.5429652  95.7325098  65.7917976  64.7106409  36.1004472
  65.5611181  65.2545643  35.3473425  66.7155457  64.4975901  35.9680414
 106.0890770  68.2085228  35.2251196 106.5289307  67.4837112  35.6694341
 106.3134766  68.0948496  34.3015623  89.0274525   1.9076830  26.7954493
  89.4357491   2.5293356  27.3980045  88.5624981   2.4564536  26.1638594
  71.2814379  68.7262487  12.3892272  72.1361923  69.0555191  12.1113729
  71.2427855  68.9205647  13.3256996  88.0363083  14.5750427  29.1237903
  88.6933422  14.5376682  28.4287095  87.2014999  14.6451437  28.6607409
  30.3425936  41.6561222  22.4510121  30.3561263  41.1104441  21.6647005
  30.1583819  41.0444641  23.1638765  91.3829422  46.2622213  15.7875419
  91.9129181  45.5466986  15.4362881  92.0145416  46.8404865  16.2152374
  26.4414267  36.1924648  21.8101239  26.1894183  36.6783857  21.0248828
  27.3175006  35.8597732  21.6150498  57.3977375  63.6504745  19.9069262
  56.8622541  62.9800367  19.4826663  57.0003223  64.4791555  19.6393740
   1.2123160  55.2165031  10.7604671   1.5930419  54.6059895  10.1291537
   0.7004885  54.6629572  11.3502610  79.1223907  65.5712652  34.5283771
  79.0231657  65.7732916  33.5980153  80.0687027  65.5631781  34.6721148
  98.4291935  55.0345182  11.7840695  98.2662868  54.2727184  11.2278748
  98.3099747  54.7094297  12.6764464  78.1422853  37.9714632  45.9754705
  77.4278402  38.4843230  45.5976105  77.7524710  37.1167517  46.1591721
  64.4816113  40.1806450  31.4620948  64.3877077  39.9983931  32.3970795
  65.2947330  40.6813574  31.3961554  19.4887595  59.0129328  19.7504175
  18.7662082  59.6357107  19.8298347  19.2648749  58.3076286  20.3575850
 106.9876385  50.8702469   7.1984565 107.8756237  51.1482954   6.9739503
 107.0639896  49.9292278   7.3561984  98.8278008  57.8458357  23.0168366
  98.8450813  57.3267221  22.2128129  98.1407070  58.4953976  22.8678322
  67.5220585  73.4849691  31.6063046  66.7190742  73.6791992  32.0897555
  67.7966595  72.6279783  31.9324827  90.5575657  76.1159897  29.9862862
  90.5140114  75.2078390  30.2856135  91.3244915  76.1430883  29.4141746
 108.4518814  80.3990650  19.3705797 108.1024361  80.7253551  18.5413313
 107.7846718  79.7910404  19.6889687 105.1186466  40.3999043  37.7456856
 104.9542618  39.5293164  37.3833585 105.4344559  40.2339411  38.6339188
 106.8759823  47.4561453  40.3097677 107.4951077  48.1735229  40.4449749
 106.6625881  47.4964237  39.3775272  41.8873882  88.9507294   3.2936153
  42.5290251  88.7397099   3.9718533  42.3026609  89.6418762   2.7777636
 115.4364204  64.7601414  10.0948954 114.6109295  64.8190451   9.6139210
 115.6294346  63.8231039  10.1255226  48.9645785   7.6847552  73.5890487
  48.5907858   7.5637291  74.4618943  49.4242399   8.5228489  73.6394504
 116.6612053  73.3018112  44.8441505 117.1046543  74.0289164  44.4072294
 116.0733223  73.7221909  45.4717731  60.6979578  43.7004565  94.5493677
  60.3722208  44.5798968  94.7409746  61.4372748  43.8424013  93.9581889
  60.0910187  86.7269039  27.1678972  60.9300852  87.0898914  27.4515104
  59.7507334  87.3688316  26.5446997  17.7913432  69.9254751  34.1584039
  17.9373507  69.1448402  34.6927476  16.8897776  69.8386049  33.8487935
 101.8354797  71.7015266  35.6361008 100.8822346  71.7029142  35.5491304
 102.1362019  71.0874462  34.9662519  64.3833685  50.7644224  27.4545455
  64.1836548  49.8541784  27.6731873  64.3097687  51.2322474  28.2863855
  98.2168198  30.3359318  32.5099587  97.8949928  30.9319687  33.1862736
  97.5319290  29.6720052  32.4301934  99.0707684  36.9345999  14.4458115
  98.7841797  36.5474463  13.6186409  99.2986393  36.1845326  14.9950910
  99.7256660  48.5201454  26.1332202 100.4225540  48.8700390  26.6883349
 100.1523304  47.8382397  25.6143856  91.6480827  82.3551559  24.7657013
  91.5989876  83.3063889  24.6709681  92.1448517  82.2201443  25.5726886
   0.8906321  65.5255747  23.0337024   0.6716590  65.6507301  22.1103287
   1.7538123  65.1120567  23.0212450  50.3100127  19.0505598  90.4903999
  51.2440604  18.8497208  90.5490848  50.2436369  19.6713541  89.7648391
 106.4662838  31.8141007  42.5659561 105.5943871  31.8692374  42.9570913
 106.9905853  32.4446440  43.0596733  51.2322920  39.7615526  76.6731742
  51.3193815  40.0115870  75.7533219  52.1134966  39.4926070  76.9327393
 107.1004486  99.5661163  11.6254795 107.8390694  99.3877316  11.0433674
 106.8590164  98.7086582  11.9757545   1.3436274  78.5251379  22.4590445
   1.7321448  77.8010130  22.9498887   0.9919123  78.1168127  21.6679692
   2.2354178  31.5153813  22.9661632   1.6891627  30.7338333  23.0499363
   2.2226100  31.9110918  23.8376451   4.0493541  67.7137852   0.5267574
   3.8875727  66.8910408   0.0650734   4.9468093  67.6345301   0.8500729
  67.6120394  12.2842978  94.8926404  67.9243296  12.8176592  94.1617271
  67.8673857  12.7752541  95.6736612 107.1782684  39.4737697  14.9093580
 107.7354145  40.0247526  14.3595982 106.3424397  39.4386959  14.4441700
   0.7775836  21.0359001  31.6010809   1.0007052  21.9664025  31.5763378
   0.5930571  20.8095241  30.6895232  39.0020501  96.5510743  91.8507695
  38.8091981  96.2709993  92.7455315  39.5206486  95.8357995  91.4824274
 100.5384731  70.5053520   3.5129380 100.6960011  70.6973791   4.4373524
  99.9721527  71.2166595   3.2136810  76.9064522  62.0162201  25.6600451
  77.8063726  62.2456789  25.8918309  76.9646978  61.1182356  25.3337598
 115.3711319  59.3424892  31.1421967 116.0825634  58.7563515  31.4001417
 114.6528912  58.7566423  30.9031558 111.4542580  91.5277195  18.0901206
 112.3141098  91.3334751  17.7170825 110.8757782  90.8621216  17.7178741
  94.7561359  50.6152010   2.5064886  94.3762970  51.0211611   3.2856897
  94.8729515  51.3395977   1.8918021  95.4082012  63.2450676  16.9574952
  94.4966030  63.4419775  16.7419648  95.5186939  62.3259354  16.7141402
 106.5151024  50.5543423  38.5778713 106.9108868  49.6894550  38.6853600
 107.1030807  51.0139990  37.9785156  20.0126509  54.7343254   8.3040506
  20.1944785  54.5047808   9.2153585  19.5441012  53.9761448   7.9549867
  99.2914581  33.3091378  33.5191655  99.5481396  32.3943734  33.4027505
  98.4737110  33.2672143  34.0149069  83.8584614  53.9629126   6.2163925
  84.7042656  54.1006804   6.6428578  84.0758419  53.8115597   5.2965719
  80.0958538  58.2040501   2.6851693  79.8413992  57.3275566   2.9736945
  80.6396008  58.0532408   1.9119775  66.3708067  54.8915386  22.9510760
  67.2552299  55.1357651  22.6783562  66.4326668  53.9588165  23.1570601
  23.1543975  49.3328571  23.3266044  22.3083167  49.7686195  23.2242107
  23.3495574  48.9815283  22.4578619  92.6970196  86.6949081  41.7433214
  93.3846092  86.4737988  41.1151838  91.8804073  86.5495586  41.2655687
  34.3649708  91.2916105  86.9580975  34.7729813  91.2403219  87.8224644
  34.8414361  91.9901007  86.5094033 116.7789459  75.3153038  18.9704800
 117.3751068  75.5703974  19.6745765 116.0889053  74.8178434  19.4093573
 104.4528008  55.0490999  23.5992002 103.6514091  55.3654242  23.1821394
 104.6270084  55.6829882  24.2949533  33.2215153   4.7391276  33.8804221
  32.4991356   4.7293143  34.5083570  33.0264889   4.0198474  33.2797289
 113.4444714  87.9447746  46.3451099 112.9669571  87.1480942  46.1137867
 112.7755451  88.5305691  46.6995430 115.0732422  33.3991408  22.0091653
 114.9592209  32.4702740  21.8080664 114.1818523  33.7350488  22.1030784
  87.6627064  87.5179482  36.1155748  86.7590523  87.7621078  36.3156509
  88.1900597  88.0247307  36.7330694  89.0886402  51.9261932  51.1546373
  88.4297466  51.4210320  50.6782913  88.6737347  52.1310806  51.9925547
  85.6289864  48.3466291   3.1186196  86.1033440  49.1724348   3.0223626
  84.9080849  48.4100723   2.4921161  57.4064368  10.0916718  93.4893679
  56.4511221  10.0558279  93.4412062  57.5957411  10.9579371  93.8498863
  94.7117138  76.3725233  22.8829956  94.9254036  75.5638027  23.3483362
  95.3207970  76.3922119  22.1448469  78.2057428  53.5783434  29.1363502
  78.8742161  53.4443426  28.4644747  78.6789227  53.4975052  29.9644804
  77.0955515  75.8238935  36.9901371  77.0571327  74.8680496  37.0235515
  77.0434523  76.0978508  37.9058146  79.1003561  46.1002541  12.1292770
  80.0276661  45.9980726  12.3434997  79.0911102  46.7055798  11.3878417
  79.5380545  63.5797596  17.1212149  80.0451279  64.2534828  16.6682148
  79.0471268  63.1415701  16.4260828  95.5082512  90.8841133  74.3770456
  95.4762936  91.0917091  73.4431744  94.7182941  90.3670406  74.5346355
  75.0479126  63.8073921  34.3799829  74.1212368  63.5676527  34.3853927
  75.1942635  64.2172289  35.2325344 111.3826942  21.3517785   4.4019982
 111.8938255  22.1358085   4.2013174 112.0300198  20.7147074   4.7042125
 105.2184486  47.5066280  17.1711349 104.7392654  46.8216085  17.6373553
 105.4147148  48.1605911  17.8419876  79.6965599  78.5592508  18.1530273
  79.5844078  77.6868391  17.7754712  80.5798817  78.5489559  18.5216451
  22.7069794   0.5268626   2.8999940  21.8742501   0.3952651   3.3533001
  23.2261693  -0.2455277   3.1237811  75.7011414  60.0806046   7.5466371
  76.2335205  60.4263783   6.8302286  74.8521042  60.5103111   7.4431086
 114.8289299  94.6111965  28.4831905 114.3317986  94.7915554  27.6853418
 114.8781490  95.4558468  28.9308190  27.7448689 108.9413016  91.4983848
  26.9634282 109.4716256  91.3423875  27.6853406 108.2327645  90.8575567
  22.7407109  92.4747317  83.1326404  22.4585568  91.5774053  83.3099249
  22.7940690  92.8840678  83.9962533  81.0059643  37.9192019  22.5093508
  81.6707230  37.8278446  21.8267250  80.8212852  37.0215011  22.7855062
 103.3184242  55.3971100  17.9439759 102.9094601  56.2273932  18.1881356
 103.6359024  55.5395889  17.0522726 110.7661247  89.0798473  39.5584154
 110.0700092  89.6202564  39.1847658 111.1740017  89.6384907  40.2200651
  79.1669512  43.6230516   5.2606463  78.7754059  42.7627182   5.1098180
  78.4289122  44.1833401   5.5006665  95.1029015  94.9712372  31.9843936
  94.1596317  95.0030613  31.8248010  95.4090214  95.8566856  31.7881823
 109.1619492  49.0123320  19.5385587 109.1048050  49.6197367  20.2761412
 108.2969666  49.0492773  19.1302979  10.7191138  62.7660179  25.3078699
  10.1426940  63.5061026  25.1174617  11.3510089  62.7634144  24.5888877
  88.4175301  61.1399508  17.8710687  88.7021732  60.2554893  17.6409698
  88.3300495  61.1230659  18.8241124  99.3640518  56.8085527  18.2555103
  99.6990490  57.0796776  17.4008131  99.7415066  55.9402466  18.3962452
 103.0832958  45.6165838  31.3276744 102.6639462  44.8157501  31.0129523
 103.6716557  45.8737516  30.6177950  75.1414394  71.6446733   9.6900010
  75.5599546  72.0128727  10.4681444  74.2976141  71.3190365  10.0032985
  87.0761776  69.6236086  16.6676247  87.8959084  69.2538404  16.3396597
  86.8311882  69.0538359  17.3967159  85.8674049  81.1352730   9.7493309
  85.5653000  80.2343750   9.6338022  86.8215084  81.0761356   9.6999955
 108.1099129  64.8563814  48.5381508 108.1771088  65.8097649  48.5908461
 107.2173023  64.6629906  48.8246489  53.6774939   0.6814001  84.8957899
  53.1625670   0.5625914  85.6938913  54.0431231   1.5624092  84.9755826
  78.8988304  38.5052228  14.9724674  79.7634411  38.5262775  14.5623064
  78.4708881  39.3064046  14.6704578   3.0781417  56.2464666  34.6717906
   3.9608054  56.5901184  34.8098016   3.0517154  55.4402590  35.1871204
  75.5054188  54.8825741  31.5429163  74.8666191  54.2803907  31.1614108
  75.9660339  55.2519703  30.7895184  83.6602688  92.6133347  16.4809036
  83.0097580  92.8777027  15.8303761  84.3882751  92.2672653  15.9647000
 113.8316822  42.2105742  23.7045431 114.3735790  42.0257425  24.4716311
 113.6744499  41.3527441  23.3100438  76.6005135  41.1290836  14.4281840
  76.3014412  40.8011341  13.5801053  76.8783045  42.0281553  14.2528844
  71.6099644  71.9520283  11.7313802  72.3478985  71.3492060  11.6403031
  70.9780502  71.4772320  12.2712731 107.0304298  57.8619003  23.5760522
 106.7137051  58.3764887  24.3184209 106.2562370  57.7289391  23.0290842
  88.8375473  56.3259506  21.4486551  88.8947487  56.3862038  20.4950690
  89.5812130  56.8382692  21.7660499 113.1210423  96.9168091  24.8395276
 113.6494827  96.4860535  25.5114174 113.4015083  96.5124798  24.0184999
  94.9333477  78.0950117   6.2579656  95.6112957  78.6380053   5.8557516
  94.1624832  78.2263374   5.7059288  35.8310478  24.3213461  89.8756471
  35.7830685  23.6661957  89.1794351  35.1346510  24.9440192  89.6669873
 104.0132713  85.6767845  44.4356108 103.7217712  85.2479362  45.2401972
 104.6505356  85.0703335  44.0583134 105.3361034  59.1645384  36.7786050
 105.3604031  59.8787117  37.4154687 104.5798206  59.3619776  36.2260747
 102.7043056  73.0827475  16.3183630 102.3488522  72.7002048  17.1205783
 102.9576683  73.9712620  16.5685320 111.1078835  74.3684578   6.9473469
 110.3927898  74.5237970   7.5643903 110.7877064  74.7194767   6.1163807
  92.5356293  47.8507233  29.0429378  91.6866302  48.0401468  29.4423652
  93.1150913  47.6745796  29.7841740  97.6508236  87.7736282  31.1890388
  97.0493984  88.4545326  31.4904952  98.0743504  87.4576664  31.9871759
 103.3350182  73.3551836  32.2686744 103.3472824  73.7258577  33.1511045
 102.4169540  73.1317043  32.1155047 111.0894585  99.0555000  29.4155693
 110.2350235  99.4009686  29.6740699 111.5347004  99.7982407  29.0077257
  88.2176590  60.9726095  20.5787063  88.3596516  61.6590977  21.2304783
  88.0306339  60.1879978  21.0941052  10.0583415  67.6365232  37.8725839
   9.3523459  66.9999409  37.9846287  10.3535418  67.5105524  36.9707966
  87.1672249  64.4634867  63.0778456  86.3147640  64.8546171  62.8865957
  86.9986057  63.8661432  63.8065290 114.1018772  64.6306181   3.3538067
 114.7585011  64.7992754   2.6780576 114.3362904  65.2225447   4.0685850
 111.6653538  36.0086274  57.8991032 112.3389626  36.2730861  57.2725677
 112.1552277  35.6920862  58.6580896  11.9407229  46.2023067  20.0168896
  12.0473819  45.2801991  19.7832811  12.5800471  46.3482285  20.7141685
  50.5255240  15.3731440  94.7474657  50.8436888  16.0079287  94.1055557
  50.0546187  14.7220324  94.2273311   7.5057463  83.1981564  40.6438684
   8.1112532  82.7383232  41.2253714   7.6669936  82.8173733  39.7805977
 105.3575134  91.1968422  36.8163991 104.7827339  90.4745293  37.0696259
 104.8062038  91.7639256  36.2772250 112.0516872  68.7497139   5.9954566
 112.9951954  68.8506842   6.1212772 111.8108654  69.4642353   5.4057997
  96.2890894 107.2837203  86.1032358  96.6926176 107.6528400  86.8888202
  95.3823883 107.5890010  86.1337009  98.6349106  96.9256878   5.0326598
  99.3202209  97.2578335   4.4527826  97.8202629  97.0829964   4.5553547
 111.2577438  22.5309539  32.0799637 110.3263950  22.6396084  31.8875885
 111.4398384  23.1818557  32.7577519 109.4126129  55.6117392  28.5759878
 109.8506737  55.9336805  29.3638229 108.4825134  55.6117201  28.8021564
 112.1009731  45.9342289  32.2503233 112.8874207  45.3909683  32.1993685
 111.3925648  45.3144169  32.4241495  16.0168986  98.6773109  34.7655106
  15.6237845  98.0924511  35.4133010  15.2777056  99.1674995  34.4055820
  93.0845833  69.2088318  48.5067272  93.7777615  69.5331478  47.9317904
  93.1600571  69.7427082  49.2976236  17.3440127  61.6076517  22.6390386
  18.0623584  62.2276068  22.5130773  16.6048102  61.9999695  22.1743870
  85.2610493  69.9558640  35.0100160  85.6472969  69.0803099  35.0312948
  84.5715237  69.9296522  35.6734157  83.0191135  64.4805813  60.7236147
  83.2353115  63.7095642  60.1991844  83.7274647  65.0987864  60.5439186
  70.3363085  96.4756298  22.0261312  71.1214447  96.1587811  21.5795875
  69.6529865  96.4499187  21.3563251 102.2499275  64.1173983  43.3641148
 102.6117992  64.4783115  44.1734505 101.3185787  64.3354130  43.4000397
  61.4330691  19.1396712  91.5919077  62.2421091  19.6508406  91.6115326
  61.7258852  18.2287978  91.5636739  74.8816633  75.1514626   9.4964367
  75.3216934  74.3388462   9.2469043  74.7109985  75.5961323   8.6661518
 110.1651669  78.6877775  37.3934650 110.2500248  77.7384520  37.4818206
 109.2899036  78.8170433  37.0281816  99.1080284  55.7630634  41.8761396
  98.6255836  55.3635883  41.1523294  99.1169167  56.6979742  41.6709757
  69.5983696  58.3040524  26.6889668  69.6880436  58.6646795  25.8068466
  69.4031286  59.0626192  27.2391367  87.9060459  90.3015804  31.2222648
  87.7246475  91.1968040  30.9360886  88.2370853  90.3980064  32.1152067
 107.3433685  52.3145866  51.8639469 108.1068707  52.2276831  51.2932158
 107.5542164  53.0530691  52.4352741 104.3666363  86.8635654  58.8402700
 103.7851524  87.5230026  59.2187548 105.1507950  87.3515987  58.5889769
  51.8075514  30.1529336  60.3841972  52.3224449  30.2285767  61.1875629
  52.4543810  29.9775720  59.7007608 112.1778107  84.1168976   3.9619422
 112.9492569  84.1324043   3.3954951 111.9097805  85.0335121   4.0267327
  77.4524498  86.7862225   5.8610153  77.6128483  86.8411541   6.8030798
  77.5028706  87.6922035   5.5562407  77.8972340  46.1114597  32.3533869
  77.4546576  46.3948965  31.5533710  78.6601639  45.6226873  32.0447302
   1.4688735  69.3086386  42.8474712   1.3206630  68.9235687  43.7111759
   0.8020549  69.9911928  42.7719212  73.5640812  24.2946029  53.0544615
  73.6375475  24.9215579  52.3349047  72.7564573  24.5410037  53.5053110
  64.4936514  70.5545330  15.3925693  63.9902115  71.3172007  15.6773710
  64.2752075  70.4557848  14.4658744  97.0125771  17.4633312  24.0086365
  97.2119522  17.6230109  24.9311233  96.2166214  17.9690814  23.8445973
 103.5224056  78.1799364   8.2565016 102.9844856  78.8523054   8.6745751
 104.4031334  78.5544300   8.2390487  36.0417240  35.5144404  88.4720567
  36.6003769  34.7390650  88.4178623  36.4141815  36.0283945  89.1885450
  54.9045199  21.0793637  93.1533179  54.5203417  20.2698658  93.4899962
  55.3740233  20.8112429  92.3634404  74.1430521  70.1480341  46.7344475
  73.4715652  70.8099985  46.8991995  74.4120455  70.3000355  45.8284855
  44.7679537  18.1327151  89.4419309  44.1001528  18.0090760  88.7674019
  44.5432013  17.4965666  90.1209280  86.2614632  73.7699032  58.9680433
  87.1851158  74.0092802  58.8919020  86.1287212  73.6221933  59.9044180
  24.6841752 104.4911664  94.2524800  25.4130017 104.5903056  93.6399242
  24.0876900 103.8812917  93.8183340  65.9044600  70.3530121  10.3268826
  66.5305996  69.8283958   9.8279220  66.4448738  70.9882641  10.7966030
   2.7218489  55.9358406  25.9617376   2.7181773  55.9933376  26.9172025
   1.9259124  56.3935709  25.6911874  86.4553547  48.3358622  28.3552074
  86.9405174  48.8480663  29.0021110  87.1209240  47.7954388  27.9295373
  27.2671544  14.3670039  29.3445182  27.4593674  14.3147426  28.4082723
  27.9569088  13.8493781  29.7598863 107.2361374  80.2539253  16.5949166
 107.2922421  81.1300087  16.2133920 108.1052399  79.8769283  16.4579380
 100.9737396  82.6047802  28.6428714 101.1658001  83.1807041  29.3829107
 100.1283550  82.2111607  28.8587952  93.0684662  73.6480856  28.6316490
  93.6084366  73.0412865  28.1252289  92.1831989  73.5236692  28.2895160
  71.4753723  53.7338448  23.7030458  70.9448910  54.5145273  23.8622713
  71.7234898  53.7968969  22.7807164  10.7798325  93.1787222  91.2747988
  10.5641018  94.0985292  91.4285770  10.8281170  92.7944534  92.1501490
  35.9401261 105.4433911  89.0135130  36.3627183 105.9495633  89.7073671
  35.1591145 105.0756400  89.4270542  87.3772526  81.2867641  44.2956591
  87.4654102  81.6635513  45.1711559  86.6719246  80.6452942  44.3808889
 100.4488277  90.7733250  18.9831483 100.1278019  90.9628105  19.8647773
 101.2157631  90.2176094  19.1218066  21.4824234   3.2107883  21.5046740
  21.5452897   3.2387786  22.4593973  22.3423707   2.9043632  21.2168908
  70.8609343  74.7101831  12.6628888  71.6456175  74.9359226  13.1624365
  71.0204983  73.8174105  12.3567450 116.3253975  52.0053053  32.9750180
 116.9596672  51.3632202  33.2938576 116.1919594  52.5978994  33.7147903
 107.3096561 105.2012539  13.2948911 108.1895924 105.5558491  13.1675565
 107.1250534 105.3460598  14.2228913 105.5708408  51.4638090  11.6623807
 106.3694954  51.5188742  12.1871257 104.8638058  51.6401243  12.2830665
  80.8608359   9.2832421  88.2608321  81.6048544   8.6817501  88.2311496
  80.1721972   8.7905548  88.7072220  90.4700851  58.0305481  22.4917364
  91.3659382  58.3095980  22.3025227  90.2414513  58.4906149  23.2993865
  63.6818981  53.0520916  11.8557250  63.2012939  52.5525856  11.1956167
  64.1455507  53.7245178  11.3566303  23.9044814  82.8915691  29.1328835
  24.1616969  83.5970306  29.7265196  23.7884860  82.1303749  29.7015262
 101.5801716  55.6525230  31.8053007 101.0844994  55.0361967  32.3444557
 100.9627628  56.3606215  31.6219163  87.2647190  46.0448837  43.4964943
  86.8156719  46.7750692  43.0705547  88.1674385  46.3461018  43.5994291
 116.0952265  93.0751508  83.5163680 115.3537637  93.6694806  83.6314323
 115.8632833  92.5480788  82.7517548  39.3842381  25.7278918  89.3332878
  39.7767227  26.5148352  88.9552542  40.0979489  25.0903700  89.3536338
 116.1498451  50.9582758  28.9245701 116.2405300  50.3214025  28.2157636
 115.2056503  51.0257006  29.0666270 105.7592297  90.3606224  33.4381533
 105.8305836  90.7969666  32.5891876 106.2902260  90.8958340  34.0279150
  92.9493922  12.5754689  85.3692499  92.2563856  13.2356594  85.3584018
  92.4857825  11.7404984  85.3049829  98.6533928  52.0242882   2.2800061
  98.0079079  52.7306747   2.3045491  99.1619015  52.1919680   1.4865738
  14.9394374  15.2178907  20.5011725  14.7795539  15.1344180  19.5611167
  15.6502490  15.8555222  20.5675411 112.4229431  34.3214488  22.7587938
 111.6549206  34.5879507  23.2641220 112.0873547  33.6784267  22.1341872
 107.9580879  63.6830330  41.1675262 108.1928158  62.9494190  41.7358065
 107.0681953  63.9158916  41.4322758 106.6011620  46.7359734  27.4465179
 107.2652626  46.2873459  26.9231343 105.9245968  46.0748386  27.5927830
  93.5176277  64.1570807  52.0302248  92.8433323  64.7729540  51.7434311
  94.0876675  64.6740246  52.5994873  69.6949118   4.4315480  93.2444477
  69.6327799   5.3708552  93.0710390  70.5771940   4.3106268  93.5954282
 105.6391811  38.2165980  58.7162161 106.1342144  38.8131452  58.1546926
 105.7225609  37.3630047  58.2911777  85.1871014  53.9235449  19.6116936
  84.9496269  54.5037031  20.3350568  84.5253754  54.0934372  18.9412582
 108.3777237  61.6096163  34.3427277 108.3218288  60.7364988  34.7310257
 108.3996105  61.4510918  33.3990002  17.8791957  51.9821739   2.0391616
  17.3166041  52.4270487   2.6730454  17.6563411  52.3824978   1.1987392
  82.2623253  90.0988007  13.6479318  81.6763210  89.7804165  12.9613018
  82.7416801  89.3209934  13.9333725  77.5284910  68.5298443   0.6062351
  77.4803591  67.7396965   0.0681071  77.9777956  69.1691446   0.0533793
  87.5010967 109.4440365  59.6373367  87.2251701 109.7754097  60.4919052
  88.3825874 109.7971153  59.5167685  88.4877014  46.5127945  32.5445390
  89.4119644  46.3455677  32.3601365  88.0314064  45.7474613  32.1948361
  71.7555731   2.7660416  70.2999118  72.0807665   2.8171204  69.4010952
  72.2352141   2.0336340  70.6868937  93.5216808  36.8045592  37.9849744
  93.0321217  35.9829044  37.9469538  94.4215298  36.5572882  37.7719831
  71.7146444  63.1264877  54.7573519  72.6406479  63.0851603  54.5185041
  71.6073513  63.9921713  55.1514530 105.8546829  50.7035589  35.4370189
 106.3113022  51.0054302  34.6517801 106.5367222  50.2910566  35.9670162
 101.4392757  76.3582182  62.1540976 101.6307926  77.1917915  61.7243195
 100.5182457  76.1915016  61.9537544  77.9798317  44.7724581  14.5865571
  78.3544636  44.8553514  13.7096226  77.1326113  45.2140379  14.5277953
 112.1122265  41.1678028  66.5036106 112.4644279  41.1817980  65.6136751
 112.8506470  41.4212418  67.0574522 116.8683434  69.5286274  26.4334750
 116.0723877  69.0586233  26.1848927 117.5296593  69.2254925  25.8113813
 106.1797714  76.7113161  37.6264715 105.5095196  76.5961885  38.3000708
 105.7472610  76.4549828  36.8119431 109.5783424  58.1501436  37.9528093
 110.3247261  57.8085613  38.4452271 109.0060234  58.5309696  38.6188865
  94.4662666  58.8753462  30.2676988  94.3000698  59.7421646  30.6381512
  93.6370659  58.4082127  30.3698611 104.7087288  74.1089296  36.9711852
 103.9321423  74.2854500  37.5022078 105.1404572  73.3781815  37.4137306
  82.9820633  66.1080599  21.9591641  83.8754177  66.3842344  22.1638203
  82.4259853  66.7115974  22.4518609  88.3357239  53.3696890   4.9312678
  89.0181732  53.8685036   4.4821808  88.8001251  52.8959513   5.6212950
  50.1137560  27.1157454  95.7573442  51.0466975  27.2964381  95.6424346
  50.0604933  26.1621187  95.8205461  72.2003222  45.4484940  22.6953530
  72.5681591  44.6442795  23.0616450  71.8808270  45.9338760  23.4559846
  97.7066040  78.3848667  39.1899014  97.0063019  78.1266880  38.5906053
  97.6140594  77.7922726  39.9358869  94.7080898  83.3222866   9.8476475
  94.2345810  82.7305508  10.4323339  94.1646481  83.3672905   9.0609652
  85.7220936  17.4268055  30.1960897  86.3269997  17.4934161  30.9349298
  85.2985477  16.5759063  30.3092718  83.6457157  65.0569344  12.0069301
  84.0086555  65.6385088  12.6749659  84.4080925  64.7521019  11.5149128
  94.5093918  65.5992079   6.7965055  93.6403370  65.2806568   6.5525556
  94.6594334  66.3497496   6.2216985  61.8281126  52.1561766  16.2803996
  62.5410557  52.4534988  15.7151175  61.9415617  52.6532602  17.0905042
  26.7109446  97.2326088   7.1058482  26.8826728  96.7960548   6.2714821
  26.4438205  96.5269470   7.6948500  16.2230067  84.2319584  21.7875576
  16.4005141  83.3123016  21.9849157  17.0367102  84.5553112  21.4008379
  90.6346893  54.3152952  50.4535913  89.9838352  53.6989117  50.7892990
  90.7351112  54.9617624  51.1523247 100.2583599  46.2869740  44.7090816
 101.1866856  46.1163998  44.5498800  99.9273014  45.4736757  45.0901127
 108.2245922  55.4250765  37.7116179 107.7235985  55.3418446  38.5229850
 108.5645294  56.3196754  37.7307296  91.4215851  68.1500721  17.6697230
  92.3449230  68.0818939  17.4267554  91.4031124  68.8171768  18.3559167
 108.0304909  57.2923613  54.7950935 108.3597088  56.9024181  55.6049061
 107.3611546  57.9131079  55.0830030  33.0137210  58.3272743  13.6093712
  33.2224135  57.9870510  14.4793904  32.1706919  58.7669277  13.7199974
 113.6825466  88.9241314  64.9794626 113.7207031  87.9918098  64.7660542
 114.5857048  89.2278481  64.8884153 102.0835972  57.9180193  26.1544466
 101.7162609  58.7718487  26.3830590 101.3877964  57.2944641  26.3624787
   1.0650210  83.5415745  18.7544477   1.4391284  83.1416798  19.5395303
   0.2503066  83.9438248  19.0555561 116.5124989  81.9241905  22.3213387
 117.2343445  82.1953869  21.7542195 116.7785263  82.2030163  23.1975341
 107.4580383  76.8287945  42.0684147 108.1437969  77.4818277  41.9286776
 107.4967098  76.2708950  41.2915707 115.2825260  70.1722097  42.2810411
 115.0730896  71.0987902  42.1635151 115.3786373  70.0665617  43.2275248
 111.9533634  93.2246113   9.0139377 111.3840485  93.8915539   8.6301482
 112.0833588  92.5875759   8.3114314 102.4388218 109.6845722  29.9569654
 101.7494678 110.0203514  30.5299139 103.2197475 110.1784039  30.2069879
   7.0299010  57.1516800  78.5345125   7.1045356  56.5225267  77.8170013
   6.1008506  57.3810863  78.5562372  50.9546410   8.2075267  34.9207735
  50.1825940   8.6592918  34.5800567  51.5881764   8.9061599  35.0844145
  69.2644548  40.6566000  27.5545001  69.6196556  40.2060461  26.7882991
  69.8663473  40.4328156  28.2643414 107.1398163  72.2871780  17.1402359
 106.6405487  72.1192217  16.3410187 106.8766499  73.1681728  17.4063563
  94.9532795  74.4829321  17.0744169  94.6995735  73.8078308  17.7037859
  94.2467499  75.1273394  17.1165586  67.2333574 102.5204372  36.2446690
  66.4475441 102.7828789  35.7652402  66.9109583 102.2548676  37.1059227
 103.7468719  86.3664532  15.9026539 103.4769821  86.2648106  14.9899352
 103.9946651  87.2879601  15.9779370 113.4883118  64.2626762   8.1891620
 113.3052254  64.2645454   7.2496378 113.0131531  63.5023022   8.5242611
  94.8319340  95.5385017  54.4422245  95.3685951  95.1255798  55.1187801
  94.1276550  94.9111176  54.2790937   1.6005646  16.8166022  45.8818674
   1.8797146  17.6391749  46.2839556   1.2392460  17.0749717  45.0339699
 101.0796833  76.0010099  26.9038486 101.3317299  76.2108421  26.0045862
 101.7181492  75.3455305  27.1847987  77.3859900   7.4914597  76.1713675
  77.0101851   7.4266241  77.0493200  76.8950194   6.8539046  75.6529978
   3.5636668  67.6283407  41.9845533   3.3550887  68.3616829  41.4058208
   3.9340071  68.0380344  42.7663660  61.0933113  78.1768036  25.2382684
  61.8477488  77.8185129  24.7706342  60.6879854  78.7783575  24.6137094
  83.7628746  59.5416498  40.4962111  83.7491798  60.4435396  40.8165789
  83.4215736  59.0233850  41.2250090  96.1477661  44.6074533  30.6728673
  95.4094315  44.0332365  30.4694724  96.8813038  44.0108013  30.8217216
 117.0477390  74.6425676   2.9565468 117.0833206  74.1414642   3.7713230
 116.1269951  74.8882198   2.8664574 117.8795433  68.6746407  14.4547808
 117.3942184  67.8690195  14.2768061 118.7974358  68.4340477  14.3290186
 105.3459835  74.2431927  26.1191678 105.8199692  74.5634079  26.8866467
 105.4610538  73.2933044  26.1457038  96.2571526  69.2816353  17.2153664
  95.7158184  69.7292089  17.8656495  96.7772865  68.6595345  17.7239752
  60.7543373  94.6168518  10.1965654  60.9521961  93.6847496  10.1056767
  60.2103996  94.6707344  10.9823537  97.3976040  57.6360273  35.6775212
  96.9097710  57.2772741  36.4188385  96.7225552  57.9524183  35.0771546
  10.9198813  59.0629816  17.9616952  11.0178141  58.2119608  17.5346053
   9.9848132  59.1272640  18.1559837  10.0995784  70.5304766   2.5245580
   9.8457961  70.9738827   1.7151034   9.4098525  70.7573223   3.1482977
 106.5089607  59.1322184   1.0475297 107.1627712  59.6390343   0.5659692
 106.4242554  59.5859241   1.8861040  10.9974150  86.5996742  16.5063465
  11.7544036  86.8065739  17.0544267  11.3579612  86.0847950  15.7844484
  99.0954971  68.7361097  28.8402319  99.6277905  68.5230732  28.0737400
  99.7204113  68.7673998  29.5646167  49.9498974   4.0743117  30.3720164
  49.1412007   3.5645919  30.3226709  49.6616494   4.9859004  30.3256583
 101.8814850  87.7579212  13.3149958 101.4549637  88.1326199  12.5443399
 102.6768017  87.3491096  12.9735482  85.3945160  57.6979351  24.7799110
  85.3794956  58.6439419  24.9250817  84.7077560  57.3567724  25.3527999
  26.8613278 108.3150666  96.2919310  26.2039982 108.5450881  95.6352398
  26.3522278 108.0320304  97.0514966  21.2631564  83.5904503  29.2004991
  21.8003039  82.8212547  29.0106511  20.4751830  83.2364845  29.6128345
  37.6370387  61.3127613  28.2654238  38.5416560  61.0005999  28.2441282
  37.6624636  62.0820808  28.8343954  23.6654143  81.8873692  59.0876913
  22.7866225  82.0968914  59.4039822  23.8123946  82.4988937  58.3661175
  32.9407250   0.0965457  11.1359000  33.4303986   0.5874305  11.7958069
  33.4546410   0.1944308  10.3343189 105.5010128 109.6768570  22.1997356
 105.9005833 110.4750156  22.5454569 106.0391426 109.4485474  21.4417601
  23.9657264  62.3330402  40.7227325  23.8701396  63.1528759  40.2380037
  24.8594146  62.3597097  41.0645676  86.4230442  64.8751688  81.7018032
  86.2013817  63.9977217  81.3900566  87.3376083  64.9961185  81.4464951
   5.7651953  74.4134712  10.9341383   6.0111670  73.4902906  10.9930146
   6.3014846  74.8470259  11.5979612  74.8821211 107.3405075  40.5374670
  74.0469742 106.8823338  40.6314707  75.1435137 107.1784592  39.6310210
 113.0255795 106.6213799  30.4853678 113.3630753 106.7015171  29.5932317
 112.6891804 105.7265949  30.5347085  78.9726591  49.1824579  21.2439489
  78.4275150  49.5872307  20.5692577  79.8674870  49.2770624  20.9174919
  92.9316521  58.3449316  48.8744307  93.1899643  59.0737295  49.4386673
  93.2487297  57.5651693  49.3301296 103.5231972  69.9159765  41.0061264
 103.2445240  69.0342093  40.7590246 103.5668278  70.3942251  40.1781082
  60.5174845  12.0547961  90.2987453  61.0364645  12.1051215  89.4960275
  60.6938666  11.1794327  90.6435099  96.3365000  12.5511215  95.7221557
  97.0945948  12.9506586  95.2956670  96.2769621  12.9939221  96.5686860
 112.1605206 107.5655079  35.4315639 111.3803482 107.5754070  34.8770642
 112.3495674 108.4894180  35.5955386   4.8642020  68.3385754  13.1488276
   4.2826514  67.5786972  13.1736028   4.9442534  68.6088419  14.0635848
   3.0505233  52.8703785   0.2004507   3.5624747  52.3784971   0.8424714
   3.1535582  53.7853193   0.4621693  21.7277466   0.5616336  47.2029543
  21.5060650   1.4925151  47.1797752  22.6837098   0.5419021  47.1586466
  83.6171532  88.8220787  43.3687401  84.2489147  88.6621284  42.6676464
  83.6939430  89.7585678  43.5512829  56.0406542  97.3205853  28.2448125
  56.8388987  97.0983219  28.7240219  55.3347826  97.1751499  28.8747549
 113.7850285 100.3570175  48.1285238 113.3197117 101.1925411  48.0883598
 114.6882534 100.5956745  48.3369780 110.2165508  50.1026535  24.4189882
 110.4813576  49.3035364  24.8745394 109.2869282  50.1992893  24.6256185
 111.6530323 104.5162964  31.4046144 110.7597637 104.2064095  31.2553668
 111.7126369 104.6273041  32.3534846  32.6432930   9.4022231  24.9619913
  33.1663071  10.1409202  25.2734542  32.7689396   9.4030051  24.0130734
  19.8004679  56.9745922  21.3181806  20.3938155  56.7091513  20.6155396
  19.5357947  56.1527586  21.7314315  90.2396393  83.6950779  45.3978777
  91.1766529  83.8417530  45.5272245  89.9329567  84.4845676  44.9519205
   6.5090899  97.6138210   6.1603177   7.0660929  96.9276237   5.7927424
   6.4855628  98.2909966   5.4842126  94.9516106  50.7327032  47.1668720
  94.3539143  51.0306454  46.4811420  94.3807983  50.3451300  47.8303385
  96.9658566  68.0695343  23.4250140  96.2710667  68.7186289  23.3146334
  97.5934410  68.2700205  22.7306294 106.8968296  67.0020819  21.1053348
 107.1888638  66.2544537  21.6268682 107.2798729  67.7629232  21.5419436
  70.8949804  65.1938868  51.3565826  70.9958458  66.1255932  51.5514803
  71.7269087  64.8021507  51.6224194  21.6348891  65.4777718  22.5661016
  21.0874991  65.1418066  21.8563628  21.5560012  66.4293861  22.4995017
 110.9546089  61.9714451  29.5460367 110.8921528  62.0526600  28.5943341
 110.8565903  61.0340977  29.7133756 104.0558720  68.0393934   6.1042899
 104.7526169  67.4730635   5.7725513 103.9464855  68.7065554   5.4266787
   3.1936221  84.6708393  17.4510300   3.5987906  85.3468323  17.9942632
   2.5280337  84.2772388  18.0152166 110.5208302  56.5768909  31.0304689
 110.8948994  55.7996416  31.4454174 109.6695518  56.6881466  31.4537668
  86.9289303  59.0942812  29.4919062  86.5546799  59.9339342  29.7586393
  86.3200283  58.7588739  28.8338971  30.8769278  99.6177769  26.4087057
  30.9386210 100.5716610  26.3584423  30.1220183  99.4560719  26.9745660
   3.8381533  56.8217325  57.1203375   4.2501025  57.6835537  57.1819544
   3.1123214  56.8581200  57.7432919 109.4614220  80.0314522  44.0468550
 108.8502884  80.2935314  43.3583307 108.9423656  79.4770861  44.6295166
   6.1653857  72.6922131   7.1331596   5.5498366  72.1953249   6.5942371
   5.8779197  73.6013126   7.0487100  59.2691630  22.4853466  66.5128305
  58.5858744  22.6371096  65.8599070  59.0248984  23.0452870  67.2497395
  97.4784470  59.9995804  44.9998569  98.4347248  60.0075388  45.0411510
  97.2421455  59.0772057  45.0979376 113.3979511  57.1651411  30.6165600
 113.8433838  56.8733883  31.4119887 112.5716591  56.6819668  30.6138396
  13.9203124  45.5357742  10.3522909  13.9968924  44.6755934   9.9394286
  14.7970538  45.9136057  10.2830172  96.9415855  70.0225830  61.9613361
  96.6835213  69.7819233  61.0715532  97.0486069  69.1861057  62.4142027
  90.7661819  92.6563263  58.8626337  91.3513947  93.1825829  59.4074440
  89.9654293  93.1768990  58.7991238   7.7943091  91.8815231  42.2494459
   7.8330569  92.7922821  42.5414133   7.2928290  91.9123173  41.4347076
   0.8344512  76.5191889  31.7617369   0.2610545  77.2767115  31.6450858
   0.9553580  76.1719704  30.8779645 111.9651794  98.8833904  59.7927427
 112.2430420  98.8075447  58.8799047 111.1658669  99.4087887  59.7569370
  76.5854216  93.7794113   1.0585582  76.7878151  92.8439903   1.0425960
  75.6511545  93.8258171   0.8555226  97.9281616  64.8558235  16.9310939
  97.3578739  64.0980864  16.8013465  98.8138962  64.4929838  16.9239414
  82.4794579  93.3176041  55.1338577  82.7746010  93.4825230  54.2383575
  83.2647991  93.0217552  55.5942249   1.7779403  80.8125687  58.7582731
   1.3111739  79.9804688  58.8356113   2.2381644  80.7521248  57.9211521
  90.3557509  26.4923285  95.7206070  90.6887072  26.7712305  96.5735917
  89.7684115  27.1981619  95.4503096  99.4334221  52.1955109  16.4692628
 100.1931667  51.6915941  16.7609477  99.7853184  53.0613279  16.2624812
  22.3514991  89.2760563  42.6750088  23.2831530  89.0975475  42.8030729
  22.3263221  89.9234962  41.9704390 102.8828812  44.4078588  36.9897604
 102.6036358  43.4928656  36.9574118 103.6718941  44.3984604  37.5316048
  77.7626467  75.5473614  40.6756926  77.3906517  76.0962677  39.9853683
  77.0097160  75.2863026  41.2059546  77.3160458  67.7589035  30.5721760
  76.5932941  67.1348810  30.5054045  76.8899155  68.6055851  30.7054877
 105.6508923  91.8163586  42.6342249 105.6508350  91.6814327  41.6865826
 104.9417782  91.2594223  42.9554844 106.8861485  58.7552691  26.1605597
 106.6608620  59.5679808  26.6133070 106.0443401  58.3280611  26.0021710
  27.1373896  51.7929792  19.4262445  28.0388884  52.0763397  19.2737758
  27.0762305  50.9434557  18.9894354  79.3213415  65.3618670   7.4900901
  79.4116163  64.6999073   6.8046016  80.2011490  65.7256937   7.5890666
  94.8967075  69.6139956  46.4067793  95.0218391  70.5578518  46.3082123
  94.0541267  69.4390297  45.9876537  13.8977294  71.2428331  57.4169540
  13.1638198  71.1563730  56.8085670  14.6597438  70.9522009  56.9158602
  90.5163956  66.0082197  44.4907570  90.0968456  65.1846600  44.7396946
  90.4330540  66.5633965  45.2660370   2.2401957  76.9518852  28.9361167
   2.7849345  76.2170458  29.2180800   2.4921756  77.1009827  28.0247951
  95.3919506  95.1035404  35.6823921  95.7950020  95.0249958  36.5470338
  96.1254692  95.2701950  35.0904417  29.1266190  31.2164168  10.8433771
  29.7538125  31.0105567  11.5365481  29.4469582  32.0357280  10.4660976
   5.9562259 106.2515736  68.6603165   5.6900649 105.6334972  69.3410301
   6.4769130 106.9080067  69.1231441 106.5992165  87.3028278  19.1582167
 107.2161007  86.5709591  19.1653931 107.1069050  88.0406952  18.8205040
 109.1196156  93.2974625  71.9875097 109.9086571  92.9792786  72.4261427
 108.6270618  93.7449837  72.6755142  80.3829861  14.3014979  37.4504209
  80.1616859  14.1406035  36.5331578  79.8427486  13.6809146  37.9395533
  93.9228725  18.0340183  20.9480548  93.1482983  17.6648414  21.3722873
  93.6309338  18.2497692  20.0623608  27.7875298  77.8485985   3.4852532
  27.7686184  77.6293750   2.5536871  26.8657559  77.9182501   3.7336767
  80.1456738  26.5580750  42.4561405  80.3759766  27.3758101  42.8971624
  79.3441725  26.7630982  41.9746923   0.9493416  86.5866871  32.7635670
   0.5425471  87.4441357  32.8882003   1.8586272  86.7111750  33.0354667
  26.1454999  92.4151152  85.5403843  25.7489335  91.5440124  85.5522993
  26.1798131  92.6499980  84.6130851  31.6485631  81.3423603  94.4547541
  31.9960343  81.5221971  93.5811642  30.9075104  81.9413512  94.5457476
  34.3681782 104.5931400  24.5264244  33.8294094 105.2294124  24.0561938
  34.9206656 105.1243926  25.0997972  11.0322350 107.9035677  17.1872616
  10.1865500 107.8291265  16.7450941  11.6763228 107.8661851  16.4801693
  14.0448319  77.0938152  85.8437314  14.4105469  76.2156933  85.9504548
  14.0108811  77.2256034  84.8962548  71.1183643  20.4810548  20.8018899
  71.7894602  20.9120727  20.2726579  71.5695047  20.2402353  21.6110301
  55.7071799 105.9471424  19.0230620  55.2313917 106.0257037  19.8499107
  56.6139525 106.1557270  19.2477572  82.7987797  69.5704549  87.9002502
  81.8948490  69.8777955  87.8317895  83.0992777  69.5063787  86.9937041
  85.9549171  69.2232853  75.8314136  85.8224804  68.5428184  76.4914563
  85.7251150  70.0381272  76.2780168  34.7787970 106.3732232  34.8903537
  34.4213312 106.1570651  35.7515883  34.2140501 105.9082312  34.2730403
  88.8961601  13.5594380  15.3708661  88.3360577  13.6214185  16.1446118
  89.5488262  12.8978157  15.6000185  76.4704561   7.9381776  38.9175439
  77.2923183   7.6848119  39.3377566  76.2608910   8.7918073  39.2965293
  41.2349623  99.5086355   3.4506205  42.0498579  99.3607576   3.9305267
  41.0187453  98.6543805   3.0768132  69.5049334  24.1088033  27.2428632
  69.7719717  23.3419967  27.7497458  69.8168802  24.8549223  27.7549481
  29.5723360 102.7697302  17.0625329  29.1626423 102.0982445  16.5171075
  28.9464634 103.4939636  17.0613694  29.7392845  13.9944828   3.1818625
  29.4455004  13.4360230   2.4621090  29.7419095  13.4184062   3.9462978
 105.7740974  46.9904375  21.0837984 105.4298782  46.3161707  20.4980397
 105.0343227  47.5795746  21.2317562  69.4587231  20.3125310  10.8223081
  69.7795677  20.6732249  11.6488624  69.4097328  19.3689740  10.9757054
  28.8972794  85.3864067  78.0292752  29.4476258  85.1703518  78.7820497
  29.4116913  86.0213941  77.5308826  18.6731261  81.6972370  21.8911171
  19.1034334  81.6201610  21.0395741  18.4166210  80.8018346  22.1117735
 100.1687908   2.3525916   5.5308086  99.2425537   2.2423056   5.3159827
 100.3775883   1.5999582   6.0841429  27.9259794  82.3841495   6.9808567
  28.4545010  83.1443066   7.2238785  27.5807875  82.0569868   7.8115427
  69.7362232  14.0045452  11.4525437  69.3672323  13.1301463  11.5770578
  69.4261026  14.2745173  10.5881524 102.4372799  82.7821367  67.5788811
 102.6391727  82.9617279  66.6606119 103.2572824  82.4494332  67.9437664
  17.3638743 100.8754785  16.2361467  17.8671807 100.2447708  16.7510426
  18.0083912 101.2782783  15.6542718 117.8361000  88.2979936   6.3757539
 118.6670698  88.6659021   6.6763544 118.0680669  87.7815242   5.6039488
  82.0561600  16.2431109   6.1909342  82.9110336  16.6718388   6.2311399
  82.2306156  15.3996730   5.7733101   7.0434224  83.7889164  70.9065035
   7.3864113  83.4787267  71.7445806   7.5970589  84.5371860  70.6833199
  63.3648872  12.3645961   7.1505940  63.3839607  13.2594013   7.4899924
  63.6691999  12.4447787   6.2466049  22.1434342  99.5334953  87.0330861
  22.2203290 100.0042909  86.2032261  21.2603318  99.1645187  87.0182004
   7.6680600  49.3190985  86.8497965   8.1004845  48.6653512  87.3992112
   7.6162755  48.9096909  85.9861210  87.3941612  12.6583636   1.2139838
  86.4766121  12.6258671   0.9432865  87.7132130  13.4963000   0.8788697
 116.7076434  98.0620689  31.9768810 117.2415460  97.5667949  32.5980759
 117.3338426  98.6172552  31.5122581  60.9788704  33.9185357   8.2691419
  61.6417360  33.2354140   8.1682014  61.4648008  34.6782589   8.5899603
  42.0778006 100.8147938   8.5594332  42.3778933 100.9286065   7.6576447
  41.1951941 101.1851711   8.5666966 111.2599117  60.7459342  71.0080078
 111.8070871  61.1446160  70.3313353 110.6528503  60.1848903  70.5253723
  97.5768280  21.9783640  21.1793709  97.0188427  22.2039461  20.4350615
  98.3791256  21.6386414  20.7829690  87.8951073   1.2008371  39.1676879
  88.6277580   0.9429172  38.6082888  87.3211098   0.4349151  39.1788936
  44.6194285  93.8359232  47.5583029  44.8195570  94.6416635  48.0347109
  45.4756182  93.4669382  47.3414660 105.6587393  65.7425290  94.9394268
 106.3695270  65.5287069  95.5438231 104.9515468  66.0565787  95.5028848
  67.3170775  97.5763674  29.9092579  66.6215342  97.8915293  30.4864192
  67.1039217  97.9469056  29.0528154 107.8916818  73.3173114  74.6359232
 108.8367349  73.3277970  74.7875717 107.5101167  73.2219141  75.5085853
 102.9078674  26.8988776  18.6940050 102.9378891  27.2341657  19.5900583
 102.1386051  26.3295078  18.6769688 103.3944208  64.0526252  79.0210059
 102.6212293  64.6041750  79.1401520 103.6383325  64.1770237  78.1038013
  46.0949326   4.9989542   9.8347986  45.8772230   5.8833730   9.5404553
  46.2480450   4.5086172   9.0271121  69.5109177  34.7497725  -0.0222860
  69.7969246  33.9268899   0.3743199  68.9727211  35.1658678   0.6510926
  69.3029833   9.7882599  31.1748028  69.6374655  10.1286650  30.3450561
  68.6829424   9.1047186  30.9207320  32.6150959 100.1932402  62.1268368
  32.1004647  99.3863637  62.1452713  33.4929722  99.9236281  62.3967743
  25.2104144   4.5411578   2.0708768  25.6300216   4.8348674   2.8795159
  24.3489795   4.2289379   2.3477703 111.8986589  46.0333919  64.9932983
 112.1355469  45.8700525  65.9062245 112.0126611  45.1869422  64.5611432
  42.0479124  69.9664254   7.9251087  42.6162070  69.7447390   7.1874559
  42.1157091  70.9181113   8.0021209  69.1613674  19.9453974  26.1638260
  70.0840521  19.8061585  26.3771129  68.6988926  19.7882521  26.9870234
  79.9103022  18.0017126  57.9797220  79.5103598  17.1454322  57.8278637
  80.1619911  17.9881287  58.9031410 106.0010624  23.4060907   1.6892131
 105.4983997  24.1972995   1.8830028 105.6200409  22.7354360   2.2560221
  55.1861525  35.6857181   9.7438461  55.1677513  34.9930286   9.0834856
  54.2908239  36.0238218   9.7613126  85.5302811  36.5710688  30.6973815
  85.2187061  36.6045785  31.6018319  85.3570366  35.6722403  30.4175186
  33.0167233  44.6715480  78.4947088  33.2311665  43.9067906  77.9604855
  32.3388135  44.3617194  79.0952697 113.7303573  83.4427136  90.8713224
 113.3345491  82.5839537  91.0199764 114.4503814  83.4867304  91.5005007
  63.3691502   7.7094179  15.0331748  63.0505991   8.4938490  14.5866060
  62.6075172   7.3791307  15.5096817  97.1341068  30.8171480  91.3676229
  96.9952137  31.7379754  91.5890178  98.0355675  30.6396001  91.6360900
 100.5197365  59.3020826  87.0050064 100.0967342  59.7752281  86.2884620
 101.4568693  59.4000101  86.8364021  62.8046894  22.3448396  16.0176516
  62.5309467  21.8921232  15.2199399  62.4762678  23.2375979  15.9110928
   8.9073818  99.0636141  18.1994510   8.9143818  98.6797161  17.3226357
   9.5979708  98.5973878  18.6705637  83.7095833   3.0276597  14.1932666
  82.9415512   3.1042314  13.6271322  83.3629322   3.1188649  15.0808203
 108.6614323  38.4958148  21.8712640 108.5096741  38.6318851  20.9360194
 107.7863884  38.5014057  22.2592068  57.3454046  54.3433523  15.5886221
  58.0990791  53.8128757  15.3301549  57.3658180  55.0938463  14.9948442
  93.5364342   5.5009109  26.5112424  94.3403816   5.1120985  26.1666727
  92.8982449   5.3963745  25.8055377  80.4755497  24.4696355  40.5709648
  81.3045597  24.6315670  40.1206875  80.4470730  25.1285815  41.2646627
  43.2379454 105.5555047  39.8821163  44.0005987 105.0606115  40.1815748
  43.2735556 105.4959501  38.9274335  80.1187706  40.5568600  10.1383877
  81.0620594  40.6404257   9.9989247  79.8435593  39.8828411   9.5169431
  81.2220764  23.7937236   1.7688438  81.9737720  23.3670378   2.1800980
  81.0565758  23.2784843   0.9793065  91.3753891  33.3355832  21.5277958
  91.1708927  34.2430592  21.3021874  91.9202137  33.0258536  20.8042908
  96.9891661  93.5466130  21.2069035  96.0550993  93.6934359  21.3558769
  97.3109740  94.3803341  20.8640003  98.8783581  82.7818387  83.8755980
  98.4694654  81.9167464  83.9012316  99.5471794  82.7105492  83.1945482
 109.8663551  76.3190120  89.0894696 110.2269918  76.8844431  88.4064904
 109.0776569  76.7737287  89.3851432   5.7348286 104.6531146  93.4288570
   4.8302018 104.9077933  93.2471502   5.6583153 103.8842719  93.9938900
  38.6824441  29.4336557  39.6089292  39.2506266  29.7939944  40.2897787
  38.2699227  28.6733723  40.0188398  28.1353110 106.3211728  20.5615783
  28.1316155 106.1795349  19.6149230  27.2291630 106.1692930  20.8300209
  41.9559145  26.2837744  36.5435481  41.6739035  26.3824391  35.6341696
  41.7621994  27.1296644  36.9475031  27.9080313  75.7173843  24.3166399
  28.4744042  76.4776201  24.4489312  27.4294155  75.9125776  23.5109973
  54.0407198  90.2756972  23.3935237  53.7892454  91.0327239  22.8644681
  53.8964480  89.5236010  22.8192663  79.2142677  20.8883524   4.5055941
  80.0195980  20.4222226   4.2811117  78.5220718  20.2359962   4.3982142
  60.5203724   1.4244680  27.7736592  60.6453991   0.5304315  28.0919337
  59.8175621   1.7769621  28.3195901  72.9613543   5.4225087  35.0123835
  72.8721714   6.2630147  34.5631313  72.1992445   4.9174160  34.7290134
  89.5480251  22.8174257  20.8241153  89.3897438  22.0729542  21.4045835
  90.3009701  23.2656503  21.2093401  86.1341095  29.5632529  18.4156978
  85.2902603  29.5408702  18.8669777  85.9136200  29.4583058  17.4901700
  35.9831064  87.7731485  27.0681977  35.6917542  88.6835666  27.0183730
  35.2544087  87.2683663  26.7070556  62.3241919  88.8519616  18.7489045
  62.2501391  88.2877965  19.5186234  61.4921015  89.3240256  18.7170029
 101.9362623  74.8261302  69.4185307 102.7550060  74.4933801  69.7861770
 101.7116529  75.5740457  69.9720672  34.5430153  96.9060559   7.1418041
  35.1931017  96.2059719   7.0826411  33.8022822  96.5071220   7.5983173
  24.7871989 102.0457662  25.3811240  25.5476826 102.0000340  25.9606147
  24.1024035 102.4474276  25.9158731  95.1327974  80.6438535  75.2624872
  95.7791073  81.2759131  75.5771568  94.6015960  80.4409688  76.0324839
  19.5149105  95.0747199  25.8802199  19.6443051  96.0130615  25.7423663
  19.3103474  94.9954851  26.8119431  18.6710041  93.7680967  19.0010822
  18.5163992  93.8825352  18.0634081  18.1012457  94.4142134  19.4183815
  42.2089815  32.0601058  42.0206261  42.9778004  32.3366642  41.5219641
  41.4885521  32.5726914  41.6539192  55.5232620  23.8287067  24.8894191
  56.1437988  23.8021231  24.1610932  56.0226870  24.2011571  25.6161141
 115.4586155  94.8914235  72.3396137 115.1612932  95.6858581  71.8961003
 116.4070017  94.8855084  72.2101548  77.9381514  27.3028755  15.5887175
  78.3222866  26.6960073  16.2214780  76.9965315  27.2576523  15.7546604
  49.8680544  13.2425439  15.8133757  50.0878763  12.6579809  16.5387690
  49.8015118  14.1086507  16.2154472  96.2518961  55.4684035  81.2863377
  95.6699783  54.9245691  81.8172303  97.1208507  55.3268854  81.6620019
  78.9063787  10.7903183  12.5895774  78.5183287  10.0695598  12.0934355
  78.9326048  11.5201926  11.9708467   1.0254275  70.6161087  90.7913485
   0.3768145  70.0311416  91.1829439   1.7246758  70.0338393  90.4942974
 109.8632557  65.2862524  87.6555583 109.5894605  64.5018988  87.1801045
 110.2879888  64.9515235  88.4453627  85.9036237  73.0120795  94.0009796
  85.1861173  72.8933328  94.6233252  85.7709009  72.3245161  93.3483896
  87.1826935  14.6644878  17.8512561  86.5886879  14.5226336  17.1141899
  86.8436241  15.4476023  18.2848406 112.8399563  31.7898202  15.4173994
 112.5059319  30.9048939  15.2705574 112.0843792  32.2804093  15.7409120
  76.7773867   2.9921049  16.8932700  76.2584066   3.3253682  17.6252711
  77.6354885   3.4021208  17.0017886  59.6138113   6.0988472  87.4883380
  60.1599425   5.6238650  86.8619469  58.7160891   5.9055994  87.2181853
  70.0335312  17.3937428  11.1845839  70.8731031  17.7797163  10.9348345
  69.8536634  16.7485404  10.5007768  50.0062752  50.9508753  32.4164081
  50.4519415  51.7619562  32.6608825  50.6989002  50.2902460  32.4077535
  29.5600432  21.4382504  94.3025075  30.3612726  20.9433029  94.1313487
  28.8541191  20.8553313  94.0230259  60.9840107  65.7194757  24.6005344
  61.2741995  65.9075594  25.4930830  60.6145668  66.5459633  24.2896271
 104.3218262  93.9749854  77.8364339 103.7243778  94.7014778  78.0138996
 103.8151533  93.1909936  78.0482581 117.5267441  60.6433883  96.0209946
 117.2786171  61.4877051  95.6444385 117.3884947  60.0151109  95.3122031
  97.7934074   9.6907622   9.0902370  97.2081470   9.8140574   9.8375666
  97.2183323   9.7326821   8.3261895  83.9519310   7.9898769  22.3462009
  84.0215778   7.0754534  22.0719552  83.7506104   8.4667391  21.5410280
  80.1426822  89.1719573  92.6931995  79.5564920  89.9048703  92.8814825
  80.7792789  89.1846960  93.4079119  75.1499605  16.6006482  50.0299883
  74.2937279  16.4564455  49.6271133  75.6193638  15.7772541  49.8961449
   2.6641785  51.6252577  73.8676169   3.2763516  51.8543940  73.1683495
   2.0096146  51.0721498  73.4411862  65.2820700  98.9842362  22.5157166
  65.8520811  98.7287731  23.2410145  65.6608599  98.5526152  21.7499113
 101.8280315  23.9183784  31.4553571 101.0457039  23.3687305  31.5008759
 101.8155003  24.4207907  32.2700071  91.1921024  24.2147827   1.0221868
  91.6041851  23.4131932   0.6998982  90.9328842  24.6859169   0.2303072
  62.5330734  36.8303609  12.9812753  61.7740297  36.4295840  12.5576425
  62.7965784  37.5323081  12.3862410  83.1820297  43.2008600  39.6045566
  83.4566116  42.7254820  38.8204265  83.2189751  44.1230679  39.3507838
   0.7568728 105.0414270  74.8622754   1.4787137 104.9725145  75.4871180
   1.0024582 105.7699292  74.2920068  17.5531440  17.9526663   2.4688062
  18.1383853  18.6536396   2.1818303  17.8274493  17.1888244   1.9613306
  13.3154999  96.5455049  95.8261739  13.6138665  97.4529832  95.7654279
  13.7045609  96.2192672  96.6376136  61.8267345  25.8443570   7.2326404
  60.9345055  25.5731368   7.0167714  62.2847319  25.0270081   7.4286282
  91.1141109  46.3787937  10.8309603  91.3465977  46.4562750   9.9056613
  91.7374134  45.7428455  11.1820853  73.3397245  33.5251927  23.2945418
  73.3395767  34.4380975  23.0067325  73.7854290  33.5411477  24.1414928
  31.9417225  88.5810488  94.8377485  31.7942940  89.1768115  94.1031986
  31.6603123  89.0756100  95.6074568   9.2133557  71.3500136  93.7353900
   9.3451249  71.6396981  94.6381369   8.5722291  71.9643264  93.3778849
  63.7957478  22.5895858  37.8947139  63.8134193  23.3556557  38.4683490
  63.3254957  22.8849626  37.1150708 108.2501125  10.9409404  11.8105745
 108.7444592  10.6225157  11.0552907 107.3629093  10.6088102  11.6734517
  67.0614355   5.6499384  94.7265343  66.5633982   5.4837130  93.9261800
  67.2396773   6.5901898  94.7067934  74.6531010  46.9538021  22.0969415
  73.9783669  46.3231707  22.3484778  74.7411203  47.5269365  22.8585219
  60.1862907  12.2035277   3.9646080  59.6130371  12.1163273   4.7261891
  60.9910250  11.7511141   4.2175111  93.2862282  19.6086705   5.4894173
  93.4170246  20.5541587   5.4174876  94.0144825  19.2280936   4.9984646
  94.2193222  44.8537016   9.0201896  94.0335846  45.7757711   8.8426512
  93.5149193  44.5759153   9.6057528  70.0587320  20.0445461  50.8433151
  70.2238417  20.4648304  51.6873121  69.8658848  20.7692838  50.2485085
  68.5473585  39.3130612   5.5604255  68.6789370  38.6798930   4.8547217
  68.1859446  40.0851727   5.1251590  89.0171719  60.0643587  42.3418665
  88.3304691  60.7035732  42.5318241  89.6664047  60.1979494  43.0324268
  87.8956604  38.8999772  32.4562168  87.5269794  39.7257614  32.1425462
  88.7759113  39.1287112  32.7546763  17.2685372  68.4092646  91.5395811
  16.5184533  67.9484921  91.1636993  16.9992863  68.6148124  92.4348384
  75.0010347  28.1287813  20.1860499  75.0897408  29.0106964  19.8246837
  74.4818449  28.2469726  20.9814763  74.3332529  32.8196478   9.9133068
  74.0827894  33.1193948   9.0394342  73.7076712  32.1242142  10.1164138
 100.4663927  79.8954719  95.5827701  99.7790987  80.0298589  96.2352995
 100.3774626  80.6376785  94.9848990  44.8135584 104.0823860  15.5516434
  45.4955881 103.8879843  14.9087811  45.0973147 104.8991157  15.9623349
  84.0998554  70.3445768  27.3230219  84.3654823  69.5437336  27.7750468
  84.9157143  70.8279371  27.1927595  11.3303792  69.9877923  59.4262507
  10.4560887  69.6518903  59.6237615  11.5532528  69.5941871  58.5826662
  14.5814168  61.7468965  90.5177542  15.4647862  61.9901621  90.7947156
  14.3979775  60.9341418  90.9889355  49.6523112   4.7535942  84.2885461
  50.4067343   5.1144694  84.7542193  50.0171011   4.4057463  83.4748116
  29.2234074  92.3246568  94.2855511  28.4833943  91.8288153  94.6359175
  28.8971364  92.6941817  93.4650451  43.1064701  20.5689597   1.3766296
  43.1096649  21.1619401   0.6252331  43.2700014  21.1362123   2.1300970
  82.5552273   6.5139961  35.1805401  83.4436989   6.5976906  35.5267453
  82.6611042   6.0240889  34.3650556  88.1225586  15.1858878  38.1152368
  88.2862854  14.2428994  38.1292605  87.2895241  15.2774918  37.6527452
  41.7179507   5.0678871  70.7067612  42.3948401   5.7245491  70.8705953
  41.7926234   4.8749541  69.7721842 104.6339971  96.4762443  72.5714496
 104.7025711  97.3817247  72.8741553 104.5026809  95.9658664  73.3705142
  55.0975275   5.5281627  27.1211410  56.0044909   5.8265620  27.1890712
  54.6381807   5.9974724  27.8175473  93.6732292  39.1365147  17.4776554
  94.3918324  38.5430384  17.6959074  93.2697678  38.7487125  16.7010856
  59.3439007  24.6724892  35.5646706  58.7943697  25.3311372  35.1399016
  59.4634199  23.9949441  34.8991776 109.2786026   8.1523132  49.1955757
 109.8250771   8.8529295  49.5515728 109.5139980   8.1124747  48.2686281
  65.9578896  17.2917211  42.6503515  66.8314505  16.9007182  42.6657200
  65.8195829  17.5330698  41.7344618  67.8695154   4.0124479  55.1486492
  67.2009611   3.6613590  55.7368708  67.8315306   3.4462616  54.3777895
  60.2423191  39.3596482  44.3719387  59.5536089  39.8460865  44.8250246
  60.4066944  38.6002970  44.9310446  91.6687012  38.3006525  12.3474729
  91.6205883  38.9049673  11.6067159  90.9131908  38.5263443  12.8901601
  96.7579842  26.4996934  33.9227700  97.6450062  26.1857343  34.0984511
  96.8725014  27.1850801  33.2644653  91.3127804  18.4864640  13.4558034
  91.0301971  18.7933040  12.5942767  91.9911289  17.8376698  13.2683396
  82.8376961  37.6235342   7.8406829  82.8571224  37.2152758   6.9751310
  82.9444218  36.8945646   8.4517854  39.8127383  92.8075750  14.7654641
  39.8237770  92.6543672  13.8206685  39.2721146  93.5898645  14.8749459
   1.1275612  68.9010041  85.7341733   0.8001410  68.4765261  84.9411729
   0.4995238  68.6560147  86.4137211  78.1207228  72.4984598  16.4472842
  78.5345697  71.8028259  15.9363461  77.9510212  73.1938505  15.8117759
 113.6542797  20.8088803   7.3111057 114.3490410  20.7402802   6.6562569
 114.0142727  20.3809619   8.0879712  20.5324589 102.5687402  92.4352544
  19.8172699 101.9834083  92.6844826  20.3047787 102.8631108  91.5533584
 103.1159097  82.4560493  71.3860252 103.6727077  82.1902507  70.6542066
 102.2234852  82.3004764  71.0768154 117.9349804  52.9274893  30.7419491
 117.5329304  52.3290110  30.1123333 117.7164841  52.5575018  31.5972853
  90.4652500   2.8860429  18.7440228  91.0567379   3.1999844  18.0600500
  90.2275562   3.6727527  19.2347598 117.3319847  78.4381073  92.9135227
 116.7933924  78.0256909  92.2381988 117.7039320  77.7050942  93.4040111
  93.0602581  85.3489631  80.7992914  93.2232792  84.4403237  80.5462482
  93.9104015  85.7792442  80.7079235  72.1477134 108.9682668  79.9193886
  72.0406801 108.8668101  80.8651593  71.4838130 109.6114534  79.6708420
  85.1217651  18.0121887  27.1361184  84.2735481  18.2575738  26.7665935
  85.1904392  18.5265350  27.9404569  42.8622055  39.9542975  10.5740893
  42.4924088  40.0563955   9.6971309  43.8087845  39.9315453  10.4337120
 117.7974970 107.7383226  92.7161735 118.2560760 108.2107108  92.0213470
 117.8989536 106.8149369  92.4853134  30.1521336  97.5657457  85.1507047
  29.2754399  97.9497283  85.1649406  30.7383381  98.3117812  85.0241032
  87.2113705  20.1679969   7.3756814  86.2902737  19.9076390   7.3703635
  87.5836277  19.7161114   8.1329501  19.8686461  64.8483801  35.2608252
  20.3745417  64.4546366  34.5500016  20.4460292  65.5212307  35.6215668
  84.2994005  45.4599565  92.2895324  83.6592037  46.1493182  92.1130049
  85.1406795  45.9157222  92.3170894  95.1777363  24.7946024  30.8562016
  95.4513359  24.7994494  31.7734504  94.2694950  24.4932294  30.8787656
 108.3135700  58.7143946  19.9499273 108.9711285  58.1758642  19.5096636
 108.5474205  58.6677742  20.8769512  83.6998558  15.6968141  34.8169088
  84.1324234  16.4932621  34.5090222  83.0398560  15.5093932  34.1494513
 106.1509991  43.5674715  27.3023176 106.9206524  43.4741211  26.7409325
 106.4843273  43.4348392  28.1897473  95.5086517  17.9692280  10.6247091
  95.0321960  17.1434975  10.7107055  96.2646294  17.7537882  10.0785339
  11.5483223  95.7476228  92.4513331  12.0195710  96.1492437  93.1813022
  10.6568657  96.0882848  92.5253355  18.8086735 108.2776159  56.7414000
  18.0212914 108.6298221  57.1563771  18.5018097 107.5109189  56.2574079
  77.2747660   1.9862849  20.7427955  77.7296877   2.5426719  20.1105642
  77.8272915   2.0102312  21.5240598  88.6696339  26.2306952   6.1087036
  88.1856441  25.5154943   6.5215886  89.0809441  25.8306074   5.3425550
  81.5268612  35.9533834  18.5915577  80.9627724  35.1800632  18.5938001
  81.9960213  35.9052062  17.7586126  63.1439877  19.1049552   9.5475358
  63.1326056  19.8738003  10.1176059  64.0617323  18.8335514   9.5297343
  72.7540588  37.8754139  16.5904570  72.2856855  37.5180268  17.3448646
  73.6637211  37.6098943  16.7255402  72.5017452   2.1530710  19.5114779
  73.2160187   2.0699686  20.1432514  71.9628477   2.8672111  19.8518038
 116.0999567  85.5952924  95.5083784 116.1890680  84.9001949  96.1603992
 115.2292568  85.4620546  95.1337232 118.4638023  22.3319745  16.1369312
 118.1851578  23.0629802  15.5853724 117.8046227  21.6542244  15.9873545
  68.9911413  37.7566004  25.7346821  69.0850115  37.6140189  26.6765380
  69.8764658  37.6496720  25.3868437  85.3460026   4.8011258  16.3653612
  84.5043564   4.3464977  16.3996649  85.6937695   4.5961106  15.4974556
   9.5875012  64.9253672  63.8456514   9.1127526  64.6050101  63.0786994
  10.3250824  65.4160088  63.4830597  22.3433720  64.0993845  95.8827288
  21.9327294  64.7583073  96.4425708  23.1066166  64.5422404  95.5118278
 109.8727876 105.1019614  76.1853674 110.0267345 105.8098691  75.5597451
 109.5217211 104.3862241  75.6555584   0.4968869 100.0362151  84.0834966
  -0.2085365  99.4766753  84.4083455   0.9401452  99.5036977  83.4230605
  85.3537941  47.9531288  11.0197735  85.1144409  48.8298082  11.3204086
  84.5696545  47.6296139  10.5762756  75.3542328  10.7903969  20.8582973
  75.6645536   9.9602103  20.4967403  75.8257151  11.4591241  20.3615665
  10.2195220  56.2172413  21.9601083  10.4064135  55.2788496  21.9869137
   9.2638640  56.2713432  21.9640303  27.7416342 110.0020597  26.7502046
  26.8839806 110.3987450  26.9028735  27.5599592 109.0667818  26.6581059
  83.3815687  95.7330818  43.1637859  83.5310286  94.7904189  43.2364559
  84.2402857  96.0956581  42.9461241 101.9383222  41.7334371  90.0050083
 102.7436907  42.0711380  90.3968957 102.2375376  41.1558109  89.3028328
  64.5672083  35.9843874   7.2829020  64.6895790  36.1733413   8.2132530
  63.6237526  36.0667825   7.1438402  90.3630543  28.7951636  36.3330412
  90.9324360  29.4372630  36.7570114  90.0719166  28.2259274  37.0453906
 103.3775330  30.0436568  31.3750935 102.9022121  30.8743119  31.3927388
 103.3250332  29.7185230  32.2738481  68.9954394  97.9283137  34.1487360
  68.8841742  98.0884094  33.2116032  69.2354506  97.0035190  34.2068911
  16.0745781  93.2076688  20.5687094  15.7218569  92.5843699  19.9336362
  16.8276470  92.7583618  20.9524274  89.5807743  21.3357329  10.1254904
  89.8927307  22.2327185  10.0057757  90.3773212  20.8051658  10.1408780
 104.2531521  62.1370601  87.5544408 103.4892542  62.0956343  86.9791320
 105.0008137  62.1712452  86.9577315   0.5340563  76.9338506  96.5923129
   1.4812314  76.9701379  96.7256018   0.4305874  76.7338412  95.6619781
 104.1248781 110.6650966  85.4246142 104.6539099 111.4616149  85.4683521
 104.7108490 109.9714463  85.7274642  96.6665077  44.6486664  10.4193997
  96.2966156  44.5910263   9.5384395  96.1884308  45.3672218  10.8333540
  73.9739990  69.2577744  38.0749273  73.4448147  68.6218452  38.5563707
  73.4528351  70.0605774  38.0862904  41.6928708  71.7518299  91.0183349
  41.9560372  71.2589567  91.7955416  41.3912903  71.0842996  90.4021516
  61.2772989  37.5427580  30.8519316  62.0091057  37.6208043  30.2398872
  61.4333010  38.2291651  31.5005755  34.7690409   0.1483010  84.9229541
  34.1183489   0.4440640  85.5596295  35.3590792  -0.4125787  85.4264429
  34.6034210  99.5181103  20.7337308  34.9359768 100.2173514  20.1709676
  33.6627167  99.4963093  20.5581307  55.7473898  34.4612908   3.9880577
  56.5140963  34.9858975   3.7574452  55.8253431  33.6736917   3.4496889
 117.5051308   3.5696441  27.5897241 116.6538525   3.1614280  27.4318886
 118.1149006   2.8346437  27.6544523  72.2937202  61.6604519  19.0353215
  72.4519491  62.3791265  19.6474540  72.8695297  60.9577990  19.3369031
  37.6118773  15.3132819  92.3418286  36.8764179  15.0113962  91.8087295
  38.0220335  16.0005759  91.8168226 116.4655685  20.6818724  27.2957778
 115.5429745  20.8195376  27.0810461 116.9420815  21.2067223  26.6525865
   7.8784501  83.5512965  73.3040455   7.6003968  83.0481094  74.0693691
   8.6926781  83.9735168  73.5779050  99.3661308  46.0244417  18.2936347
  99.8245811  45.2797365  17.9044485  99.9222279  46.2923002  19.0252364
  67.1135187  47.5594568  35.9637666  66.6893959  48.1871128  35.3786182
  68.0368137  47.5837660  35.7124281 108.8179619  89.8850578  74.4186047
 109.0530235  89.3193739  73.6830905 107.9795439  90.2712482  74.1653374
   9.5942341  85.3885263  89.0383419  10.4934537  85.0717848  89.1238031
   9.5916497  85.8840507  88.2193908  63.5306090  89.6772404  11.0912538
  63.7923258  88.8340158  10.7215083  63.3634299  89.4920273  12.0153630
   6.5198552  67.8789800  88.5773626   6.8604981  66.9992786  88.7395933
   7.2214352  68.3235162  88.1015453  47.1418017   4.3354605  69.3356445
  46.8921011   3.4408377  69.1042784  48.0650824   4.3973540  69.0908125
 104.7889614  19.2947042   9.4806075 104.1405582  18.5929406   9.5382386
 105.6138420  18.8443232   9.2990249  88.9287090  10.5822897   2.0071550
  89.2867756  10.3256333   1.1573620  88.3697987  11.3350058   1.8141016
  36.4762371 105.6323768  28.7424803  36.0401362 104.8257811  29.0171647
  36.3845270 106.2212707  29.4914961  98.9037895  47.0161581  30.4512429
  99.2725372  47.8612328  30.7083488  99.0795326  46.4415073  31.1963058
  97.1442509  59.0498590  30.0643682  97.4583054  58.9230347  30.9596419
  96.1918354  58.9832973  30.1329613 100.8353931  82.0340198  70.1117638
 100.0484401  82.5531142  70.2775338 101.0526354  82.2138184  69.1970470
 102.2258377  42.1903610  13.9042389 103.0546474  41.9966936  13.4662926
 102.0358562  43.0979776  13.6668205  24.8582094  11.5134238  95.3466559
  24.5919197  10.9334610  94.6332401  25.1034182  12.3304079  94.9123265
  34.3915194 104.0785159   7.3813701  35.0817698 103.6512120   7.8885156
  34.5507258 103.8013722   6.4791083  78.1038713  10.1465130  50.0205183
  78.0186510   9.7102135  50.8682299  78.8196182   9.6843994  49.5841837
 104.4037533  52.0971107  32.4818635 105.2210140  51.8949413  32.9373288
 104.0638351  52.8705883  32.9317737 101.9468784  32.8442693  26.1459661
 102.3250866  33.4721994  25.5304217 101.0233879  33.0898428  26.2015200
  93.9335346  24.7902679   8.9232171  93.0566216  25.0783777   9.1766626
  94.5242786  25.3351021   9.4432348  93.6557198  33.7241459  18.5974646
  94.1951275  33.8649774  19.3755651  93.8861179  32.8431320  18.3025646
 112.0198423 110.5113691  68.3633044 112.7977020 110.4772895  67.8065231
 112.2946436 110.1025098  69.1840055   6.9210582  19.6817982   7.6191151
   7.8590255  19.8534048   7.5354481   6.5300517  20.1123142   6.8588495
 110.8681679  47.1813822  21.1361980 110.9585571  47.8494263  20.4566574
 111.6242695  47.3168468  21.7073226  98.5384560  22.8247023   0.3235922
  99.4878101  22.9114842   0.2374344  98.4006023  22.6058841   1.2451933
 103.4855652  15.8762980   5.9052891 104.2297077  16.1248875   5.3569436
 102.7174854  16.0608721   5.3647184  73.5015869  60.5205202  24.2387152
  73.2677364  59.6763229  24.6245551  72.6986885  60.8193827  23.8117933
  45.5389977  67.1332693  16.5190530  45.2492857  66.2710428  16.8171597
  46.3803101  67.2673607  16.9554579  86.1774826  30.4313397  14.9468327
  86.3428116  31.2309742  14.4473517  87.0252037  30.2102542  15.3324842
  80.3336352  26.3961409  93.1461185  79.8954027  26.8223666  92.4095660
  81.0729044  25.9345053  92.7503863  91.5771198  52.5344419  11.2732351
  91.6098976  51.7097998  11.7581332  92.2405624  53.0840826  11.6903353
  97.5360012  68.0677938   3.6416063  98.0743122  68.3446646   2.9001221
  96.9773579  67.3761415   3.2869685   1.4440779  31.1786795  11.6096544
   0.8302455  31.0445356  12.3317707   2.1820693  31.6421652  12.0055985
  88.9636040  40.5189705  41.0819769  88.3372116  41.2427521  41.0821104
  89.6976757  40.8376122  40.5567646  31.7670016  51.2593222   2.7730075
  31.1212020  51.9486761   2.9277924  32.3623042  51.3166237   3.5203809
  74.9179173  34.1073179  16.7067087  74.6518612  33.3553600  16.1775517
  74.1161394  34.3834233  17.1507311 118.1246281  31.2128568   4.3452314
 117.8466702  32.0993018   4.1146123 118.6297703  31.3222265   5.1509029
 107.3080730  51.8214846  41.0033178 106.9163418  51.7308521  41.8719769
 106.7500591  51.2931204  40.4326296  76.5061188  58.1763697   9.3577117
  76.2407923  58.9339685   8.8362908  77.4264240  58.3386660   9.5648968
   5.9335952  64.3234301  32.9286480   6.1117415  64.5386410  33.8441682
   4.9840216  64.4083405  32.8430438 105.4380399 104.9373143  93.8487452
 106.1290104 105.1311820  93.2153353 105.8558971 105.0534290  94.7020593
  96.4143276  51.7417431  13.0806088  96.8069458  51.2807703  12.3392677
  96.9757652  51.5217543  13.8239944 108.4049702  55.9494591  16.3975608
 109.2986012  55.6800890  16.6099179 107.8492832  55.3429270  16.8870103
  77.7407742  52.3807144  14.2140651  77.8917742  52.1299505  13.3027208
  76.8451118  52.0959711  14.3955743  87.7362061  62.6781368  42.3733997
  87.8097630  63.2708406  41.6253853  88.4923172  62.8888893  42.9212332
 100.4685593  78.8118219   0.6923945 101.2931633  79.0755844   1.1006707
  99.7974300  79.0517521   1.3313425  17.6344334 108.2820075  90.5796930
  16.8974816 108.6498540  90.0920239  17.4500310 107.3436349  90.6206712
  85.8478546  64.9088383  27.5868416  86.3621712  64.1564512  27.8794503
  85.9009933  64.8783731  26.6316032 111.1355144  57.3012044  95.2141896
 111.9355232  57.1705432  95.7232556 111.4029724  57.1569798  94.3065014
  79.1117144   6.7359495  39.5617151  79.6553087   7.4378490  39.9195886
  79.4453430   6.6033560  38.6743903   0.5325656  45.6794596  31.9552612
  -0.1976724  46.1486006  31.5516686   1.0012679  46.3489866  32.4535489
 102.5380898  44.2122984   7.9770023 102.2134209  43.5139656   7.4085325
 102.6954269  43.7829208   8.8179010  56.1877298  46.9711351  10.5973387
  55.4407167  46.3780165  10.5172467  56.8260431  46.6389799   9.9660999
 112.0452690  39.8068547   6.3854015 112.2560120  40.6087542   6.8637085
 111.4081955  39.3572402   6.9405758  43.1758833  60.3738880  12.6018357
  43.6380768  60.5304766  11.7783761  42.5845003  61.1213160  12.6904416
  91.5520382  49.8194313  15.6500494  91.3093567  50.6960392  15.3518915
  90.8877850  49.5957279  16.3019311  70.9335089  23.6964250  24.7173095
  70.3441715  24.2607021  25.2178121  71.8070602  24.0454030  24.8943973
  22.1032654 102.2961181  86.3753524  22.1654259 102.2224277  87.3276844
  22.8041016 102.9024738  86.1357894  98.8829613  40.4030085  24.0748119
  98.4013653  41.0723829  24.5608592  99.7089672  40.8256197  23.8395619
  70.7708931  13.5237956  33.1687069  71.2175035  13.9033520  32.4119329
  70.9490442  12.5854027  33.1061435 110.5446720  25.4893994  21.0591507
 110.1808262  25.8153391  20.2359772 110.1508808  26.0450816  21.7317414
  63.7633705  45.6264973  29.4478750  63.0979013  45.3761768  28.8070035
  63.9941978  44.8072958  29.8858953  91.3802338 103.1316185   6.6012269
  92.3284054 103.0283642   6.5203589  91.1913681 102.9045010   7.5117099
  78.3819389  52.7410841  23.7196589  78.0866098  52.3723793  24.5521665
  79.3373680  52.7137518  23.7711072  74.9799061  26.7675400  11.0479391
  74.9396610  26.6631770  11.9985807  75.2693272  27.6706600  10.9181714
  83.0009443  40.8570152  89.9504945  82.8753311  41.8027192  90.0285825
  82.1588642  40.4815071  90.2076474  89.0064621  33.8999009  16.5957057
  89.8085690  34.1884279  17.0311582  88.8155556  34.5918107  15.9624243
  58.5279465  49.7152805   3.7914434  59.3703842  49.2903137   3.6304098
  57.9378843  49.3306494   3.1432769  60.6941748  58.5104275  15.3233278
  61.0740614  59.3736649  15.4868388  61.4427757  57.9139614  15.3309691
  24.7810511  88.8573742   1.9581640  24.7595172  87.9955006   2.3740223
  25.6861357  89.1510010   2.0622833 112.9484463  44.8111677   8.8212240
 112.1650219  45.2811384   9.1068769 113.6731243  45.2794218   9.2357248
  36.8090027   2.3522614  60.6714108  37.0984619   1.6015623  60.1528600
  37.3850029   3.0670594  60.4002622 109.7168350  52.0676327  16.4085424
 108.9996338  51.4338255  16.4202070 109.7242928  52.4044275  15.5125821
  74.3814325  52.7952433  20.7770848  75.0354671  52.1573591  21.0627055
  74.8139811  53.6431932  20.8776689  88.9865017  27.4033880  16.7177522
  88.6571884  27.1686745  15.8501744  88.2195854  27.3487329  17.2879040
  87.1673489  23.1921864  24.9278474  86.5302658  23.2173204  24.2138958
  87.6984692  23.9786220  24.8027110  76.5605497  35.8251143  46.5886354
  76.0033607  36.4843225  47.0024252  75.9775305  35.0820017  46.4333773
  59.5115805  61.7172670  10.7357764  59.7982311  61.2887478  11.5422702
  58.8892651  62.3837805  11.0268390  14.2811238  61.2640815  87.6067474
  13.7299096  62.0291191  87.4420956  14.4119107  61.2627172  88.5549697
   4.6649777  96.8327087  69.0539768   3.7183415  96.8590491  68.9146045
   4.7890317  96.1669534  69.7304514  90.9018612  69.8266983  19.7146976
  91.2710762  69.6412086  20.5781221  90.0360394  70.1914787  19.8977804
  49.9803942 100.5471058  17.6338422  50.4378432 100.1066823  18.3500814
  50.5683153 101.2565572  17.3745048  20.7727580  54.8373604  28.3256626
  20.9031729  54.4352293  27.4668765  21.4855437  54.4914961  28.8628221
  38.3940714  17.5433682  91.1331913  38.6914461  17.9854534  90.3379789
  39.0873497  17.7080630  91.7723092  18.5642468  76.0013121  96.1023784
  18.1154858  76.8019598  95.8306941  19.2377030  76.2998384  96.7135827
 108.4642202  80.6501191  92.5648936 107.5357277  80.5926912  92.3394158
 108.6431629  81.5895646  92.6055169  58.2131499   9.9647425  90.0274595
  58.1938380  10.8798502  90.3075251  59.0255469   9.6183775  90.3966126
  86.9589710  42.4578524  34.5087433  86.5442753  42.0327902  35.2594662
  86.4997578  43.2932901  34.4227219  48.6790293   8.2571028  84.1645029
  47.8798216   8.0788420  84.6602097  48.5129278   7.8824328  83.2994798
  46.3911664  73.4488505  72.6511338  46.0203206  72.5666850  72.6732424
  45.7251679  73.9990383  73.0634215  12.2072272  22.9792094  42.6853418
  12.0066790  23.8667369  42.3881817  11.3832812  22.6570725  43.0508041
  28.3727711  10.7657193  84.5792702  27.5178831  10.3390072  84.5216980
  28.2317560  11.6358469  84.2061379  46.9943636   1.7915533  93.4434756
  47.8571432   1.3884018  93.3470315  46.4212912   1.0710810  93.7056637
  28.4372937 103.1460612  87.3878720  29.0875374 102.8303188  88.0153492
  27.6341187 102.6801341  87.6203605  99.3640995  65.0852776   2.8896552
  99.7536850  64.3541622   2.4101490  98.4896278  64.7769928   3.1273386
  93.7758446   2.1343599  25.8048797  94.2813683   2.4891013  26.5362024
  94.3472195   1.4707839  25.4183125  87.2805882  58.0137253   7.7995408
  86.8098068  58.8405132   7.9045123  86.6621494  57.3465014   8.0971611
  85.6104088  34.6458459  34.3349338  86.0346127  35.4890871  34.1760993
  86.1260509  34.0190005  33.8275790  10.1318984  55.0130844  41.8165159
  10.8349280  55.4582214  41.3433981  10.5777602  54.3389702  42.3293686
  22.3831307 102.0868343  78.4881320  22.8267800 101.2448638  78.3857110
  22.8717648 102.6853364  77.9231027  52.2565413  32.3104095  13.9996088
  52.1634150  33.0217934  13.3659744  51.7366505  32.5909233  14.7527707
  95.3224182  77.9407024  47.5417233  95.0628090  78.6298275  48.1532288
  96.2468910  77.7848864  47.7348757  75.7008982  23.0964375  13.1420207
  75.4560280  22.1726871  13.1963933  75.8362579  23.2537389  12.2075868
  78.9871407  24.2088079  13.2018065  78.3611727  23.4859014  13.1593776
  79.7833204  23.8600540  12.8009319  81.7702389  67.9083633   8.6190599
  82.5840569  67.4873400   8.3421868  81.5503502  68.5007191   7.9000330
  54.2342680  19.9792670  62.8675702  54.9174612  20.2626704  63.4751537
  54.0227621  20.7640599  62.3620036 106.1932850  34.3883634  31.4544606
 107.1456909  34.4670296  31.5089989 106.0469341  33.6826086  30.8245993
  22.3751389  79.1091483  90.4505393  21.4864098  79.3792408  90.6816920
  22.9330384  79.5443409  91.0952052  26.0204350  95.1271790  93.3528825
  25.9570633  95.9486764  92.8656897  26.3130795  95.3884786  94.2259887
  78.3245676  31.3151549  94.3160669  78.3389395  31.0441302  93.3981529
  77.4001234  31.2798117  94.5617947  99.4729805  87.8933620   6.2125629
  99.1994762  87.0775795   6.6319871  99.1645718  88.5811329   6.8025577
  59.3942547  54.7685528  21.3043070  59.5719242  54.6614933  20.3698540
  59.2676497  53.8766003  21.6277671  56.9620466  23.7531686   8.8860399
  57.5287485  23.0127215   8.6696512  56.1940527  23.3552098   9.2959720
  82.0388508  70.5467415  23.3360195  82.8516006  71.0293627  23.1851912
  81.8834114  70.6275702  24.2770481  17.2328698 102.3862355  88.5487404
  16.7203175 102.7622312  87.8330949  17.0238625 101.4523643  88.5281458
 117.2554398  18.5973120  37.2209787 116.7551327  18.2040071  36.5059686
 116.5938091  18.8543880  37.8631568 108.0804253  65.2876711  57.6575899
 107.5601768  66.0784626  57.7998114 108.0933380  64.8529053  58.5102606
  86.4311981  97.2489738  36.7319202  85.9300327  97.8171635  36.1469245
  86.2067986  97.5530148  37.6113725   5.1848368  54.3438864   3.8747236
   5.9929137  54.7654629   3.5822970   4.5418124  54.5653915   3.2011545
  82.9912663  62.0224237  26.5500450  82.8713226  62.4252748  27.4100208
  83.0632877  62.7622318  25.9469438  87.1323872  50.5722427  11.6985965
  86.3813210  51.0825920  12.0013833  86.8778706  50.2645922  10.8286512
 116.1404800  66.2810421  14.3315005 115.2921486  65.9523821  14.0339255
 116.7539597  66.0153437  13.6464620 108.9429855  26.5737963  12.3135304
 108.3391953  26.5513492  13.0559385 109.1435623  25.6540680  12.1400380
  83.8892937  39.2064667  38.3842921  84.7207928  38.7608457  38.5463405
  83.3703041  38.5725379  37.8892994 105.5576706  40.3537512  20.3097510
 105.8477592  40.4242325  21.2192082 106.0997200  39.6575069  19.9387264
  98.4342081  36.2184065  90.9927246  99.2774231  36.3433343  90.5572757
  97.8633816  36.8811875  90.6039992  22.2437893 111.0209029  90.2952668
  22.8123318 110.2530378  90.3533777  21.4057576 110.7259410  90.6515547
  79.6503448  12.6012683  10.6569922  80.1783562  13.3904040  10.5357373
  78.7796450  12.8450632  10.3428638  70.0037909  32.6608348  12.6462674
  70.4419470  33.0147552  13.4202123  69.8268318  33.4266829  12.1000099
  32.5112950  89.6691888  49.8073223  33.2142293  89.7737377  49.1660908
  32.9644333  89.5303124  50.6389549  98.7084103  76.6305161  17.1041834
  99.1520405  76.7229986  16.2610507  97.9801083  77.2501421  17.0608592
  41.5886801  12.8911923  89.7591337  41.2207716  12.2402237  90.3567341
  41.3193053  12.5968645  88.8890532 106.3927364  20.6125641  11.9056714
 105.8797359  20.8316636  12.6835275 105.7548618  20.2453923  11.2936795
   6.6614775  32.3561740  51.6616106   7.2851233  33.0693698  51.5250587
   6.7687278  31.7940211  50.8943319  86.8749809  87.5421810  26.0809302
  86.4945602  86.7566490  26.4739370  87.4727058  87.8786087  26.7485976
  95.0882721  45.3952837  13.3568823  95.3810596  44.4864416  13.2897544
  94.1902447  45.3341818  13.6825216  29.0996044  30.6683729  75.0779775
  29.8464125  31.2659262  75.1159075  28.5142821  30.9721850  75.7717541
  70.9798098  30.8133626  19.4893217  71.5247965  30.0785732  19.7709298
  71.1465979  31.4975452  20.1376343  17.1828496  83.7953156  80.1640346
  16.6245209  83.0327957  80.3159228  17.8479039  83.4864586  79.5487812
 101.7569828  38.8437200  40.2411556 101.0875607  38.1695127  40.3575373
 102.5809193  38.4006405  40.4437351  38.6656415  63.8051873  95.2231033
  38.3318650  63.6632293  94.3372845  39.5863663  63.5477197  95.1762467
 118.0025768  98.9243793  43.0140495 118.5049725  98.4336662  42.3636389
 117.1623039  99.0951920  42.5886106   5.9408812  60.7217550  38.0695820
   6.4936023  61.0956860  38.7558079   6.2143378  61.1715698  37.2701311
  87.5336361  79.8659563   5.6877470  87.9054737  80.5371284   5.1154786
  86.7177677  80.2500725   6.0087526  80.7157803  34.1731024  16.0847688
  81.1261749  33.6319637  16.7592883  81.3534737  34.8658943  15.9126878
  98.6106682  49.0656710   7.3909646  99.0925694  48.3217335   7.7522981
  97.7088356  48.9311028   7.6821864   7.2691111  52.9766417  19.3772733
   6.3598590  52.6805973  19.4202554   7.7807574  52.2218943  19.6684849
  86.0368061  74.4135380  36.2902498  86.2583733  74.2579174  35.3721428
  85.1670742  74.0278912  36.3954401  59.8678589  53.6872435   5.1206833
  59.8534870  54.5793056   4.7739068  59.8360920  53.7990761   6.0707974
 104.2071724  43.5119677  25.5091953 103.9595699  44.4364977  25.4964232
 104.6414852  43.3919716  26.3537121   4.0025191  62.9843712  28.8261414
   3.7261920  63.8713217  29.0567684   4.7813754  62.8295660  29.3606091
  29.5099991   3.6181591  81.1072960  29.5064467   3.9512013  82.0046821
  29.9663943   2.7787636  81.1651495 114.4782829  27.9984713   8.9440304
 114.2424488  27.1079922   8.6839110 114.8080158  28.4029961   8.1416172
   7.7741675  19.5127118   0.5328020   8.5815387  19.9697781   0.2972664
   7.6635794  18.8534248  -0.1522837  76.1663103  58.2079744  44.6162510
  75.9656239  58.5626936  43.7501478  75.6212473  57.4242449  44.6862698
 100.4047489  55.3096676  46.7251778  99.6716976  55.3108358  47.3406982
 100.1441765  55.9265280  46.0412121  67.7816486  25.0044203   9.0496999
  68.3158445  24.4905591   9.6553475  66.8799210  24.7637916   9.2623490
  71.8690890   3.6177443  90.9398064  71.1775988   3.1073426  91.3611933
  71.7412012   3.4669636  90.0032481   7.0121150  66.8448639   5.6750685
   7.1510367  65.9595251   5.3387630   7.7343612  66.9845009   6.2875193
 106.9403679  68.7584012  76.4400509 106.7889768  68.2708305  75.6303671
 107.3589117  69.5709150  76.1556652  96.4791012  62.8914213  43.9339876
  96.1119366  62.1792412  44.4576454  96.7323112  63.5547876  44.5759106
 110.3473186  52.0705032   4.8666942 110.3418446  52.9989958   5.0993067
 109.8247433  52.0210409   4.0662557  22.0808445  74.2792326  85.6504777
  21.5270936  74.4172352  86.4189473  22.2019040  73.3305937  85.6097355
  79.3693001 105.4166215  91.4543649  79.8686201 104.9048989  90.8179310
  78.8362271 106.0068839  90.9217676  45.5212134  14.6350573  88.6210516
  44.8469561  14.4746683  89.2812690  45.0676554  14.5289944  87.7848306
   0.7821231  41.6299772   9.1158223  -0.0643392  41.3044739   8.8095987
   0.5890136  42.4938679   9.4800138  71.1892796  50.6214190  35.5388761
  70.9352255  50.9505796  36.4010477  70.8162642  51.2515974  34.9224615
 108.5626030  23.9761972  26.8504429 109.2714214  24.1348743  26.2270403
 107.7666950  23.9995956  26.3192034  84.3706322  44.2486954  19.3139267
  84.6460056  43.9690876  18.4408724  85.0277328  43.8774395  19.9026740
  86.1844540  42.3536491  23.4051132  86.1047173  43.0510092  22.7542996
  85.8030891  42.7241135  24.2010713  64.4254893  13.3146380  93.9071396
  63.9834421  14.1546057  93.7835151  65.2608221  13.4140967  93.4504726
  52.5575387  97.2981542  73.0488518  53.1127869  97.7369731  72.4043634
  52.9649102  97.4980539  73.8916543  23.2022893 103.6106246  60.1005438
  23.5100400 104.5056623  59.9576166  23.7649285 103.0721515  59.5440128
  99.7899342  56.9990110  13.2185650 100.0380707  57.6291275  12.5420904
  99.2219257  56.3744831  12.7673912 105.0180817  82.6616764   9.7692561
 105.3457928  82.6876831  10.6682348 105.7581902  82.9517746   9.2360443
 113.4497643  76.9967890  62.2391987 112.5831032  77.3967791  62.3108721
 113.6815548  76.7647123  63.1384420  92.4306774  69.5902729   9.5047951
  92.3103428  69.2687988  10.3983307  92.6239491  68.8055277   8.9919120
  26.8889289  49.0712881  22.1962523  27.4910979  48.3347511  22.3018432
  26.0743766  48.6726856  21.8899179 106.6030121  55.5090475  22.0617318
 106.3220406  55.7696819  21.1845994 105.7879543  55.3983307  22.5512886
  73.6208200  66.1342478  25.2716017  74.4150209  65.6098366  25.3739166
  73.9199638  66.9436359  24.8573160   8.4404712  45.6998777  16.6476560
   8.0940680  46.5802956  16.7929316   7.8582053  45.3188419  15.9903800
  20.8581769 106.1350101  91.3843080  20.7769429 105.8204358  90.4839328
  20.5359112 105.4109042  91.9210026  13.7192189   4.7193389   4.7214746
  14.3783509   5.2437263   5.1762182  13.6402260   3.9242892   5.2486360
 111.9936562 105.0745964  16.2695324 111.6888618 105.5866241  15.5204284
 111.2243748 104.5785809  16.5495515  53.3870827 103.2250446  83.8823297
  54.2622029 103.5722488  83.7096014  52.7941929 103.9310687  83.6249426
  95.6983870  37.2868822  89.8400405  95.7588213  37.4837492  88.9052561
  95.6038588  38.1421564  90.2593109  66.9390028  10.9512471  88.1229994
  66.0535353  10.5880020  88.1379738  67.0107001  11.4413975  88.9420476
  75.6355971   1.5826033  93.6232737  75.3372019   0.7777546  93.1996968
  75.2614134   2.2856329  93.0922687  10.3610074 105.2109330  78.7727550
  10.3320157 104.5473712  78.0834976   9.5262658 105.1163476  79.2315438
  83.3892250  72.7927828   0.9524775  82.8179932  73.5344791   1.1519895
  82.8314400  72.0233440   1.0667602  84.1022873  49.4386816  51.0682631
  84.7098827  50.1770735  51.1110687  83.3975124  49.7413254  50.4956055
  70.9764242  99.2678452  22.0169997  70.7533360  98.3384323  22.0686173
  70.1316214  99.7140312  21.9582582  82.2449303  64.2103624  31.8987870
  82.1819878  64.6658278  31.0592532  81.5197659  63.5856819  31.8873382
 105.0300694  39.0780497  12.7280545 104.5988560  39.3042922  13.5521305
 104.3667126  38.5948563  12.2353947  10.4926335 109.9388450  67.4605444
  10.2435051 110.2079480  66.5763810  10.6180798 110.7608455  67.9346779
  85.9611433  20.0941609  87.6376584  85.8476465  20.9312676  87.1875384
  86.1647719  20.3340004  88.5416755  94.1811371  54.4945097  40.9519720
  94.9984741  54.1048813  41.2624407  94.4069576  55.4050303  40.7617331
  92.6242733  57.5987005   1.9485667  91.8866253  58.1425238   2.2248942
  93.3501816  58.2140827   1.8455859  12.3069911  63.2471848  27.4632144
  12.3216681  62.3110533  27.6623964  11.8562464  63.3057785  26.6208172
  87.8075695  50.3777361   3.3049637  88.5367393  50.3984451   2.6851887
  88.2197475  50.2211905   4.1545716  32.5066714  36.2379289  16.8497372
  32.0151000  35.9277678  17.6102567  32.2494559  35.6477880  16.1413538
  22.1825652  67.5782108  41.0185480  22.6549773  67.6308584  40.1877117
  22.5645594  68.2723236  41.5556765  35.9408986 108.5546916  95.3180995
  36.5704476 109.2574685  95.4793581  36.4605748 107.7522081  95.3648799
  80.9383028  16.9721077  79.7700885  80.8245295  16.8593643  80.7137921
  81.4106005  17.8001116  79.6830156  37.0869129  13.1125162  71.9536641
  36.9429940  13.9608334  72.3730448  37.7913731  12.7104948  72.4619415
 100.5109882  69.5613813   7.2436339 100.8783722  68.7407160   7.5719130
  99.6092510  69.5654917   7.5646842  82.9535961   6.4220816  11.1341035
  82.3298168   6.2300545  11.8342888  83.7561035   5.9721214  11.3982069
  69.6782988   3.0038927  82.0214251  69.9778002   2.6901005  81.1681583
  70.2466601   2.5618933  82.6521602  71.9228172  17.7899098  18.3388269
  72.2564697  17.4212134  17.5209200  72.6257801  18.3610678  18.6484241
   1.8769507  80.9596252  40.8843851   2.6910548  80.5403233  40.6057167
   1.6316943  80.4974937  41.6859579 109.1773319  65.3023481  16.7668569
 109.0216351  66.1167479  17.2451341 108.8894844  65.4904318  15.8735478
  88.2301521  38.7843657  12.0345128  88.3082294  38.0012989  11.4895892
  87.3841286  39.1611314  11.7925835  21.0688357  74.8740101  11.1461747
  20.3433089  75.3105307  10.6997561  20.7985835  73.9575005  11.2027669
   4.1207938  57.9794455  15.9340274   4.8997836  57.5700426  16.3105881
   3.6542277  57.2601700  15.5083704 100.8830738  61.3638067   9.5759940
 100.3599072  62.1029615   9.2658752 101.5997124  61.2961578   8.9450514
 108.5600549 111.2475198  73.8871291 108.7380058 110.7781404  73.0721167
 109.2694313 111.8865579  73.9552787  67.3050612  20.5656288  93.8606897
  66.6765993  20.1831482  94.4730483  67.6744383  21.3124798  94.3318692
   8.0280356  96.1831951  19.0472400   7.9412417  96.2507248  19.9981022
   7.1866469  96.4881706  18.7076759  81.7933178  47.6944828  15.4496276
  82.1292400  48.5886908  15.3881812  82.2847271  47.3031187  16.1718369
  46.4939421  26.0134981  83.0863908  47.1659678  25.3479670  83.2336429
  46.2914198  26.3468741  83.9605036  72.1504068  62.1688557  11.0322094
  72.6928139  61.7367649  11.6920006  72.7702808  62.6736069  10.5056977
  80.4918402   8.2770203  78.4171703  79.7806185   7.8425358  77.9464128
  80.7583826   7.6450012  79.0848020  96.1643982  89.6299553  32.5146031
  96.0069466  90.5611420  32.3586345  95.2896976  89.2478943  32.5865102
  95.8258247  55.3275204  29.3099356  95.6233120  56.0298538  28.6919141
  96.7503166  55.1326227  29.1564751  25.9935509  99.6151393  90.4517039
  26.6445576 100.0627177  90.9921631  25.2422177 100.2081245  90.4414418
  15.2296309  72.3923826  34.5012784  15.1447634  71.5274143  34.1002059
  14.6533637  72.9542303  33.9831424  52.5693053  22.6730059  87.6525381
  52.6036948  22.4650048  88.5862323  53.4810179  22.6308201  87.3640188
  65.7158297  21.5071581  88.4399220  66.4814299  21.1361454  88.8786015
  65.2848643  20.7552622  88.0335399  82.6323223  71.4232874  20.0709748
  81.9440746  71.1754799  20.6883430  83.2441139  70.6872845  20.0862288
 114.2489338  44.9589920   3.8211170 114.8563480  44.8377848   3.0913350
 114.1847038  45.9084654   3.9241162 117.8927040  64.7149801   1.8108413
 118.3677483  65.2597046   2.4384107 117.2486210  65.3056669   1.4203613
 109.3002605  33.1007743   3.9779073 109.1783714  32.9792833   4.9195096
 109.6588612  32.2671962   3.6732936  16.7540316  44.7139978  27.8286719
  17.4654345  44.2407179  28.2601190  17.1741252  45.4880667  27.4537444
  94.4801903  38.2925010  26.1204052  95.2439690  37.9410291  26.5779495
  94.5701599  37.9719901  25.2229571  39.4474667   5.0921963  93.1426358
  40.3027933   5.1955174  93.5597277  39.6290129   5.1556443  92.2049543
 107.9282093  51.4288521  70.1882935 106.9950104  51.5322447  70.3745270
 107.9625797  50.7688618  69.4958591  78.1691027  99.8681164  41.1410189
  78.5976458  99.1089821  40.7456827  78.8513517 100.5387688  41.1726904
  98.9523888  49.8110008  19.4258046  98.8699532  50.7571507  19.5451069
  98.0788994  49.5264864  19.1569233 110.4566956  39.3511724  15.2862358
 110.0933456  39.8171878  14.5332146 110.6602669  38.4776735  14.9518895
  69.2323797   7.9872416  76.2987521  70.1497858   8.2012747  76.4684132
  68.7494391   8.7653397  76.5772536  95.3273869  25.9023738  11.2100422
  96.1668682  26.0023117  11.6589415  95.0609016  26.7970610  10.9984875
  80.3458517  15.9073160  86.7583188  79.7674101  15.3710078  87.3005494
  79.8416441  16.0732792  85.9617868  75.3684568  45.2265501  41.1908627
  76.0640383  45.3718853  40.5495548  74.8784304  46.0487127  41.2031794
   6.9551234  72.3640156  18.0675399   7.8394084  72.1745825  17.7538657
   6.5655951  71.5030909  18.2202232 117.7298737  66.0127258  55.8090687
 118.2601357  66.3072491  55.0685883 117.1621418  66.7572021  56.0082340
  74.6050566  10.0824164  90.8888367  74.2233580  10.6354616  90.2071646
  73.8682001   9.8613356  91.4583954  53.9044207  24.6037577  74.6083954
  53.0472773  24.6276472  75.0338128  53.7304323  24.8654269  73.7042454
  37.5225293   6.4202170  26.9234371  38.2902466   6.5995650  26.3805962
  37.4174534   7.2077041  27.4573445  75.9386063  97.3385334  53.2257032
  75.2398062  97.8466702  53.6376524  75.8674955  96.4694691  53.6205339
  11.7951350  48.9403772  13.7591600  12.5106292  48.6094952  13.2161903
  11.3308768  48.1548357  14.0483284  93.5601044  97.1955490  25.6689239
  94.0704060  97.5496292  24.9406004  93.1793022  96.3878345  25.3242135
   0.5325656  65.9313631  31.9877005   0.0473170  66.4530373  32.6269412
   0.9877448  66.5772676  31.4474702   5.7379489  17.0509279  27.8883100
   6.2569194  16.2788033  27.6630950   5.8065848  17.1161592  28.8408136
  22.1243607  75.0413483  71.6755918  21.8099247  74.9636572  70.7748583
  21.3308655  75.0087934  72.2099355  26.1977057  47.3512030  17.3242831
  26.6937594  46.6524601  17.7507973  25.2818541  47.0940065  17.4305868
 112.6323986  43.7926245  19.9360025 113.1397533  42.9973173  20.0982237
 111.7195892  43.5108614  19.9961936  23.6101471  97.3556417  86.0343411
  24.5132577  97.2066825  86.3144162  23.2188736  97.8615611  86.7465100
   0.7791935  93.4731930  93.4174442   0.3398739  94.2731231  93.7061354
   1.7102944  93.6490339  93.5529750  53.1153345  78.2050085   2.0998760
  52.3783255  77.6005888   2.1877848  52.9854298  78.6185980   1.2464709
  77.1384478  57.7229977   5.8965456  77.2717047  56.8415546   6.2451679
  76.7296267  58.2054806   6.6150892  38.3400744  61.9266318  85.0718310
  38.7476033  61.5600775  84.2871073  37.4677532  61.5332411  85.0947299
 102.2950554  90.7832909  14.9265134 101.9774246  91.6360092  15.2235389
 102.2511101  90.8307266  13.9714992 106.5112495  37.4608278  39.5781374
 107.1106815  37.8464246  38.9392114 106.9920731  37.4894166  40.4053164
  83.5356140  44.2498446  28.8481808  83.8107014  44.8841858  28.1862354
  82.8399277  44.6949959  29.3320036 106.4417362  74.4688129  18.4003472
 105.7847118  74.0064049  18.9206612 106.2234688  75.3946829  18.5069513
  72.1013880  78.4467506  31.9240260  72.4975109  78.5447454  31.0581660
  71.1597013  78.5123539  31.7654181  86.7525309  11.4276074  71.1865404
  87.3187845  11.7745207  70.4971674  85.9180659  11.8794297  71.0610416
 105.2556229  62.1729517   0.9637482 105.8290291  61.7700863   0.3117193
 105.7470036  62.1152020   1.7831643  73.2769602   7.7302836  80.5578902
  73.6158198   8.3055208  79.8719504  72.6686972   7.1477078  80.1030817
  90.2851772  78.4382391  47.6205397  89.8141289  77.8488588  48.2095909
  90.7461357  77.8555965  47.0169926  11.5776210  83.9143658  32.8882456
  11.8266253  83.2329845  33.5127091  10.7830672  84.2993355  33.2579923
   1.7936187  81.6874981  11.9010794   1.7092948  82.3752594  12.5614595
   2.5882964  81.9150352  11.4184237 117.7673531  81.9660187  14.7454333
 117.7323341  81.1213589  15.1943803 118.0364323  81.7515373  13.8522232
  21.7082076  83.8944817  10.5283272  21.3654475  84.2178345  11.3615060
  21.8752532  82.9646969  10.6827295  17.5469451  73.8922596  41.6583920
  17.9391341  73.4712362  42.4233484  16.9389777  74.5348310  42.0240545
 104.5904732  84.2969608  25.1489878 104.7473335  84.9983311  25.7812071
 104.0798855  84.7112942  24.4533849  55.0633192  91.9710922  57.9218197
  55.9348679  91.5860748  57.8301716  54.5221615  91.2599087  58.2647514
  18.5243845  50.6283998  62.0191050  18.4403181  51.0287762  61.1537313
  19.3935001  50.2273464  62.0140457 113.6726726  57.7978761  24.9926827
 112.7646912  57.7007157  24.7056934 114.1839517  57.7680547  24.1840145
   3.8816988  96.4859867  83.1931686   3.5521227  95.7523918  83.7122536
   4.6900773  96.1571217  82.7999783 105.7052858  76.1363745  81.7463303
 104.8833080  75.7173777  82.0013428 105.5403586  77.0730162  81.8546486
  80.5778339   3.3773429  26.9223949  80.6751565   3.3227975  27.8730652
  81.1473573   4.1021687  26.6645214  90.7738872  46.1768675  91.5806961
  91.5180297  46.5326023  91.0949707  90.5479093  45.3709650  91.1162758
   2.7108076  69.6133995  60.0365496   2.6703885  70.3377438  60.6609869
   2.3959094  69.9883604  59.2140675 105.0322290  42.2175932  79.5381355
 105.6321926  42.7805805  80.0273418 105.5918510  41.7577839  78.9123297
  45.7008863   4.1750770  88.1821442  46.3534570   3.8088470  87.5852776
  46.2096960   4.4902854  88.9291382  27.4012470  82.2213078  70.6341553
  27.8100824  82.9092121  70.1089191  27.7980161  82.3135853  71.5003490
  43.2696900  22.0844798  85.0880337  43.8184965  21.9828467  85.8656693
  42.5345579  21.4891296  85.2342129  45.1549149 101.0317230  21.3963842
  45.7724953 101.7115307  21.6659808  44.3171358 101.3083267  21.7676616
  26.0854459  97.3316860  61.5155172  26.6985083  97.9517078  61.9104290
  26.3048601  96.4902020  61.9155121  85.6878150  44.5831734   2.1665642
  86.4462460  45.1515157   2.0324108  85.5529524  44.5834405   3.1142113
  46.7872823  46.6646630   0.6481049  46.4797772  46.1790902  -0.1173332
  46.8627156  47.5690038   0.3436348 111.5551551  84.9156380  90.0496101
 111.3549180  84.1500854  89.5110321 112.4408461  84.7545815  90.3749371
  93.9851995  99.2820835  50.3852510  94.1906519  98.4472942  50.8061504
  93.1688352  99.5639038  50.7979965 100.7707656  57.6373822  15.9226009
 100.3988946  57.6168114  15.0408241 101.5158595  58.2343919  15.8544418
   1.1008122  76.3686800  93.8397789   1.5529415  77.0825672  93.3901405
   1.5611765  75.5782890  93.5576725 111.1584486 110.8815384  81.0291672
 112.0341737 111.2339497  80.8705997 111.1931218 110.5482674  81.9258022
  39.5201291  57.5417859  17.1084663  40.4524077  57.3722798  17.2439549
  39.3020142  58.2122094  17.7559158  71.1990906  80.7229764  19.5083592
  71.8865223  80.2593858  19.0300724  70.7399322  81.2285668  18.8376972
   8.6617279  33.4180832  82.0948696   8.5288227  32.5983143  82.5708389
   8.1844139  33.2984328  81.2738419  81.4437429  32.4713761   5.7648441
  81.5079827  32.6640755   6.7002461  80.8625985  31.7123467   5.7160255
  17.9774213  73.1520033  89.0062237  18.8915348  72.8696394  89.0361881
  17.5742078  72.7396631  89.7701836  50.5239857  32.1939141   1.2761185
  49.7284330  32.2887189   0.7523415  50.2077521  32.0196015   2.1625874
 111.7340673  28.4089810  20.4597542 111.4009870  28.0797345  21.2945530
 112.2745288  27.6959569  20.1195499  97.6409168  55.6531048  60.1261330
  97.3019142  54.7753811  60.3019524  97.1873708  56.2152863  60.7542038
 107.5722249  74.8684645  83.1355286 106.8581732  75.0873709  82.5368214
 108.1026657  75.6641817  83.1767559  66.6654159  26.3632638   2.1293423
  66.4498032  27.2957665   2.1422836  65.8549429  25.9338147   1.8555996
  19.7335494  64.4471693  80.1280975  20.1198888  63.5726738  80.1752567
  19.8487890  64.7110128  79.2152214  39.3065143  99.4290543  85.4966164
  39.1072774  99.6115303  84.5783329  38.4523177  99.2797852  85.9019470
 117.3217929  42.9512364  16.8540356 117.4469102  42.2436101  17.4863598
 116.8744219  43.6379678  17.3484966  62.9210711  37.2123200  15.9827778
  63.3762539  36.3895280  16.1618111  62.8707922  37.2553593  15.0278732
 109.4580765  84.4110394  68.0188036 110.2692397  84.8838043  68.2051992
 109.7271366  83.4959030  67.9390144   8.9739811  74.6936321  74.6578121
   8.3214337  74.0028906  74.7730684   9.1464257  74.7055387  73.7163448
  30.7794649  97.1683218  38.0476067  30.1504416  97.1104099  37.3284313
  31.2831110  96.3562872  37.9912636  55.4700953  11.3025336  58.2687998
  55.9980017  10.6195312  57.8552008  56.0543007  12.0590835  58.3194447
   4.2060649  86.6000366  94.3789959   5.0711894  86.1904144  94.3797588
   4.3829539  87.5335312  94.4953156  89.6710695   8.3201224   0.3308460
  90.6228221   8.3124692   0.4325268  89.5285953   8.1609589  -0.6022194
  34.1314793  75.3211737  72.7526903  33.7470698  74.4579124  72.6002312
  33.4173250  75.8391809  73.1240225  42.6422346   9.5251327  72.5734234
  42.9460460  10.2395206  73.1333971  41.9959665   9.0615611  73.1060362
  76.1538363  27.6049191   6.5090344  76.1477930  28.1749303   5.7400868
  76.4733299  28.1627805   7.2182152 107.0891936  69.8218584  86.0673237
 107.5148101  69.2404127  86.6974068 107.1215101  70.6855631  86.4786720
  34.2261518  19.6108920  12.0918533  33.9308179  19.0589816  12.8160069
  34.4959987  18.9918191  11.4134953  32.6916999  10.8701758  65.9666920
  32.7220363  10.4094272  66.8051529  33.5840464  10.8068709  65.6261873
  63.7626065  19.4416291   3.4447643  64.3822421  18.9642960   2.8930065
  62.9200161  19.0182931   3.2802650  97.9188104  66.3368320  59.5487213
  98.2555552  66.0053349  58.7162876  97.2724743  65.6858015  59.8219299
 107.5918449  39.0361649  25.1089260 106.9458092  39.2458398  25.7833931
 108.4373082  39.1616208  25.5398342  64.5949895   3.3571677  96.3029099
  65.3264696   3.3022647  96.9178581  64.1971761   2.4868446  96.3255978
  62.0987094  36.4054257   9.4993469  62.9961134  36.7198045   9.6091911
  61.6460992  37.1230275   9.0561459  82.3195787  77.6087284  70.1905680
  82.1293802  77.8769302  71.0895252  83.2749934  77.6220703  70.1337004
  78.4481449  70.0137520  46.5771103  78.9969321  69.2755032  46.8417883
  78.6793609  70.7146883  47.1865845   0.5974642  80.4282379  81.1083412
  -0.1014089  79.7744989  81.0873318   1.3921601  79.9237728  81.2821484
 102.0575161  95.7953262  78.2013035 101.9529910  96.3699055  78.9596987
 101.8181856  96.3412857  77.4523878 112.0938928 102.4987316  94.0122223
 111.8091030 101.6731167  94.4040012 113.0328049 102.5388336  94.1940689
  50.4515845   3.1972938  59.0081930  50.4245025   4.1507869  58.9285326
  51.3378507   3.0077510  59.3161535  29.3294859 105.4788971  68.2002401
  29.5179152 105.7555485  67.3034716  29.8437691 106.0727310  68.7471485
  91.7354913  84.8653984  88.1547832  92.0719810  84.0568829  88.5411930
  91.5142317  85.4158783  88.9059448   3.8745448  92.9891014  65.8180618
   4.5891052  93.4321499  66.2756062   4.3122935  92.4082851  65.1957655
  51.3619150  19.1140467   7.0545837  51.7592038  18.2939154   6.7617104
  51.7839755  19.7882134   6.5220520 109.4095631  71.2775278  82.1933270
 109.3940772  71.7481756  83.0266857 109.1690917  70.3794241  82.4209690
  74.8947344  78.1966454   5.1325390  74.6353052  79.0337998   4.7477219
  74.3268580  77.5524480   4.7097370   9.7690594  90.2888870  94.0494919
   9.9335963  91.2249470  93.9357376  10.5898869  89.9421787  94.3991661
   3.1121799  70.4828835  85.0224018   3.7709746  70.4220390  85.7141495
   2.3419961  70.0460672  85.3860474  78.8191171 105.3742790  79.1348839
  78.2065339 104.6407604  79.0807486  79.6806998 104.9765396  79.0095186
 104.3595786  71.0054541  96.2420654 104.8853059  71.8007803  96.1566257
 104.9720938  70.2927589  96.0600758  54.6959914   3.2175547   4.5562336
  55.4036058   3.8602168   4.6062347  55.1372922   2.3897130   4.3660709
 112.7703477  86.2107277  75.8019543 112.5022490  85.2974129  75.7009220
 113.4197469  86.3474274  75.1121521  97.3992558  98.9701748  77.9315662
  98.1410594  98.9454746  77.3271227  97.3190375  99.8924923  78.1747246
 101.7086120  88.1450272  55.5502462 101.5153058  88.4765816  54.6733570
 101.5702243  87.2001362  55.4849386  54.4756061   4.6977859  91.9511032
  53.9902276   5.1333671  91.2504482  55.0942511   4.1272407  91.4950562
  65.3872878  13.7510352  76.6654873  64.4876677  13.7140422  76.9903708
  65.9056288  14.0160327  77.4253082  70.7332451  20.7535129  83.5490799
  71.3925630  20.1721435  83.9279652  70.3547699  21.2087970  84.3012142
  17.0487118  69.9430370  88.3843136  16.5026236  69.2401457  88.0322266
  16.6383612  70.1700258  89.2187691  95.9492202  92.5923920  68.6751509
  95.3086419  92.0501423  68.2148838  95.8409639  93.4647083  68.2962227
 111.8733175  95.2799129  90.5553436 111.8698831  95.1387024  91.5020657
 111.8279238  94.3998051  90.1817417  92.5646831  70.2502019  14.3688938
  92.0019866  70.9140260  13.9702198  93.2333566  70.7517583  14.8353169
  40.3695345  94.0566826  90.6775761  40.3584290  93.4576797  91.4241028
  40.2239513  93.4941387  89.9169350  94.3782962  37.0554025   2.2423908
  94.2492116  36.1695821   2.5813362  95.0147117  37.4496991   2.8388283
  12.9860336 107.7658798   5.5990192  13.6269552 107.3052837   6.1405918
  13.4213120 107.8752042   4.7535488   8.7262726 100.3509140  61.2826872
   8.3138543 100.6970596  60.4912806   8.1002569  99.7090435  61.6178656
  90.8667446  48.9985806   8.0499241  90.6061245  49.4283349   8.8645527
  90.5887509  48.0891949   8.1593010   8.0540323 106.4502716  65.4110241
   7.6317430 105.9414864  64.7188950   8.1316286 105.8394718  66.1439180
   6.8952382  92.9619026  57.3096371   7.7307773  93.4283638  57.3323917
   6.7897791  92.6160812  58.1959343 109.4500102  71.3431031  16.2065861
 108.7386645  71.3634450  16.8467495 109.4309104  72.2093255  15.7997200
 109.8832412 110.4136562  76.6168737 108.9715446 110.6867504  76.7191505
 110.3071226 111.1526680  76.1805058 106.2618721  48.2597501   7.6888248
 106.9118775  47.6713998   8.0729839 105.5319251  47.6878983   7.4513313
  81.9669006  27.0589978  13.4188149  82.5559623  26.3962228  13.7793228
  82.5470949  27.7631909  13.1294891 106.6282518  65.0931406  52.0048666
 105.7499464  65.3208065  51.6999388 107.1588905  65.8640099  51.8038177
  57.6084078  51.0421140  30.7203648  57.9548300  51.7815930  30.2209732
  57.4194420  51.4050156  31.5857193  12.4163687  83.3070469  67.4744320
  12.6612258  84.0122223  68.0736065  12.3929632  83.7225056  66.6124105
  81.2734695  79.3681860  54.7446585  81.1965294  79.0142298  53.8586426
  80.9553404  78.6656857  55.3116798  60.9969474  23.8625056  10.6544849
  60.4192043  24.5269734  10.2790806  61.6542746  23.7059743   9.9765083
  72.8432651  75.5663300  86.7169094  72.7977176  75.2614880  85.8106899
  71.9782491  75.3731251  87.0783710 113.2416512  84.2230320  81.9377136
 114.1172321  84.6027946  81.8644333 113.1808169  83.6170864  81.1992264
 106.6878219  90.9403610  93.4037876 106.5902646  90.4170418  94.1993141
 107.5145371  91.4075279  93.5243034 103.2618137  85.4096794  62.3730421
 102.4692519  85.9278011  62.5131321 103.0724128  84.8884010  61.5928936
  20.0871754  76.5375757  80.7968712  19.9123335  77.1827173  81.4820385
  19.5737755  76.8390703  80.0473690  71.6962887  50.0625855   3.9100620
  72.1745528  50.4781110   3.1925461  71.3946790  49.2300946   3.5464451
 110.0326742  96.9851398  89.2835617 110.5908562  96.3986492  89.7941399
 109.3758114  96.4096928  88.8916302 106.2759919  87.4289894  53.8415480
 105.7161732  86.8474388  53.3271170 106.7156871  86.8495464  54.4637585
 103.3232279  79.1465044  91.6492367 103.2639916  78.5590172  90.8958530
 102.5730915  79.7335291  91.5547562   9.0392858 106.4207554  96.1456490
   8.1844586 106.2472630  95.7514381   9.6701306 106.1177063  95.4926395
  13.6139607  81.1102486  74.1258240  12.7118111  80.8105183  74.0139532
  13.8392544  81.5104771  73.2860041  45.5680323  93.9275719  10.7641193
  45.8575875  93.6501791  11.6332790  46.3722998  93.9737703  10.2471516
  36.2075460  24.6864753  95.6927109  35.3738332  24.9257236  96.0975742
  36.1106101  23.7595039  95.4746151   0.2565449  54.5132214   3.0776379
  -0.0933058  53.8848454   2.4460003   0.2422517  54.0462548   3.9130852
  61.8125654  91.5176446  10.0269577  62.4402524  90.8465630  10.2950737
  61.3436748  91.7418439  10.8307621  13.2157338  87.7028561  74.5193148
  13.9363265  87.4442291  75.0938511  12.4327755  87.6156044  75.0630045
   7.0841974  80.4084110  84.8533726   6.5207082  80.4014397  85.6271076
   7.9443723  80.1459312  85.1811504 112.2341360  79.5072699  77.6131439
 112.1812041  78.8853121  78.3388186 113.1716408  79.6634436  77.4994564
 112.2485913  26.0300595   1.6270229 111.3967694  26.4584023   1.5424416
 112.3953498  25.6185014   0.7753727  45.7722855  81.1460400  76.6298151
  45.2636290  80.5668068  76.0623741  45.1498699  81.4344406  77.2973871
  58.0797518  45.6243665   9.2303345  58.6726607  45.3305108   9.9219582
  58.1878890  44.9788434   8.5318825  38.8379265   8.9792590  76.6707611
  37.9430357   8.6725574  76.5247059  39.3091582   8.2051234  76.9788027
  91.7404188  40.8766324  21.5362713  91.8093492  41.0610349  22.4730084
  91.9648100  39.9494416  21.4575455  14.3730896  36.7678696   4.2115662
  13.8018769  37.0330579   3.4907124  13.8716667  36.1018616   4.6819279
  39.1369248  14.9847846  82.1059132  39.2583154  14.6605830  81.2135124
  39.7025729  14.4287734  82.6417542  48.4513873  21.0531764  93.1918430
  48.2477218  20.5593925  93.9861584  47.8611941  20.6946330  92.5290012
 110.6972231 103.5590267  84.0892315 111.4061136 104.0669155  83.6945820
 110.7598813 102.6983452  83.6750507  43.2929573  19.7372966  68.1933117
  44.1326523  19.5024352  68.5882616  42.8482587  20.2537685  68.8654280
  53.6926538  10.1433997  67.2438335  53.9321489  11.0441833  67.4616671
  54.3362076   9.6060805  67.7057457  37.1592617 109.3977547  92.8967094
  36.6620803 108.6388779  93.2019138  37.8917503 109.4662476  93.5090828
 108.9030493  29.0491254   7.8381989 108.7855566  29.0622384   6.8883202
 108.6618556  29.9310357   8.1215641   7.8518510  71.6723776  86.9458294
   7.4937332  71.0534000  87.5821114   7.3728800  72.4853420  87.1067905
  78.4641785  32.3314149   1.7143604  79.0997337  31.7617184   1.2810585
  78.8687218  32.5458009   2.5549576  21.7853403 111.1919022  87.4730206
  21.7375350 111.4229298  88.4006882  22.6830697 110.8838367  87.3488712
  40.3251910  18.5808139  81.8162441  41.0876975  18.0550723  81.5745735
  40.6685392  19.4686465  81.9167709 117.1811911 108.6772346  65.4561567
 117.5998960 109.3344593  64.9002981 117.5721703 107.8475952  65.1821804
   2.4047392  38.0754811   6.5429947   2.1059244  38.4248978   7.3825523
   2.8653639  38.8058240   6.1299011  16.2700081 100.7746983  85.1922989
  16.1922574 100.0570869  85.8209610  16.6799033 100.3768826  84.4242096
  63.8683516  14.0807586  80.1547337  64.1880829  13.1894355  80.0148964
  64.6549994  14.5892100  80.3519344   6.2164140 104.1452885  87.0104885
   6.5656829 103.7161064  86.2294292   6.9850773 104.3125153  87.5558567
   1.7672777  99.9583054  78.8014650   0.9406091  99.4977570  78.9455080
   2.4391985  99.3394947  79.0875196  15.9755200  72.2841317  15.2149174
  16.1579626  71.7745168  14.4254562  15.1840513  72.7789933  15.0029633
 100.9524532 109.7241402  73.1843615 100.5455930 109.7895527  72.3204041
 101.4612193 110.5302715  73.2711649  99.9427260  38.5331971   4.5510361
 100.7013048  38.4331281   3.9759037  99.4097937  39.2073399   4.1294357
  29.4712925  18.8018375  69.7770500  30.1212502  19.3982368  69.4054270
  29.5600427  17.9998450  69.2621136  83.2369453  11.5357261  76.1404610
  82.3278934  11.5889316  76.4354563  83.7508136  11.5291743  76.9480085
 101.8289555  67.0436913   7.1896622 101.6301645  66.3119847   6.6054413
 102.6877440  67.3534257   6.9019386  91.7846490  33.9861638  44.5265934
  91.1792553  34.2003590  43.8167641  92.5184298  34.5887906  44.4055912
  97.6058472  19.6032721   2.8046295  96.9962264  19.5391089   2.0694611
  98.2751263  18.9446122   2.6189777  78.0474641  93.4430844  15.5466625
  77.9259101  94.0611703  14.8259422  78.0410565  93.9882809  16.3333962
   7.1647995  48.2089097  16.9564602   7.6487892  49.0230996  16.8183491
   6.6183727  48.3821828  17.7230331  24.3499303 110.4554749  87.6128960
  24.9892163 110.8286285  87.0060158  24.7188568 110.6202888  88.4806347
  30.0232911  79.2823315  68.2037163  30.1642466  78.9884281  69.1037083
  30.8171558  79.0185356  67.7385044  72.0193113  51.7856366  14.6440956
  71.5074463  51.9811017  13.8592217  71.3654597  51.6664845  15.3329441
  30.5542535   9.4213157  88.2693005  30.8972574   9.3503909  89.1601181
  30.9326989  10.2327590  87.9308319  69.6897132  66.6508824   3.7062714
  69.0616460  67.0041043   3.0761978  70.3958131  66.2950475   3.1667969
  20.4822939  86.5667588  21.8624565  21.4394110  86.5575940  21.8540070
  20.2479428  86.2905270  22.7484676 114.2162628  93.3998966  95.6525040
 115.0141357  93.7624645  96.0374451 114.5029388  92.5951862  95.2206612
  55.1714815  61.8210561  19.4330284  54.4343031  61.2522656  19.6549961
  54.8911632  62.2779328  18.6399815  44.9415779 107.7715778  41.3206053
  45.4095364 107.3672199  42.0511818  44.2121124 107.1771908  41.1450624
  14.6392107  92.5411987  54.3602324  14.0100133  91.8575954  54.5905018
  15.3260732  92.0816803  53.8772297  61.7869932  33.2172542  85.0423717
  62.2101814  32.4790244  84.6040249  62.5000245  33.6678558  85.4948997
  35.1942039 103.1104469  69.7687435  34.4147825 102.5606728  69.8492908
  35.2661657 103.5496044  70.6162071  79.2833978  23.9975600  84.9005508
  79.1879255  23.9062648  83.9525032  79.1732699  24.9343829  85.0632477
  26.0044098 101.7403793  87.4092293  25.2840424 101.5911293  88.0216217
  25.5920839 102.1533108  86.6504669  17.4443119  24.0999181   2.0631191
  16.6072100  24.3197018   2.4719975  17.3602455  24.4124848   1.1623070
  41.3592405  14.5115047  86.9628525  41.3462933  15.1985507  87.6292133
  40.4584783  14.4726424  86.6413689  70.2481336  13.2936723   0.9268448
  70.9877873  13.7347466   1.3446972  69.4748271  13.7078196   1.3098690
  99.9471648 104.3141651  69.7712660 100.2414603 105.1561737  70.1186037
  99.1777976 104.5284367  69.2436409  18.4179020  95.9130573  96.0432529
  18.0850136  96.3396835  96.8328094  18.1991899  94.9885464  96.1602211
   8.7720037  86.0493088  70.9821606   9.1405696  86.2758160  71.8360233
   8.9542806  86.8116379  70.4327536  83.5391823  77.9463155  28.8254807
  83.5625685  78.8923795  28.9691708  83.6773238  77.5686318  29.6940968
 100.9026153 105.4230022  81.9176960 100.2226658 105.9652710  82.3174953
 101.3699038 105.0391197  82.6596546  13.7271416  91.0311508  71.5332747
  13.4952366  91.4974785  72.3363876  13.8198006  90.1179600  71.8048096
 102.6836503  56.7036111   0.1761887 101.8149174  56.4263493  -0.1147774
 102.7598775  56.3582093   1.0656426  64.6889455   9.2070537  92.3206615
  65.0973899   8.3426242  92.2742081  65.0061375   9.5778899  93.1441307
  48.3662558  30.0585513  90.0003719  48.9428705  30.6690745  90.4597187
  48.6516697  29.1931110  90.2932644  52.9489149  14.9478823   1.0137150
  53.2689656  14.1956860   1.5117046  52.0105947  14.7872645   0.9137795
   3.6840731  78.4803534  72.8560877   2.9442477  78.7595701  73.3954620
   4.4511220  78.8547277  73.2893467  89.7642995  44.7109944  18.1280396
  90.4698611  44.2111928  17.7174160  89.1823412  44.9427754  17.4042770
  93.9686270  84.6969223  83.9359188  93.7192722  83.7811184  84.0598297
  93.2927771  85.0532627  83.3593082  19.8132312  62.0443392  44.2433262
  20.2349782  61.8056583  45.0687933  20.5352926  62.1259308  43.6202669
  42.4594206   4.8557048  68.0909348  41.9727049   4.4961696  67.3492670
  42.9675568   5.5758243  67.7174950  81.2522489  14.1085868  76.5097094
  80.7236749  13.6299567  75.8711529  81.8055469  14.6828704  75.9802818
 108.9431489  85.9144265  30.4525444 108.0732978  86.2969262  30.3372833
 109.2592538  85.7653958  29.5614216 104.3930710  42.0315224  11.9033501
 105.0155176  42.0043713  12.6300213 104.9119461  41.7949540  11.1345646
  14.4919825  92.0806885  68.9394236  15.1669884  91.4127922  68.8189316
  14.1477180  91.9176006  69.8175526  91.7953712  13.7799888  93.3220482
  91.2586624  13.8095241  94.1140747  92.5884849  13.3143859  93.5873985
  74.3931899  77.2210271  16.2154457  74.9329818  76.9856030  16.9700501
  73.6618222  77.7132375  16.5883514  52.9327566   5.7370238  61.0627079
  52.5263733   4.9421077  61.4079380  53.0148441   6.3134246  61.8224812
  42.7401636  23.9973598  48.1211948  42.5767866  24.0030627  49.0643311
  43.5513431  23.4990554  48.0216455  47.9635185  25.8808570  87.3174858
  48.5400421  26.6381888  87.2159958  48.5461075  25.1707225  87.5868130
  90.3875483  38.2178265  17.6333592  89.7011221  38.8756520  17.5223801
  91.1940087  38.7257821  17.7219078   6.8380886  89.1247272  96.0100937
   6.5267020  88.2384491  96.1938953   7.7100217  88.9993858  95.6355858
   9.1527522 100.0494957  55.0601625   8.7214887 100.8874989  54.8928118
   9.3416822 100.0605297  55.9984684   7.3311830 108.4915829  92.1370697
   6.3942975 108.5866642  92.3086452   7.5291014 109.1787434  91.5007877
  82.8119117  12.6439242  88.2951927  82.7198965  11.7850070  87.8828621
  83.5964853  12.5662189  88.8379955  22.3169374  90.2496910  74.4906902
  22.8378606  89.4645786  74.6594143  22.8289509  90.9632397  74.8713827
  27.3070025  95.9876919  88.6503983  27.0003605  96.0652161  87.7469635
  27.6791000  96.8463612  88.8515568  23.2121086  95.3239155  88.9009190
  23.9379859  95.1102638  88.3146763  23.3438063  96.2466431  89.1187763
  75.5229629  49.5541341  28.3255932  74.9033419  50.2828938  28.2907745
  76.3825698  49.9726350  28.3720848 114.8429666  81.4614582  64.4489288
 115.6022088  81.3764381  65.0256062 115.2085282  81.4267635  63.5649681
  43.2954788  76.4110804  89.7800159  42.6533175  76.7401743  89.1510868
  42.8280258  75.7320976  90.2665424  32.5867486 106.2578773  75.1378632
  32.9408312 107.0990562  75.4264545  33.2060552 105.9519863  74.4752026
  35.0904322  93.4580517  85.5797958  35.5730271  92.9273605  84.9459934
  35.6514168  94.2185783  85.7318687 100.8330334  54.7999150  15.9891007
 100.9553159  55.6646306  15.5972454 101.7215837  54.4740063  16.1322567
 101.2915195  40.7061822  18.7116787 101.0749448  39.7744138  18.6778042
 101.1199130  41.0243375  17.8253529  96.7171890   4.1460757  56.4412212
  97.1619493   4.0941005  55.5952215  95.8822710   4.5720725  56.2471104
  39.1032842   1.2894492  94.9368382  38.7871040   2.0834308  95.3679466
  38.3479285   0.9667544  94.4453716  33.4624195  96.9461536  96.2787056
  33.7539935  97.7976704  96.6045094  34.2536354  96.4074612  96.2748623
  86.5354330  15.2985911  94.5936298  86.5382272  14.4638591  94.1251850
  85.7216436  15.7230144  94.3218899  78.6619097   6.0132556  96.3408184
  77.8607661   5.5255370  96.1496735  78.3766133   6.9241958  96.4116859
  27.0859885  96.7277241  95.5989647  26.2178445  97.0076370  95.3087807
  27.3089647  97.3332024  96.3059998  11.0962617  84.5087910  79.4016171
  10.7065451  84.9336052  78.6374950  11.3281262  85.2313137  79.9850798
  55.8382482   1.4878421  82.2880936  54.9904103   1.4116721  82.7258110
  56.3279874   2.1135573  82.8218174  60.0749547   1.2989955  93.5197353
  59.5635182   2.0096927  93.1329823  59.5621568   0.5105643  93.3418274
  25.5266673  17.1873336  63.2705259  25.7793791  16.3603931  62.8599930
  24.7104830  17.4317412  62.8342438  89.1523028  65.3825433  14.8722908
  89.9568118  65.8690793  15.0519630  89.3201841  64.5059735  15.2182457
  21.1882591 104.5016861  67.3136473  21.8840241 103.9922905  66.8981266
  20.4670453 103.8811302  67.4185133 117.3938214  37.4904609  67.3473644
 117.1766407  36.5598893  67.2916603 117.5726693  37.7491999  66.4433193
 100.5879946  38.4229112  22.1626806 100.9372099  37.7150536  21.6211843
  99.6447761  38.4054422  22.0006108  87.1304698  11.8797213  10.1087544
  87.4171103  12.3866803   9.3491051  86.4430756  11.3068396   9.7688553
  40.4616440  11.2613065  24.1669628  40.3214086  10.3193671  24.2634747
  41.3637889  11.3999326  24.4553158 108.0453284  44.2579317  65.2353144
 108.5306539  44.0875435  66.0425663 107.1314974  44.0897274  65.4652071
   1.5116651  49.6715879  54.0201378   2.2483076  49.0916586  54.2132044
   1.6829646  50.4573345  54.5392609  64.7285009  30.1088387  29.7559807
  64.4155122  29.3788773  30.2902386  65.6818534  30.0242001  29.7697327
 112.2887291  92.5232983  70.0045681 112.2514875  92.6213360  69.0531301
 112.1232690  93.4033775  70.3426838 103.8891740  60.9936142  89.7776222
 103.0145092  61.2271976  90.0884724 103.9374132  61.3650370  88.8967419
  11.3812542  99.5253181  91.3379288  11.4282751 100.4199409  91.0007858
  11.7844582  99.5744896  92.2046661 108.9443184  63.5470819  93.6146259
 109.7792925  63.0844402  93.5438156 108.7657310  63.8562584  92.7265167
  94.7564264  63.1169367  34.5947146  94.9415012  64.0556574  34.5667100
  95.3935213  62.7292013  33.9947128  62.3286296  45.6448037   9.7152874
  61.4081980  45.6972844   9.9727413  62.7348543  46.4107186  10.1209805
 107.2542937  78.6834288  39.1894293 106.3429482  78.9727163  39.2340755
 107.2256143  77.8809977  38.6683607 115.9737435  60.9531879  90.8235073
 116.9112080  61.1439276  90.8552933 115.8837674  60.3107452  90.1196575
 112.3859604  77.7202702  80.1244640 112.7913441  77.2462416  80.8505440
 113.1034984  78.2188797  79.7336197  15.1076865  60.5856133  80.2113914
  14.6823549  60.4131889  81.0513878  14.4943881  60.2479982  79.5586205
  89.1442223  76.2839365  49.4883251  88.6469884  75.8283758  50.1676273
  89.2446394  75.6367159  48.7902880  30.6788182  46.3274622  47.3541355
  29.7892904  46.4267492  47.0148563  30.6593251  46.7603207  48.2076502
  61.0677684  10.1625258  21.3740227  61.0758091  11.0864121  21.6242191
  60.6176580   9.7229344  22.0954010   6.3425452  71.2889624  79.2691708
   6.9736964  70.8967209  79.8725128   5.5110276  70.8664608  79.4843483
  96.3022800  68.8744164  59.3744230  96.1822863  69.3761730  58.5681534
  96.8637057  68.1422424  59.1195679   7.2625196  97.7375031  65.1323509
   6.4818013  98.2011509  64.8294640   7.7439243  98.3877850  65.6438351
  17.4919593  67.3753023  64.2229557  17.4152720  66.6569471  63.5950089
  17.6059842  68.1560183  63.6810064 112.1594836  82.5775433  88.3869267
 111.4254256  82.0845604  88.0203629 112.5011010  82.0163250  89.0830326
  68.9743800  40.3589296  93.3308697  68.2021804  40.4113674  92.7676773
  69.7016187  40.6179285  92.7649403 104.5778234  70.0577593  73.5937309
 105.3969963  70.4872799  73.8401031 104.2490919  69.6823931  74.4105959
 109.0885676  12.1519048  23.5744450 108.8203252  12.6792104  24.3269226
 109.6812809  12.7203471  23.0827210 106.6201420  73.0908060  85.0227833
 107.1065779  73.1033993  85.8470726 107.1869834  73.5500956  84.4031239
  68.8378597  10.3868062  36.5934155  67.9553152  10.4103095  36.9632694
  68.7130905  10.5774266  35.6637260  45.8209879  15.3687434  79.7070885
  45.4377699  16.1562400  79.3207932  45.1269883  15.0117641  80.2613068
 109.0435357  90.6660748  54.3815470 109.7637148  90.7164288  55.0100708
 108.2730313  90.4717827  54.9152231  -0.0187823  21.7969036  69.3384838
  -0.3876872  21.0596180  68.8521194   0.7112429  21.4190578  69.8289204
  23.8696832 102.3898699   5.2620003  24.0201718 103.1569864   4.7096321
  23.5310835 102.7482130   6.0824654   3.0971274  73.8052034  59.3600273
   3.6274859  73.0130863  59.4466305   3.5550243  74.4589758  59.8883677
 109.3146289  33.4067971  12.1535942 109.6218074  32.5460297  11.8690846
 110.0283659  33.7501866  12.6910851   2.9629719  47.7908707  68.6054182
   3.3752388  47.7893925  69.4692850   2.4121013  47.0080805  68.6015844
   4.9192223  23.5040736  92.6359177   5.2337670  22.8639960  93.2743454
   5.5747950  24.2013311  92.6528835  91.8498791  47.7513081  21.8526909
  92.3026265  47.3017270  21.1391613  91.1099280  48.1871278  21.4298794
 116.5113287  50.4047918  63.6674643 115.9923737  49.6231031  63.8568878
 117.3089863  50.2938938  64.1848373 115.7301982  60.8406639  19.2016923
 115.4653053  61.6788912  19.5804250 114.9146365  60.4527378  18.8845098
  14.0693367  95.0278378  72.3233700  14.3009114  95.3404331  71.4487886
  13.9596093  95.8252048  72.8414440  40.3108854 103.7161686  22.2259399
  39.5871549 103.1258012  22.4355003  40.2309331 103.8682701  21.2842915
  27.0652127  83.9988804  94.4929981  26.4681053  83.2842827  94.2715454
  26.8943620  84.1757965  95.4180527 107.9743250  91.1667919  79.2268467
 108.8938947  90.9327412  79.1009665 107.8622051  91.9749928  78.7263775
   4.2897648  61.6362286  34.0053010   3.8117319  60.9019136  34.3906546
   3.6065498  62.2357225  33.7052059  68.7066663  35.0787503   5.9410736
  68.1517781  35.8386475   6.1168263  68.3948732  34.7438199   5.1003334
   4.2888439  58.9813805  72.9720020   3.5653591  58.8966703  72.3510122
   4.9919853  59.3890238  72.4663830   2.6185852  56.4542389  50.8342600
   3.3070630  56.1505175  51.4258528   2.0938589  57.0535231  51.3650608
 117.6795337  85.2845955  93.3491230 117.1905373  85.5181122  94.1381645
 118.5815998  85.1751423  93.6500072   7.7742606  52.4835491  87.2368908
   6.9569147  52.3734856  87.7227592   7.9690963  51.6109276  86.8951225
  92.3743220  43.5285664  47.8779364  92.8868981  43.7173939  48.6639643
  92.2366257  44.3837595  47.4706125 109.5261140  63.0115223  69.5938587
 110.1929249  63.0174875  70.2805614 108.7019493  62.8761530  70.0614691
  70.4013497 101.7120554  15.1913712  71.2330777 101.4017822  15.5494091
  70.5938608 101.9092275  14.2746994 117.7062344  47.8671646  76.4813042
 118.4764157  47.3024654  76.4167738 117.9922781  48.6011362  77.0250797
 110.1298631  17.5400788  11.9845840 110.2106608  18.0817944  11.1995670
 109.1963352  17.5611646  12.1950886  43.8411665  85.6472971   5.7114479
  44.5416147  84.9955274   5.6831905  44.1369394  86.2889148   6.3572666
  68.7496515  72.5161600  58.4847498  69.5456119  72.4641705  59.0138769
  69.0255590  72.9538345  57.6794243  99.6648641  34.0405560  61.7237663
 100.2506716  33.8996363  62.4675417  98.8799210  34.4312358  62.1077776
  43.3819321   6.2877421  64.2032576  43.7737895   6.9761520  63.6658859
  44.0881181   5.6549888  64.3342447  68.9833827  45.9928757  17.6265690
  68.7290359  45.6989056  18.5012791  69.6821410  45.3928143  17.3659870
  19.9698889  67.6738262  38.7800694  19.2305970  67.9205465  39.3357754
  20.7322121  67.7315378  39.3560600 101.3243373  21.0390377  91.0270309
 101.8778320  21.7798901  90.7800293 100.7507701  21.3859224  91.7103481
  22.3412299  54.3768406  78.3870983  21.7140532  53.6787271  78.5755539
  22.9048371  54.4075918  79.1601706  60.6535984  12.9516751  21.9253132
  61.2492193  13.0909116  22.6615784  59.7791339  13.0136067  22.3096439
 103.4043081  63.0692625  61.3018847 103.7708707  62.6873922  62.0994091
 102.6946409  63.6326790  61.6103745 115.2614404  69.5490599  91.3246536
 114.5425452  69.5434952  91.9566345 114.8922093  69.9648285  90.5455303
  11.7468429  63.2310438  58.4075594  11.0934806  63.2171059  57.7081633
  12.4249673  63.8273001  58.0899858 115.1352544  47.7362251  66.7270756
 115.8720314  47.4520350  67.2680235 114.3765919  47.6823139  67.3082447
  13.2252181  76.1603069  91.0271740  13.1766379  76.9754791  91.5265369
  13.1819379  76.4371586  90.1119041  83.8112207  73.3034754  63.8372564
  83.4866972  74.1672039  63.5825253  84.4231172  73.4787893  64.5521545
  21.2768292  82.5645638  55.4817867  20.9152865  81.9502831  56.1206722
  20.5910635  82.6529694  54.8198652  14.9404055 109.3133547  11.7111561
  14.1895324 108.7574388  11.5028832  14.5577795 110.0887062  12.1218273
 108.8927092  59.9088573  57.9264736 109.7297926  59.4451475  57.9487991
 109.0884907  60.7740068  58.2862186   2.8408128  55.4067516  92.2405815
   3.6011043  55.2777863  91.6735268   3.0660635  54.9496269  93.0508518
   9.6871775  89.5842552  56.1393642  10.2383173  88.9348984  55.7025433
   9.6442485  89.2890453  57.0488882 117.5954061  22.4860096  58.8696146
 117.3345383  22.2813511  59.7675562 116.8346260  22.9294205  58.4943390
 103.1264694  90.8379459  89.0761852 102.3893543  90.2600002  88.8790035
 103.6349673  90.3620434  89.7328281  27.1381688 104.5357609  75.9773302
  26.6239071 105.0453854  75.3511858  28.0294156 104.8726845  75.8856964
 103.3338733  36.2986898  23.3745027 102.7883394  36.5372062  24.1239929
 103.3813853  35.3432298  23.4072590   3.1687382  40.7007074  52.5947905
   2.8292748  40.3321981  53.4103870   2.7684051  41.5683842  52.5391102
   5.8885276  92.1151733  28.6239386   6.1896473  91.9987965  27.7228212
   6.6876566  92.2814274  29.1239238  94.1167088  61.6759109  87.3678207
  94.0039416  60.8684063  86.8663788  93.4705515  62.2786140  86.9997692
  10.5692875  45.2107143  88.6626339  10.7243669  44.3983078  89.1444874
  11.1829078  45.1748419  87.9288673  19.1378355  85.7560253  79.4662666
  18.6684835  85.1063442  79.9895763  18.6440277  85.8064079  78.6478233
   6.0517120  32.4625731  55.0134373   6.7496496  33.0102682  54.6540689
   6.4990169  31.6719151  55.3151131  77.1532531 105.7777596  68.7810946
  77.3670049 105.8435345  69.7117996  76.2169118 105.9713554  68.7361288
  10.5678606  89.4213676  65.2576637  11.4665663  89.1656113  65.0499392
  10.6605089  90.2138519  65.7864428 112.6639713  53.6037976   2.5243542
 112.7066720  53.5131890   1.5724060 111.8155206  54.0156323   2.6879284
  16.9640148  44.0417337  30.9718323  17.0475113  44.7099113  31.6521239
  16.0422063  44.0742636  30.7160163   1.3746016  95.0941563  74.0160036
   0.8310004  94.9072933  74.7813845   0.8869193  94.7246552  73.2798862
  14.8890162  81.6147232  71.4810848  15.4648256  82.0004749  70.8208799
  14.3794322  80.9612083  71.0020494  10.1801467  85.4237843  76.7038155
  10.1818156  85.0270748  75.8326960   9.3381977  85.8757210  76.7595720
  14.9802644 110.3839542  22.0533535  15.8226425 110.0231125  22.3298046
  14.6758563 109.7858049  21.3708756   5.6630653  71.7314959  65.6906223
   5.3478247  71.1301041  66.3652945   6.3100821  71.2239599  65.2007198
 115.7819132  72.3981094  35.2885890 116.3458005  72.4656487  36.0591078
 116.2122908  71.7481947  34.7330546  28.5037804  79.4379616  77.5044155
  29.3066216  79.1164875  77.9147005  28.2359099  78.7317324  76.9164371
   5.3705233  24.4519496  69.1874886   4.6389174  25.0231647  68.9536142
   5.2173340  24.2304683  70.1060295   9.2771888  77.4999905  75.0595284
  10.1907492  77.7708149  75.1505947   9.3248004  76.5786314  74.8044443
 105.2551480  90.2853298  53.2769394 105.6947048  91.0826111  53.5725355
 105.2460797  89.7171879  54.0472364  88.6676563  14.1286332   3.1336567
  88.1804926  14.0631015   3.9549992  88.4101702  13.3502156   2.6397011
  21.1061764  85.5542469  57.6064301  21.3971829  85.8537674  56.7451334
  20.6188560  86.2956142  57.9657745 102.2745819  54.8954535  69.2082930
 101.5909953  54.8912811  68.5382748 101.8480666  54.5395994  69.9878311
   7.8641599  45.5110121  11.5488327   8.5213012  44.8231316  11.4428926
   7.7360797  45.8579111  10.6659472   2.8879333 107.1403694  80.6044388
   3.3545446 107.0055103  79.7796202   3.5416943 106.9642067  81.2810421
   0.7536511  75.0125170  59.3942547   0.3122729  74.4326210  58.7736607
   1.5936014  74.5862532  59.5645952   0.4881758  72.1630239  46.8401957
  -0.1078376  72.0553589  47.5814152  -0.0869709  72.3182535  46.0909700
   2.8973016  80.7964706  22.6733613   3.5484877  80.7494068  21.9733810
   2.3208971  80.0488853  22.5149298  31.0022402  71.9516706  91.3076305
  31.1707497  71.4940882  92.1313095  30.2531910  71.4926577  90.9275436
  12.9792643  44.9815416  70.9426260  13.3409822  44.7197580  71.7893028
  13.5562432  45.6838608  70.6424999  78.6649566   6.6573912  24.7008488
  78.0345450   7.3568541  24.5289204  79.2966952   7.0474965  25.3049728
   2.4479878  60.9681654  69.9139977   2.8156665  61.6551304  69.3580055
   1.5003435  61.0701609  69.8256779  20.3419185  93.7247944  74.6364832
  20.1173306  92.8244495  74.4016075  20.8081007  94.0626335  73.8717794
  40.4766941  47.2413158  58.1604195  39.5578933  46.9909477  58.0637407
  40.5350399  47.6011324  59.0454960 109.8297490  70.0440931  54.0473557
 109.2841335  70.7448626  53.6903429 110.4100551  69.8012161  53.3259106
 112.8425266  53.4187222  90.7083988 112.7944942  52.4853992  90.9153652
 112.0185377  53.7793732  91.0358238   1.2115490  59.0354633  92.0310974
   1.6675125  58.3976555  91.4819717   1.8344428  59.2396975  92.7286053
  16.1653721  67.1642208  23.0422449  15.2389073  67.0116568  23.2283020
  16.6071212  66.3791895  23.3659983 104.3135138  96.3174725  59.0780973
 104.7892018  96.1714268  59.8957872 104.5991130  95.6063366  58.5045576
 110.4217078  85.0473404  79.9324751 110.5724575  85.5483246  79.1309023
 109.4727732  85.0721264  80.0555134   1.7249270 100.4492092  93.4113693
   1.2801014 100.7972240  94.1841793   1.9753502  99.5593166  93.6595917
  38.9895514 111.3369991   5.6854889  39.6750234 110.6901361   5.8525917
  38.1715146 110.8640386   5.8383057 116.8715918  98.8830471  48.8283062
 117.1672240  97.9738426  48.7817192 116.6086730  99.0029526  49.7408485
  78.6130745  10.1122336  84.6567726  78.6377055  10.4452853  83.7597275
  78.7160141   9.1651588  84.5635414  14.4632971  79.7006321  79.4361591
  14.7558713  79.0153170  80.0369644  14.8515677  79.4627810  78.5941935
   1.0891094  94.4175053  86.2806606   1.0385191  95.0733376  86.9760513
   0.9459736  93.5831642  86.7274475 111.9871791  71.6886902  45.9828091
 112.0436419  71.2977409  46.8547058 111.9456579  70.9405899  45.3871155
  32.5243759 105.3312683  70.1608276  32.6755762 104.7775555  70.9268379
  33.3787012 105.7205963  69.9743319  23.8502526  81.5684509  40.1967716
  23.3154678  81.5655899  39.4029021  23.5283136  80.8240223  40.7051134
 117.7050088 106.8896198  69.4554377 117.0568477 106.7697716  70.1495218
 117.3675635 106.3762856  68.7213707  22.6729727  76.1408854  88.5371399
  23.3238053  76.7887020  88.2669830  23.1892562  75.4101753  88.8773537
  30.1547629   6.2810474  67.7319145  30.9758950   6.3674026  67.2476435
  30.3802002   5.7445865  68.4919262   0.2412075  55.8798265  91.3335133
   0.2572694  55.2473450  90.6152248   1.1202704  55.8371878  91.7098999
  29.0155911  87.5543785  50.7896519  28.2795095  86.9433498  50.8221769
  29.2769241  87.5657558  49.8688889  16.9089222  66.9148445  66.9075871
  16.9962275  66.0344267  67.2729301  17.1948624  66.8263102  65.9983921
 112.1429755  82.7532768  94.0023994 112.7082790  82.1405411  93.5320663
 111.8053819  82.2481918  94.7420883   6.6532266  94.5270348  69.2070723
   7.5619376  94.4601440  69.5003319   6.1388999  94.1967392  69.9436903
 101.9311441  14.9940879  18.0604717 101.1533488  14.5276648  17.7543518
 101.5910543  15.6619508  18.6558983   9.8992610  45.7532072  82.3757744
   9.9188799  45.4840040  81.4574146   9.7530526  44.9408293  82.8604317
  20.4628062  79.9191380  71.6598225  21.4060330  80.0700665  71.5983772
  20.3826380  79.1002083  72.1488619  16.5276313 104.8321056  63.1060934
  16.6378975 105.3900051  62.3361397  16.5186810 103.9409351  62.7568483
  27.1270466  58.8276148  68.3881044  27.3258328  58.3739090  69.2071676
  26.9982123  59.7405958  68.6451960 101.5550335  98.0656147  79.8852444
 100.6248982  98.0944824  80.1094055 101.8784495  98.9425850  80.0915432
  31.7799688   9.6066527  68.4497833  30.9321797   9.3706660  68.0732250
  31.8415016   9.0826659  69.2484570   6.9856185  92.7252293  93.1053925
   6.9475025  91.9028568  93.5937500   6.8343794  93.4025192  93.7646580
   9.4286305  55.4206133  63.2047939   8.6946446  56.0153818  63.3588886
   9.3381482  55.1610374  62.2879171 109.3114783  54.5723391  64.3108177
 110.2212091  54.5212030  64.6040869 109.2082830  55.4739523  64.0064001
 104.1969307 102.8790855  65.4165125 103.6551352 102.9926109  64.6356153
 104.1097160 103.7059307  65.8908129   6.2438917  70.2023268  69.9351645
   5.6832832  69.8651791  70.6339312   5.6747627  70.2349901  69.1662312
  49.9356461  81.3885593  87.5756836  49.5224667  81.7233753  86.7798138
  50.1949644  80.4944706  87.3529911  23.0145693 100.1874161  93.0062866
  22.4668550  99.7031403  93.6241245  23.1478667  99.5808220  92.2779274
   7.8851604 109.9632549  94.4613934   7.4706125 109.1878700  94.0830135
   7.1980494 110.6296349  94.4545269  37.3781776  97.4100590  66.5656614
  36.7543769  98.0960655  66.3279629  36.9630051  96.5978241  66.2755823
  96.5111459  30.6918008   2.6544926  95.7137717  30.4505212   2.1831009
  96.2206055  31.3308675   3.3051941  19.6479630  63.5103130  91.7829990
  19.0708745  64.1980362  92.1150208  20.3551388  63.9825344  91.3435268
  33.1165266  75.5120564  68.0157995  32.6558185  74.9583721  67.3853922
  32.6733661  75.3472614  68.8480759  15.9487307  82.4156284  41.3126850
  16.8088424  82.8190422  41.1956596  15.9482265  82.1117020  42.2203493
  86.1952830  50.6164796   9.1041920  86.3749171  50.6408173   8.1643078
  85.9565575  49.7061498   9.2789146 114.4582538  64.0169668  94.9488449
 114.3472318  63.3301449  94.2914295 115.4049404  64.1489410  94.9998188
   0.6893930  88.9343262  91.1816120   1.0552867  89.5775223  91.7887878
   0.9947848  88.0902863  91.5141010  66.0021580  36.5163762   0.3974697
  66.2408019  36.7453152  -0.5007866  66.2153185  37.2972638   0.9083626
  28.0266523  99.6863365  60.3483486  28.1616592  99.6593189  61.2955904
  28.6782146  99.0799904  59.9961567  93.8296695  86.9867039  56.1396551
  93.0880041  86.7279339  55.5926657  94.5935793  86.6143990  55.6991339
 107.5905342  57.2228432  42.7423143 108.5036249  57.0740509  42.9879904
 107.5122876  58.1745577  42.6763439  47.3930401   6.8901305  60.2465391
  47.7645433   6.0117965  60.1643372  47.0132059   6.9082790  61.1249638
 112.0041038  87.4033642  94.9233246 112.8054245  87.6229477  94.4480324
 111.6803522  88.2435894  95.2480316  59.0293724  25.3123050  72.2441769
  59.0673072  26.2586932  72.3824930  59.7385580  24.9627738  72.7837324
  44.3746421   4.7646861  86.0279846  44.6213705   4.2119079  86.7694664
  45.1965124   4.9235301  85.5637360  22.4062354  12.0132403  47.2565937
  21.4629001  12.1693664  47.2121525  22.7931506  12.8885131  47.2773552
  45.8964557  24.5131450  63.1359243  45.0185341  24.6918826  62.7989674
  45.7671708  23.8241248  63.7876654   9.4755423  91.1915302  72.2369003
  10.2282369  90.8078003  72.6868296   9.6930718  91.1254597  71.3070917
  87.0174165  84.8057652  49.8796654  86.5319772  84.7709751  49.0554237
  87.2519393  83.8950634  50.0581264  28.0104899  99.7921467  63.1800222
  27.4093676 100.1665306  63.8240051  28.5900354 100.5164433  62.9439116
  47.0043755 104.2775631  48.8953304  46.9680500 103.3934212  48.5303402
  46.2257433 104.3404961  49.4485092 117.7258448  63.2986832  55.0841665
 116.9214548  62.7966881  54.9530506 117.4312153  64.2055130  55.1683283
 110.9717311  66.9112825  41.0312033 111.6828872  67.5079823  40.7978868
 110.4682191  66.8112659  40.2233028   7.6001823  68.8326120  72.5207233
   8.3594757  69.3597174  72.2720003   7.0911181  69.4028330  73.0968618
 108.3008976  75.3138113  78.7445688 109.0911861  75.0182533  79.1965914
 108.0113025  74.5506191  78.2446671  28.6647195  11.3131194  71.8300819
  28.1810505  11.4550071  71.0163498  28.2240779  11.8710284  72.4710178
  18.0886221  40.7974052  64.7131205  17.6268411  39.9732709  64.5588684
  17.3998892  41.4159155  64.9566889  83.2284446  56.0623312  54.7460747
  83.1864448  56.7498875  55.4107046  83.6731477  55.3351116  55.1815414
  19.0374088  86.0657120  84.1142082  18.3404922  86.1098671  83.4595394
  18.7121296  86.5899754  84.8460388  38.0534506  93.2273006  79.6530581
  38.4756374  92.7721977  78.9244461  38.3108521  94.1428852  79.5449829
 117.7012619  62.1294737  76.6593218 118.0943467  63.0014992  76.6951275
 116.7655191  62.2932005  76.5418005 106.6380830 101.4023590  58.6972952
 106.5673669 101.0447598  59.5823669 106.4185090 102.3288918  58.7950706
  69.6599449  18.8649613   4.6900627  69.8205710  19.4273431   3.9323303
  70.5230529  18.5211236   4.9203941  96.3724609  87.3401737  41.4918566
  96.6042323  86.5268803  41.0434532  97.1321030  87.9085541  41.3648844
  74.4668726  45.0776154  16.5327045  74.1587977  44.1836030  16.6812489
  74.1135321  45.5780179  17.2682163  35.7746553  85.3833771  59.9954081
  34.8855472  85.4450417  60.3445768  35.8256841  86.0838413  59.3450499
  20.9239459  83.0936623  76.3789415  21.6992855  83.1546783  76.9369364
  21.1930346  82.5267220  75.6561708 103.3111615  84.8482418  50.1837206
 103.5650499  85.4673100  49.4992352 103.8968749  84.1012764  50.0603390
  35.2438807  88.8958454  66.0772800  34.8107195  88.3339977  66.7198801
  35.2517772  89.7624969  66.4835691  84.4551087  28.8716752   5.3351662
  84.7059352  28.1734902   4.7302982  84.0480829  29.5357854   4.7788212
  25.2833319  67.2406197  71.8491364  24.5656419  66.6096640  71.7939615
  25.3075671  67.4957609  72.7713871  42.1689094  10.4286723  65.6649923
  42.9550899  10.3165393  66.1993885  41.4882164   9.9486594  66.1366701
  69.5280368  32.1703870   0.8921692  69.3862207  31.8337876   1.7769405
  70.4271586  31.9186265   0.6813881  16.0236228  95.9522533  89.5558548
  15.4430020  95.6262302  90.2434731  16.1305857  96.8826103  89.7538757
  45.3758574  69.5576334  94.2316151  45.9465170  69.1434526  93.5842896
  45.2530432  70.4496193  93.9067936  11.7839801  63.6205006  38.3197975
  11.4162230  62.7990294  38.6456466  11.0561550  64.2409563  38.3589673
   9.8644572  90.3985977  41.3035488   9.2941844  89.6411705  41.1719322
   9.2749763  91.0946751  41.5937614  64.8180843  29.7905118  19.9553272
  65.2720869  29.1241795  19.4394562  64.0622426  29.3337495  20.3245232
  79.7997648  23.7875896  79.8778820  80.3904182  23.2828479  80.4369926
  79.3074376  23.1265502  79.3911886  14.8325455  72.1851587  73.3282852
  14.4969761  71.2933922  73.2367706  15.7807827  72.0951509  73.2335472
  17.2715461 100.3477955  47.3713970  17.7764404  99.8136139  47.9845524
  16.6262436 100.7952976  47.9187202 105.1727112  83.0041599  59.8334551
 105.5426212  83.2095146  58.9748335 105.8630438  83.2382107  60.4538488
  95.9210712   5.6767898  71.6215897  95.4458029   5.8814101  70.8163071
  96.5185005   4.9709659  71.3743496 108.0325909  80.9894848  80.7620430
 107.5254495  81.8011856  80.7751656 108.1942804  80.8230782  79.8333883
  38.2426715  75.5464077  88.8245201  38.8184500  75.8946562  88.1437588
  38.3700395  74.5985794  88.7841511  85.4577226  15.7569510  22.2161743
  85.9624643  16.3141448  22.8086254  86.1166734  15.2333981  21.7602131
  19.0108299  89.9976921  68.1375933  19.5781386  89.3083763  68.4829092
  19.3240130  90.7986069  68.5579300 110.3551282  72.1936750  72.6899767
 110.4369230  72.3329878  71.7465067 110.7500632  72.9724026  73.0821991
   8.5993600  66.5694666  69.5769978   7.8730482  66.8584871  70.1294184
   9.3644571  67.0231962  69.9305344  19.4418633  97.6586628  61.5372133
  19.2128646  96.7297077  61.5083122  19.8082745  97.7879238  62.4120092
   0.3027457  55.3459978  78.4340668   0.8595188  54.6896076  78.8528538
   0.8117133  55.6466675  77.6812124  22.1388960  75.8738661  76.8274879
  22.4765325  75.9822750  75.9383965  22.9121757  75.9428072  77.3874092
 111.8872965  62.3109204   9.0770599 111.8280757  61.5975434   8.4415886
 110.9858597  62.4473721   9.3686554  10.2657497  66.5761137  87.1329212
  10.2438247  67.0902061  86.3257885  11.1793852  66.6134787  87.4159431
  73.4103471   1.7967372  56.8085432  72.5832373   2.2266917  56.5911531
  73.1759674   1.1483626  57.4725533  27.6629996  64.2061615  93.0303383
  28.4150338  64.1987085  93.6224651  27.1725917  63.4157276  93.2560444
  26.5679741  64.1962528  68.1991434  26.3534117  64.1866779  69.1319370
  26.6584682  63.2726288  67.9647017  17.9223216  56.0017776  90.2018547
  17.4749398  56.5814018  90.8183956  17.4540293  55.1699257  90.2722454
 107.0440305  54.9146325   3.9675591 106.5937293  54.5106847   3.2257530
 106.5564359  55.7215077   4.1332218   9.9691391  85.8763695  64.7436619
   9.3469930  85.6749058  65.4426432   9.6720642  85.3519058  64.0000820
 103.8567031  45.2482087  15.8725616 104.2794693  46.1012799  15.9714577
 104.5363177  44.6156556  16.1054298 116.6587624  84.8194790  59.6282816
 116.7029224  85.4403305  58.9010715 115.8331324  85.0234604  60.0675535
  43.8285894   9.1165595  49.5046997  43.4845564  10.0060039  49.5869970
  43.1225583   8.5559516  49.8263597 112.5059225  99.9393940  55.4487181
 113.0271549 100.4078865  54.7967482 112.5040986 100.5156612  56.2130022
  87.8958006  24.7760064  11.1614964  87.2869528  24.1865880  11.6066048
  87.5448281  25.6513173  11.3254520  60.5665613   2.8129727  11.8383953
  60.5804897   1.9627721  11.3988564  60.0424827   2.6668937  12.6259491
  34.7407699  90.5289364  38.0453444  35.2566528  90.4130363  38.8432550
  34.9663210  91.4075756  37.7398181 114.6965809  93.5416412  50.6462431
 115.0118907  93.6222649  51.5464163 113.7428467  93.5678673  50.7232809
   5.7315731  59.8494577  65.4414415   5.0664878  59.4243145  64.9000072
   5.2320540  60.3232098  66.1064768  13.7751853  71.2169313  61.3719082
  13.5999620  71.7596197  62.1406841  12.9141283  71.0720682  60.9797001
 117.9312424  78.2593298  85.1469517 118.0472586  77.3169374  85.0258064
 117.5584912  78.3439064  86.0245228  73.1791932   0.6783347  70.9218597
  73.6990053   0.6518989  71.7251825  72.8920943  -0.2255769  70.7924891
  68.8956160  44.2142159   3.3210156  68.0933906  44.7209699   3.1950352
  69.0247906  44.2020661   4.2693874  13.8044262  87.7606392  82.5902748
  14.3366873  87.5094604  81.8354034  13.1777966  87.0440483  82.6905918
   1.6902478  74.9540424  79.7724962   1.1890449  75.4098892  80.4486847
   1.3084815  75.2546740  78.9478064 110.6930943 110.8469963  63.5828304
 111.1530663 111.2940502  64.2933226 111.3297094 110.8139896  62.8687811
  47.1774530  85.1542473  64.1815758  47.5067759  85.5581379  64.9844790
  46.3770008  85.6390858  63.9804649   4.3402165  24.7221524  10.8401081
   4.1946762  23.7975985  10.6394741   3.8847035  25.1932294  10.1423809
  89.7376109  11.4219004  24.0505764  89.0114439  10.9600980  23.6314747
  90.3813375  11.5400225  23.3520863  50.7360286   8.8606696  39.7894025
  49.9277598   8.7805514  40.2958727  51.1601621   8.0072169  39.8785901
  36.3174415 104.2632866  72.0215464  36.9163156 103.7427139  71.4862061
  36.8845248 104.8800182  72.4844646 115.9583014  76.9746923  91.1296177
 115.3014691  77.6188946  90.8654118 115.4537745  76.1859083  91.3283730
 102.4036570  80.3059292  73.5273170 102.1604486  79.9724960  74.3909740
 103.3091374  80.5988598  73.6299372 111.9131572  46.8907452  95.9559345
 112.1521766  47.1266174  96.8523026 111.3231017  46.1434698  96.0541534
  88.4991069  69.1531610  77.3317623  87.7144785  69.4067192  76.8456554
  89.1938992  69.7021246  76.9682598 101.0048456  69.8433685  76.6241932
 101.2788196  68.9272785  76.6683388 101.0061105  70.0489569  75.6893301
  11.0442746  88.5533619  76.2673473  10.6341457  89.3481064  75.9261417
  10.3602970  87.8863811  76.2078619  43.3069658  79.1552877  76.1211491
  43.7997770  78.4774160  76.5835953  42.8139782  78.6792135  75.4529095
  99.3108881  32.8384549  38.5164425 100.1155699  32.9111630  38.0031845
  99.0135134  33.7418038  38.6248657   0.2825967  66.5865898  66.6973305
   0.1881197  66.3233709  65.7818937  -0.3448140  66.0394812  67.1698332
  55.3635484   1.9460731  90.9048557  54.4372231   2.0678096  90.6966877
  55.5884940   1.1027007  90.5119896  52.5762785   0.3600795  10.5110333
  52.2922338   1.2661177  10.3900120  52.6062430  -0.0018638   9.6254131
  53.2985968   4.9969535  66.0222626  54.0820700   5.2406173  65.5292797
  53.0327541   4.1564040  65.6493711 114.5014943 100.8929253  82.4143982
 115.2962483 100.6066513  81.9642353 114.5736508 100.5154991  83.2910824
  25.9473777  77.9830551  78.3856344  26.8219590  77.9130554  78.0029583
  25.7995486  78.9245701  78.4746552  55.4361248  92.9927921  95.6565571
  54.6927214  92.4658203  95.3635025  55.5244970  93.6739445  94.9898815
   8.3411556  50.9833431  63.2129431   7.9907233  50.3461218  63.8353443
   8.5907793  51.7332506  63.7529087   1.5347624  61.6286659  66.8698835
   1.6485703  62.4052429  66.3219738   0.8515471  61.8738174  67.4938631
   8.1629485  86.7669868  79.1410303   7.8960204  86.4072227  79.9869347
   7.8003776  86.1587811  78.4969330  73.0499322  10.2446609  76.2439203
  72.8143079  11.1155849  75.9242296  72.9112512   9.6680980  75.4925442
 106.7179938  96.7287636  82.4340439 107.4518068  96.5332317  81.8513584
 105.9408696  96.6156960  81.8867493  15.9849966  86.8327141  55.8413982
  15.0473154  86.6539669  55.7704306  16.1723495  87.4224281  55.1110792
 115.7112597  72.9010201  52.2693014 114.8416553  73.2412767  52.4796486
 116.1120480  72.7252579  53.1205988  21.9140291  86.6603565  37.3917532
  21.5593338  87.1201706  36.6308331  22.2433019  85.8333492  37.0398140
   0.7573268  82.0312023  72.7052307   1.3512869  81.6334438  72.0686483
  -0.1022688  81.6697502  72.4891758  16.1072302  65.2340603  46.8148518
  15.3904283  65.4731655  46.2272692  15.9956682  64.2943335  46.9587183
  30.6523479  10.6048257   8.2675049  31.1351312  11.4164597   8.1113121
  29.7764886  10.8928401   8.5247013   9.7592813  83.5136032  68.2239676
   9.4749528  82.8430271  68.8450241  10.6408310  83.2435036  67.9667711
  20.9310317  96.3728333  28.1996369  21.3578486  97.1392441  27.8166556
  21.6509438  95.7785988  28.4114146 104.3867917  98.2955742  78.8685369
 103.5923023  98.8293839  78.8603401 105.0917299  98.9180279  79.0470076
   6.0868812  80.6822109  54.8091221   5.7573086  80.1482964  54.0862465
   6.7900020  81.2030220  54.4210386   3.1237218  97.9203224  90.6332588
   2.7383742  98.7648678  90.3998470   2.4876212  97.5230026  91.2280178
  45.1411390  82.9572010  65.1080370  45.4938078  83.8453579  65.0529480
  44.1920471  83.0731487  65.0631857  90.7707114 110.2567196  76.9399643
  91.4868136 110.7773209  77.3038340  90.5935927 109.5936298  77.6071835
 114.8067500  65.8723879  74.0996838 114.1911496  65.2475929  73.7164068
 115.4460029  66.0349894  73.4060335 108.5323484  63.1780338  51.2444830
 107.6588245  63.4178066  51.5538311 108.8820256  63.9845467  50.8656693
 115.0492425 103.3436489  63.0688429 114.4661914 102.5871086  63.1314850
 115.8924542 103.0233669  63.3892298  17.9124153  51.3418865  74.2600727
  18.6940479  51.8519926  74.0477705  18.0929148  50.4698181  73.9091492
  36.8743801  89.5653248  53.8867235  37.2942734  89.0936184  53.1674099
  36.0361338  89.1195107  54.0084791   3.3828056  87.6674557  70.6594419
   4.0744451  87.6990414  69.9984837   2.6783907  88.2032394  70.2947950
  42.3630285  82.9135036  64.0849209  41.4657164  82.6012993  63.9683247
  42.8252745  82.6112652  63.3031225 111.6184027  45.8112478  60.4079533
 110.9711225  45.1678419  60.6965446 111.3590451  46.0266638  59.5120955
  35.2586341  68.1851292  85.7469273  34.4154453  68.0560207  85.3126526
  35.1469755  67.7867270  86.6100788  27.3181009  60.9735012  75.6626511
  28.2054114  61.2546158  75.4392910  26.9753242  61.6774321  76.2133074
  70.0747843  59.5443398   3.9549515  69.7163845  60.3838212   3.6667702
  69.9540115  58.9621598   3.2048008  63.7828905   8.5720306  75.0959206
  63.7630302   9.2714648  75.7490921  63.6635429   9.0219455  74.2595196
  12.4377668  64.6434784  84.2976284  11.5617013  64.4387531  84.6244812
  12.6356983  63.9362335  83.6837387   0.6596389  61.6643238  91.0048389
   1.2478302  61.7242050  90.2520561   0.9156123  60.8537436  91.4449120
 117.6443130  28.4747672  89.6199036 118.0026254  28.0357480  88.8484669
 118.4129673  28.7959528  90.0913239  94.5992513  91.8888950  35.5854058
  93.8468213  91.2988758  35.5410767  95.3485294  91.3110542  35.7300377
  75.1754886   9.0367560  68.0152225  75.4030020   8.2092052  68.4390593
  74.4511444   8.8149696  67.4300957  38.3292580 105.8278847  73.1741238
  38.8509536 105.0326633  73.2822466  38.3368087 106.2386894  74.0386581
   8.3464110  87.5758266  76.4627647   8.0139321  88.2727242  75.8970594
   7.9371125  87.7410507  77.3121214  28.3922720  75.7657337  15.1754320
  27.9297256  75.0432301  14.7508442  29.1321802  75.9494925  14.5966399
  24.9257255  58.7417746  79.9294901  25.2206492  58.9566898  80.8143997
  25.5915308  58.1412554  79.5943594   6.4470541  68.6968994  62.1840954
   6.9221646  68.0095482  62.6510572   5.5533057  68.3623075  62.1099710
  11.2410378  77.7606487  71.1951113  10.4287434  77.8159189  71.6984558
  10.9593487  77.5266123  70.3107452  34.3421787 108.9165117   9.0680096
  34.8592845 108.1516411   9.3205998  33.5997653 108.5545685   8.5842297
   3.9615086  67.9534054  77.9018974   4.6706024  67.3406267  77.7071667
   3.9109528  68.5148668  77.1283102  85.6648857 109.6162845   8.7822697
  86.2877590 110.3381969   8.6980221  86.1841947 108.8912012   9.1298363
 114.5267697 100.2443314  85.2445507 114.7976376  99.6621895  85.9544659
 114.6166162 101.1247540  85.6092834  68.9502192  93.8263702  28.2796121
  69.8636580  93.5558796  28.3728242  68.8386202  94.5208073  28.9288712
 116.5596479 109.7896385  88.6612415 116.2446257 108.8885117  88.7316036
 115.8283934 110.2693081  88.2721233  71.9007213   5.4986388  14.5350239
  71.2680609   5.9383876  13.9670536  72.3120929   6.2076051  15.0293610
  39.8424172  83.5653305  93.5567284  40.4160500  84.1953468  93.1205463
  39.5547318  82.9789352  92.8570080  16.3544905  82.6007843  77.0669889
  15.3981173  82.6086998  77.0280170  16.6165411  81.9748783  76.3918543
  19.3743575  99.4628048  95.4678535  19.1946411  99.7767067  94.5816326
  18.5131860  99.4095421  95.8823204  81.2212153  69.7910881  76.3083220
  80.6976838  69.3709612  75.6259441  81.8815751  69.1379499  76.5397739
  37.1418587   6.2830215  91.9086266  37.9900241   5.8420520  91.8597698
  36.9857751   6.6012244  91.0194588  16.3338053  56.6950226  53.6840868
  15.7616413  56.0148764  54.0394211  16.8227601  56.2568665  52.9875422
   9.0602809  74.9298811  96.0195637  10.0147510  74.9305582  95.9473228
   8.8060820  75.8356714  95.8430481  83.2138697  50.9759766   7.1308777
  83.8752664  51.6535432   6.9905922  83.4808598  50.2581364   6.5567181
  13.3314860  83.8180828  62.5028563  13.6855638  83.6307335  61.6335106
  12.7594399  83.0747509  62.6937771 112.0520832  80.3419399  81.2443638
 112.3069651  80.9948635  80.5924702 112.6639147  79.6181154  81.1102962
  89.2338653  93.3528328  69.3638515  88.4522314  93.6560822  69.8257160
  88.9272781  92.6200581  68.8297462 105.1717551  83.9465904  83.2495403
 105.1359148  83.4482861  84.0660286 105.7154424  84.7067165  83.4565258
  29.6963453  73.8840151  65.4351807  30.3498387  74.5827770  65.4653072
  29.0405416  74.1412926  66.0832214   4.1998690  60.5708599  76.3909101
   4.5538092  61.4528370  76.2765455   3.6901614  60.4124403  75.5963421
 110.7194491  64.2732477  90.2682400 111.5135218  64.3093872  90.8015060
 110.0083120  64.1868877  90.9031105  19.6717441  91.3003349  83.1182289
  19.1088450  91.9881153  83.4736729  20.4954076  91.7448044  82.9175949
  17.0889461 109.4837379  54.2105579  17.3262608 110.4109383  54.2245817
  17.6103902 109.1137886  53.4981871  29.1841698  65.2103567  68.4297037
  28.7327814  64.9880743  67.6154137  28.7320065  64.6997118  69.1012907
  51.4479489   9.5699267  53.5465097  51.1809510   8.6693244  53.7305355
  50.6249375  10.0518947  53.4653091  30.2493930 108.4205627  77.3960781
  30.9220099 108.8434601  77.9299212  30.0629330 109.0520477  76.7013168
  36.3252640  92.3654652  83.4210587  36.0716486  92.7725315  82.5926781
  36.4668202  91.4445019  83.2019234  31.9655347  94.4188023  44.7541666
  31.4248562  94.1704273  45.5039740  31.5337324  95.1932335  44.3935680
  71.3008542  60.4625368  54.3795967  71.6407628  61.3544512  54.4516039
  70.5224033  60.4571962  54.9365711  41.1350775  99.4500828  78.3743858
  41.7423296 100.1791859  78.5004377  41.4377260  99.0220356  77.5735044
  42.4855555  24.1927153   3.0195210  42.1880687  24.4575459   2.1491215
  43.4405673  24.2327649   2.9686996  13.9272416  75.7495975  81.6297913
  13.9798284  76.4366961  82.2941494  13.6795902  74.9637842  82.1170235
  91.9086881  97.0686722  48.9530468  92.1379729  96.7610359  49.8299837
  92.5582476  96.6623783  48.3792543 113.5640289  67.9200554  68.8859034
 112.7534778  67.4193239  68.9781332 113.5352330  68.2597733  67.9914808
  57.0022667  42.4752003  25.0526592  56.1597312  42.8800542  24.8466084
  57.3428262  42.1866853  24.2059013  40.1036263  75.7610559  57.6267862
  40.5091763  75.9255075  56.7754841  39.1660476  75.8753967  57.4715281
  40.1529024  11.6812854  67.8958797  39.2594905  11.4922195  67.6090002
  40.1599785  11.4508109  68.8248873  57.1393055   2.7140288  84.5078754
  57.6274318   3.4069877  84.0631676  57.6352865   2.5483184  85.3096104
 104.7101487  62.6291615   5.5091831 104.8673833  63.3050305   6.1684963
 104.4201005  63.1122453   4.7354099   9.5157558  95.7298183  79.5736361
   9.3334299  95.6591606  80.5106544   8.6516368  95.7519341  79.1624928
  34.3841386  72.5689220  74.7346878  35.1889062  72.0975018  74.9499607
  34.3086076  73.2372856  75.4157257  20.2030641   5.7059341  65.5439901
  19.7476548   5.5246692  66.3661718  20.6595272   4.8901515  65.3381348
 109.2879672 101.6047192  61.6858244 109.9355800 101.0051632  62.0564556
 109.2176987 102.3093414  62.3298788  19.9491632  81.5460205  90.2238083
  19.9633002  82.4775028  90.0038910  19.1740584  81.4419651  90.7757282
  25.8477879  84.4112873  63.4985352  25.6620526  84.6598816  64.4040346
  26.4063072  85.1143551  63.1668901  22.0634460  92.5701332  53.5126162
  22.1409369  92.2842312  54.4228268  21.2158108  93.0129623  53.4719944
  10.2536821  99.1299057  88.5375500  10.5312169  98.2793999  88.1972027
  10.4128444  99.0743542  89.4797802 103.5206212   1.4568812   7.2172806
 104.3458260   1.2577445   7.6595661 102.9162372   0.7799584   7.5217888
  15.3674829 101.8397331  48.7746763  15.1437318 101.2567425  49.5001364
  16.0902798 102.3710632  49.1085720   8.1551856  92.4179935  79.4269609
   8.1424916  92.2988701  80.3766346   8.7268448  91.7206860  79.1057253
  21.0538387  68.0489683  22.5163078  20.1100135  68.1260824  22.3767352
  21.2028360  68.4496784  23.3727312  36.0123167  14.8221259  49.6044254
  36.0490951  15.7610183  49.4217968  35.5780524  14.7604423  50.4552126
  18.0102944  91.9339180  73.4979296  17.4965727  91.2699890  73.9578342
  17.4419343  92.7038002  73.4759903 101.8777342  81.4950180  54.7917700
 101.3161237  82.1531105  54.3822098 102.6660974  81.4816761  54.2490578
   4.6322146  79.5657444  52.9107428   5.2260762  79.1742373  52.2702122
   4.1961709  78.8188457  53.3209133  37.0465326 106.7587662  33.4393597
  37.3221827 106.0453224  32.8638220  36.2427735 106.4389801  33.8491607
  38.0162839   0.9554248  67.1964741  38.4313603   1.7851787  66.9609976
  38.4220726   0.3114276  66.6160917  70.1053656  72.2165829  19.7629807
  69.8657865  73.1311089  19.9128792  70.9164310  72.0973737  20.2571365
  64.5734007  12.0959334  62.5635195  64.7862560  12.8301768  63.1395388
  63.6805350  11.8515163  62.8070021  64.9872494  99.4670582  89.8419476
  64.2547607  98.9298820  90.1438141  65.5241966  98.8693333  89.3217087
  24.8842025 103.0062389  85.3216553  24.9906468 103.9526272  85.2254677
  25.0146914 102.6596069  84.4390106 105.1958306  71.8009233  82.5284863
 104.6168990  72.5327682  82.3152542 105.7633765  72.1385193  83.2214165
   5.1770318  53.2336664  68.9098024   4.6727559  53.9771318  68.5793495
   5.2638805  52.6494169  68.1565809  94.2693783  28.2864529  10.5711720
  93.4465242  28.0533654  11.0010693  94.1195715  29.1677529  10.2289745
  58.9707136 102.5430489  70.8530521  58.6478615 102.7006817  69.9658394
  59.6081066 103.2411289  71.0035467  35.6527185 111.3916969  86.5626812
  34.7030926 111.3395500  86.4544010  35.7992864 111.1969376  87.4883270
  42.3838234  91.4454746  91.0816002  42.2985077  91.6843605  90.1586246
  42.4902773  90.4942417  91.0739517  45.7095248   6.2482696  68.2464981
  46.4606095   6.8416457  68.2475758  46.0441328   5.4376655  68.6301661
   6.4331007  82.2587109  75.2596855   5.6257725  82.7228737  75.0383186
   6.1372209  81.4366817  75.6507730  22.4887753 102.1325779  40.9636354
  23.1757736 101.7599583  40.4109859  22.2120070 101.4071941  41.5235043
 113.4287192  83.5401917  68.5387421 114.0320904  84.0271282  67.9774332
 113.2666029  82.7243137  68.0651474  36.8057489 106.7712212  59.2961550
  37.1447325 106.1048985  58.6983776  36.5928793 107.5139332  58.7310886
  70.0588733   9.2787128  45.5664539  69.8977429  10.1183181  45.9969664
  69.5738203   9.3347221  44.7431517  13.0608177  94.9026775  60.2945185
  12.8507638  95.8066273  60.0600433  14.0159142  94.8869324  60.3559685
   4.3548906 107.6393223  56.0195303   3.4621766 107.3026562  56.0966730
   4.3993095 108.3492756  56.6600084  34.7761393  76.7260075  65.3797054
  34.2118359  75.9528399  65.3828478  35.5643106  76.4453840  64.9146557
  63.3633119   2.0992046  76.2410212  63.0024606   2.6890807  75.5791569
  62.7583200   1.3575988  76.2563038 116.9402555  92.4744987  75.8923483
 116.7482948  92.3123741  74.9687147 116.6113846  91.6979694  76.3452148
  11.9862049  52.2932870   7.8473827  12.2737568  51.8472916   7.0507404
  12.7853840  52.4017102   8.3629295  43.5442924  76.2740660  67.1193600
  44.2315054  76.1381674  67.7716637  43.5916233  77.2074413  66.9124889
  85.0950237  78.4105539  96.1915302  84.3859000  79.0448141  96.2968349
  85.2376361  78.0624104  97.0716953  25.6483102 106.1762142  49.3445444
  26.5103483 106.5366650  49.1367006  25.3780890 106.6425514  50.1355791
  25.6583691 105.8616829  73.7351322  24.7241282 105.7335949  73.8994980
  25.6926632 106.3339233  72.9032421  10.7454944 100.2557564  69.3955946
  10.0567782 100.3919220  70.0462580  11.3935280  99.7116280  69.8430395
 112.8413309  44.8357732  15.0324795 113.1642307  45.5622727  14.4994041
 113.6183990  44.3063886  15.2117703  10.0818372  78.9605713  80.3976917
   9.6319312  79.6356392  79.8896599  10.3012371  79.3895960  81.2247562
  15.2174222  99.4909382  79.2044735  14.6151423  99.6209908  78.4719610
  15.9385991  98.9820290  78.8341379  15.0576484  98.5559750  82.0303822
  15.2076471  99.0689754  81.2363052  14.3136179  98.9833546  82.4546528
  39.1329362  22.5996738  70.8218956  39.2262897  23.5261111  70.6000471
  39.4051066  22.5441318  71.7378998  37.8435052   4.0821700  75.5022144
  37.0242957   3.8007980  75.9095955  38.4421948   3.3473640  75.6358433
 103.8114126  73.3977079  58.3253098 103.4147473  73.9809990  57.6782656
 103.0776544  73.1056452  58.8661671  51.0916138  88.1704140  72.8387117
  51.8220997  88.7310696  72.5773907  50.8362484  87.7191925  72.0340872
  25.2807784  65.2197599  58.5729361  24.4236183  65.5880117  58.3586931
  25.2344942  64.3130398  58.2697010   0.5380183  80.4571629  92.0093155
   0.2150163  79.6293163  92.3650837   0.8622988  80.9355068  92.7723789
 110.6715573  72.9808569  32.7973175 110.6126614  73.1384039  33.7396240
 111.3285966  72.2902012  32.7105594  38.7960720  68.7239742  68.4471130
  38.0255651  68.5484505  68.9872456  38.8311815  69.6783686  68.3828878
  48.8068295  68.6736822  77.7561903  49.7205305  68.6432505  78.0398417
  48.3283615  68.9888382  78.5229874 118.5855988 109.2374897  86.8415451
 117.9209525 109.4953537  87.4802876 118.0979798 108.7680149  86.1647511
  56.5784502  79.9967194  66.1368370  56.8382406  80.8016205  65.6886482
  56.9174480  80.0977421  67.0262814   7.1582716  36.4055211  16.6326878
   6.7331045  36.7377431  17.4233219   6.6912811  36.8302209  15.9131214
  41.4337492  92.9992867  75.5542135  42.2008753  92.5534344  75.1951027
  41.6206694  93.9305496  75.4357052  15.0071871  88.8356876  46.3297367
  15.1322901  88.1790257  47.0148516  15.7675862  89.4117451  46.4083862
  46.1865377  84.1199684  89.8814678  45.4177809  84.5326996  89.4878864
  45.9986591  83.1820107  89.8473454   0.4613871 107.2379017  38.4087253
   1.1723286 106.9163418  37.8542948  -0.3108755 107.2179604  37.8435326
  79.7243101  13.0668311  55.8261442  79.1988165  12.6835971  55.1238489
  79.1893751  13.7870555  56.1598349  18.4638202 101.0518742  93.2961464
  18.0136287 100.5779266  92.5969124  17.7586293 101.4104366  93.8350105
  29.2288971  90.6308937  59.7101974  30.0649810  91.0684395  59.8706722
  29.0283418  90.8258915  58.7947845  98.7864817  42.1941048   1.7322228
  98.8143958  43.1445653   1.8420765  99.1833580  42.0403344   0.8748505
  55.1647968  11.2798553  61.6039896  54.6181769  10.8251338  60.9631538
  54.5509738  11.5725951  62.2776079  18.6183262 101.3223648  76.7016363
  19.0875936 101.8895817  77.3134184  19.0994060 100.4951668  76.7248249
  53.1240911   5.8966975  78.8311815  53.7832493   6.5522342  79.0592575
  53.1807584   5.8214049  77.8786278  24.2720747 101.9771957  72.1716118
  24.4640660 101.1003876  71.8390751  24.4835043 101.9313335  73.1040382
 106.1756075  57.7030427   4.4640419 105.4208768  58.1129796   4.0414688
 105.9627355  57.7137811   5.3972027  22.0718527  74.7388172  68.8718033
  21.5067339  74.0077209  69.1215467  22.1388173  74.6751881  67.9190731
  30.1807547 107.3093414  32.1946454  30.6571865 107.5444031  31.3984108
  29.5428753 108.0138206  32.3088717 115.9321092 110.2631855  62.2666740
 116.4929341 110.6764698  61.6102409 116.4137211 110.3598118  63.0882215
  49.9356634   2.4074321  77.7280235  50.3595323   2.8814273  77.0125532
  50.6365151   1.8843131  78.1171036  21.9729781  64.1142225  67.2795391
  22.2793889  63.2484341  67.0098019  21.6736174  64.5256710  66.4687824
  34.8001552  90.0626945  77.2406673  35.1279855  90.8018208  76.7283773
  34.7373533  90.3997803  78.1343460  61.4666349  13.7039714  51.4344311
  61.7147333  14.5874171  51.1620331  61.3309771  13.7739329  52.3793840
  42.9560280 104.8471451  46.6495132  43.6045647 104.4715023  46.0540915
  42.1218157 104.4792366  46.3580370 109.6412212   4.8896747  59.7256136
 110.0054247   5.7643466  59.8617601 108.7200433   5.0437503  59.5160484
  35.5377483  93.9030838  70.1287794  35.9124017  94.2547131  69.3211746
  34.7479987  93.4422493  69.8456430  90.3883357  81.5992451  72.0335579
  90.1040311  82.4683857  72.3164034  89.6030278  81.2006187  71.6585588
  83.3955891  13.1558949   7.1955654  83.6280472  13.5436684   8.0392620
  83.3116201  12.2198397   7.3771927 109.0127362  27.2339589  37.0860264
 109.5273460  28.0388219  37.1459934 108.1170858  27.5334031  36.9298908
  43.5475615   7.0772605  70.7217169  44.4778246   6.9155364  70.8788490
  43.3253438   7.7940135  71.3159466 107.2357644  54.8886067  18.6766502
 106.6420592  55.5793721  18.9709065 107.0576681  54.1536576  19.2634747
  26.8250221   0.5155711  80.7784271  27.3816079   0.2776008  81.5199184
  26.8590552  -0.2458234  80.1993370  85.7969398  78.8544900  12.2405693
  85.1689763  78.8360459  11.5183804  85.5813111  78.0834634  12.7652142
  32.1551800 104.8777771  64.4643164  32.0545340 105.1459026  63.5509634
  32.3450732 103.9406776  64.4192982  79.4090587   0.1229720  74.1495419
  79.7206384  -0.3934998  73.4063005  79.9044973   0.9403377  74.0977192
  93.5521013   4.0228610  57.4012136  92.6582081   3.8335948  57.6864624
  93.5219366   3.9401393  56.4480734  80.6358012  57.0278413   7.5261185
  80.4355846  56.1467892   7.2100708  80.5113334  57.5905091   6.7618248
  67.9533536   9.0134006  13.1189048  68.5262758   8.2867103  13.3636928
  67.0675952   8.6712699  13.2397723  94.1651405  30.9206921   1.1774323
  94.6890176  31.0198838   0.3824780  93.3836068  30.4475934   0.8917591
  11.7184091  96.5434933  88.4624004  12.4269783  96.5029144  89.1046715
  10.9350681  96.2967587  88.9540577  92.7108402 106.5007114  87.3800087
  92.9381151 106.7705441  86.4901924  91.8104286 106.1832428  87.3114109
   2.2969846 104.6848869  54.1601849   1.6701713 104.6566010  53.4373140
   2.6002109 103.7814140  54.2497540  45.9298754 107.8177547  38.8639021
  45.7228708 107.8089428  39.7984099  46.8799734 107.7070618  38.8279843
  14.3208814  67.5043535  42.0871496  14.2699814  68.4593582  42.0469666
  15.2577114  67.3166609  42.1450377  56.4207125 104.8777962  72.7183247
  56.8551540 104.0299034  72.8109169  56.5193319 105.0975418  71.7919254
  77.1675898  65.4059655  15.9883568  76.9645906  64.4850785  16.1526272
  78.0921702  65.4069192  15.7406017  36.1168242 103.3737087  42.4531889
  36.8777299 103.8862133  42.1800661  35.6659508 103.9329243  43.0858231
   2.1250959  71.5795946  65.6346321   1.2039075  71.4122581  65.4355288
   2.2919968  71.0799503  66.4338398  15.5740166 111.1898613  71.4059258
  15.9743083 110.3904819  71.0638666  15.4685307 111.0230446  72.3425579
 105.2303279  54.8869569   1.4902756 105.0053109  54.0863568   1.0163185
 104.5200194  54.9989468   2.1220562  39.7005820 102.5833988  67.7817106
  39.7932911 103.2264614  67.0787764  40.3181076 101.8885136  67.5536060
  32.3611879  72.8314638  72.8676510  32.1011424  71.9958448  72.4798965
  32.9176283  72.5891781  73.6078548  56.3469219  98.6538219  84.3671989
  56.2343645  98.2472801  83.5079575  55.4803562  98.9970589  84.5851326
  28.0531144  87.6269245  68.1132793  28.9293933  87.3842335  67.8141689
  28.1270933  87.6633644  69.0669203  38.4659662  15.0639968  60.2733898
  38.6400514  15.5689006  61.0677433  37.9991702  15.6723075  59.7004223
  64.9941713  16.7354541  89.8408413  65.8386571  16.4914470  90.2197075
  64.4079048  16.8144374  90.5933571  47.2189188  93.2347775  59.7921181
  47.2613192  93.2601738  58.8361931  46.2829733  93.1989098  59.9894810
  46.8650705   0.6403785  66.3695526  47.2731114   1.4985900  66.4844275
  47.5598622   0.0915961  66.0057783  21.6185784  82.6631832  46.1183643
  21.9385076  82.0778179  46.8048239  21.2781668  83.4228706  46.5908432
  11.9038105  86.1702442  71.4424992  11.0891545  86.4942932  71.8266392
  11.9502115  85.2543354  71.7167091  11.7433548  90.6183147  90.1061440
  12.5898314  90.5840683  89.6605682  11.5720403  91.5527344  90.2233982
  17.3313260 103.3887863  84.7733593  17.1385229 102.4614620  84.9116611
  16.9454050 103.5890770  83.9206123 103.0743111  47.8326661   4.5121738
 104.0078724  47.9771096   4.3578026 102.9042090  48.2482678   5.3575012
  65.5375535  -0.2528233  85.8878040  65.3873021   0.6707435  85.6860924
  66.4407474  -0.4137559  85.6147289  95.6186505  81.5994167  12.8452682
  96.2616177  82.0689774  12.3139071  95.8383150  81.8314457  13.7475669
   8.2900023 110.5694103  72.4671888   7.6604027 110.4694748  71.7531538
   7.9883778 111.3413048  72.9461861   7.2254050 110.4703712  81.0929108
   7.8910959 110.7196045  80.4518414   7.5223541 109.6252728  81.4303303
  30.4955703  18.1006866  62.2659540  30.9690154  17.8074317  61.4874411
  30.5099345  19.0561061  62.2092724  53.9603919  33.2069926  60.7654762
  53.2810063  32.9398303  60.1463699  53.9327020  34.1637187  60.7533169
  17.5382257  75.3648949  72.3768139  17.1575034  76.0771036  71.8629646
  17.9182994  74.7758961  71.7250061  65.1657963 108.3743858  78.6570501
  64.8721790 108.3713531  79.5681000  65.7446003 109.1341877  78.5944796
  96.3785256   8.6606604  11.2060711  96.9320394   7.9444844  11.5174458
  96.4395202   9.3259484  11.8915722 117.8784125  70.9134483  68.5133839
 118.0222280  71.2560701  67.6312494 117.2879949  70.1704645  68.3884478
  34.0332317  94.8476601  39.6912766  33.8023829  94.2714977  40.4199600
  34.3476677  95.6489944  40.1098728  16.6011512  90.3746510  92.3682976
  17.0258963  90.2016449  93.2084751  17.2125673  90.9463882  91.9040585
 105.1230133  49.2656476  14.5470688 104.5801843  50.0406129  14.6919796
 105.0512136  48.7673051  15.3611538  30.8353877  68.9157152  81.7085648
  30.8524418  69.8671770  81.8118095  30.0454092  68.6385584  82.1726227
   9.2275482  96.9241714  45.8070469   8.8267034  96.2128448  45.3074884
   9.0698165  97.7065086  45.2785492  58.5174722  19.5328097  62.3235130
  58.7941474  19.9659114  63.1310415  58.2347793  20.2476077  61.7530966
  10.4917526 105.1791191  61.3165951  10.8475101 104.7648907  62.1027756
  10.0147951 104.4785500  60.8716917  99.1299380  32.1141106   0.3970501
  98.9159668  31.3922364  -0.1940182 100.0074352  32.3891408   0.1313660
  87.7738453  22.5394542   6.1869309  88.5687018  22.2898108   5.7156441
  87.4590857  21.7230231   6.5750000  71.6558987  13.2023006  95.9610844
  71.9003994  12.3244434  96.2540340  72.2286684  13.7881522  96.4560127
  77.7845020  70.9112126   5.3101799  77.8479038  71.5186936   4.5731709
  76.9458439  71.1203248   5.7214710  91.6894973  44.3151433  43.0761883
  91.1674822  43.9825208  43.8063213  91.0758818  44.3574578  42.3427555
  27.3676085 103.8967609  64.6461535  28.0204844 103.1967926  64.6406078
  27.8639841 104.6889019  64.4403553  22.7090955  98.7671757  74.5341587
  22.0448732  98.4804630  73.9073896  23.0190325  97.9583168  74.9414921
  38.1377006  55.2607012  82.4049664  38.6530733  54.7287512  81.7986202
  37.2405005  54.9449205  82.2975159  79.2072660  19.1208892  64.4393730
  78.4616429  19.5325236  64.0025234  79.6985418  18.7031226  63.7320185
  32.3175073 100.5284214  79.1348505  33.0114889 100.3706264  79.7749424
  32.7817750 100.6979847  78.3151340  28.4892106 110.9656906  84.5717430
  28.0208421 111.4828300  83.9164352  29.3728256 110.8717251  84.2158985
  69.8209483   8.3810001  67.2126675  70.3207022   9.1356330  67.5241423
  68.9076287   8.6122184  67.3818445  64.3744952  18.9700465  61.6957045
  64.2873413  19.6084075  60.9877968  63.7820918  18.2590156  61.4513206
  60.5578834   0.4478126  56.8798351  59.8186261   1.0425429  57.0064306
  60.7965190   0.1706653  57.7644062  49.4407052   0.6041389  93.0911160
  49.7722441   1.0923915  92.3375034  50.0762278  -0.1001973  93.2186031
  27.0750708  16.4156776  66.1975050  27.9105181  15.9485679  66.1890697
  27.2070891  17.1533637  65.6020021  25.4835105  90.1380730  88.2727814
  24.7493339  90.0140858  88.8743210  26.2219238  90.3622627  88.8391018
  39.2668819  95.1806164  71.1617756  39.9926829  95.8005524  71.0902119
  38.7227178  95.3593636  70.3948545  20.4556513  89.3596458  53.6482430
  20.0929093  89.6912575  52.8268480  21.2236738  88.8532734  53.3837461
   9.2512441 101.2006283  23.2943726   8.9116818 100.6846714  24.0256190
   9.5830500 100.5498791  22.6757765  11.4227605 105.6465435  81.6415691
  11.9823003 106.4212513  81.6960621  11.4031494 105.4303551  80.7093048
  96.3444901  19.0000159  13.1869480  97.2849155  19.1663844  13.2513783
  96.2164069  18.6937148  12.2891686   2.9474133  57.2405679  10.9297916
   2.2639817  56.5895230  10.7707474   3.4296673  56.9021565  11.6842052
  26.4460659 109.3029594  49.4242477  27.0329666 109.5316029  48.7034845
  25.5726743 109.3074989  49.0325880  45.0996346   5.7030635  39.2129374
  46.0027093   5.6894260  38.8959193  45.1507825   6.1401038  40.0630045
   5.2887785 102.2284222  63.7268448   5.5450392 103.1383896  63.8769245
   5.5236769 102.0608521  62.8141689   6.7689097  73.7593269  95.2828789
   7.5091982  74.2736292  95.6048965   7.0923209  73.3507919  94.4799232
  89.9540968 106.4585876  49.3499374  90.6498833 106.9775677  48.9464855
  89.1536589 106.9530869  49.1738653  26.0714841  70.3032589  75.8844471
  25.2595735  70.8000898  75.9853792  26.7652488  70.9547567  75.9867859
   3.7109768  97.9648399  56.9643354   3.2573858  97.5154972  57.6774836
   3.3870715  98.8646984  57.0038271  86.2841303  12.8450923  92.9214287
  87.0921213  13.1991725  92.5499344  85.6119949  13.0491595  92.2711754
  96.9876445  70.0561768   5.7598183  97.1895731  69.4529111   5.0446102
  96.0395802  70.1782376   5.7097408  96.7249007  59.1158342  62.3071003
  96.2731571  58.4297180  61.8157673  97.4686499  58.6700106  62.7124548
  31.6931862   7.7945476  43.7018538  32.4180860   8.3707290  43.9442587
  32.1167827   7.0136886  43.3453894  15.6859565 108.5405350  56.4149237
  16.0946453 108.6808968  55.5608177  15.3560734 109.4029427  56.6672230
  49.9896336 103.9857006  73.5591650  50.3621340 103.1049919  73.6019373
  49.9869108 104.1995525  72.6261616   1.3315749  82.3017216  94.2199612
   1.7341781  83.0263710  93.7413979   0.8145423  82.7251625  94.9052429
  92.9479582  11.5871959  49.1203690  92.5638944  11.6513591  48.2459497
  93.0338508  10.6466155  49.2758131  52.4380684  72.8122377  75.8733368
  52.5272655  72.2462368  75.1065779  52.7820015  72.2898579  76.5979481
  31.1804008  71.8836021  82.0689487  31.6807890  72.0382023  81.2677383
  31.1704469  72.7317524  82.5125408  23.2453775  67.2803545  75.6009340
  22.5192332  67.7701902  75.2149248  22.8820324  66.4124918  75.7770681
  15.8390021  69.5120573  60.2674961  15.5946314  70.3832102  60.5799150
  15.0041163  69.0700388  60.1131630  15.2127266  98.4226704  49.3765068
  14.3004882  98.6344147  49.1784763  15.3709245  98.8216400  50.2320910
  61.7208630  19.8354583  78.3759689  62.6026541  19.9585490  78.0245066
  61.7241294  18.9438586  78.7242126  27.9724765  79.5954943  71.9340420
  28.4204006  79.4202805  71.1064577  27.4168324  80.3528690  71.7499828
  22.2065520  86.9218922  50.7137012  22.6074409  86.8675423  51.5812111
  22.9186058  86.7174149  50.1075649 115.9741056  54.2689610  77.4835777
 116.7483832  54.6330023  77.9127598 115.2714173  54.3783998  78.1242657
  44.4220078  10.7800059  67.6819563  45.0812823  11.4490085  67.8664064
  43.8850672  10.7481437  68.4737349 101.7580641  41.3425118  11.1244270
 102.6888050  41.1420590  11.2233040 101.4736498  41.5984303  12.0018360
  32.7272588  11.4397006  70.0507402  33.4299309  11.0954719  70.6020927
  32.5877321  10.7618098  69.3895102  21.1137152  44.7733307  81.7351341
  21.0964274  44.6577740  80.7850933  21.8641043  45.3462124  81.8931198
  57.6235008  96.5275097  48.6796427  57.6599836  95.7503605  48.1220245
  56.6884375  96.6836834  48.8119364  10.1292861 105.2494812  43.7631035
  10.7734251 105.9520912  43.8506413   9.3636137 105.6734371  43.3754873
  12.1220160  85.1146507  89.6947670  12.6847458  84.7704124  90.3883553
  12.6387691  85.0145435  88.8952827   4.7711793  82.1776676  78.1622839
   4.5277709  81.9306469  79.0544510   5.7281554  82.1961975  78.1715345
  27.0028543 107.9284000  64.2318869  26.2179160 107.6166058  64.6823120
  26.6737580 108.3317661  63.4286213  70.1122743  18.4867244  69.9107218
  69.5869786  18.1327872  69.1930676  70.9350235  18.7497382  69.4982481
  96.0841227  44.7307164   2.5222942  95.9827388  45.6680543   2.3568890
  95.6899668  44.3087823   1.7588493  63.3552629   7.4378257  61.9371653
  63.0689460   8.1714969  62.4812126  64.0850455   7.7886634  61.4267111
  78.1281025  11.3968139  53.8440323  78.2534010  10.6723170  54.4569349
  77.3278529  11.1729388  53.3689404  23.5183287  97.5634670  60.8318758
  22.9955792  96.8201065  61.1324978  24.4235229  97.2568226  60.8850288
 106.1875738  28.3810574   9.4955513 106.9512452  28.3025700   8.9238236
 106.5005101  28.8876397  10.2450058  44.2923260 106.5773582  37.0330644
  44.8154354 106.8654823  37.7811122  44.2075539 105.6311607  37.1503115
  38.3772969 100.3436184  41.5869999  38.3121967 101.0227299  42.2584200
  38.2092834 100.8032513  40.7643557  77.6411402  13.9869172   4.1937134
  77.2441220  13.5444981   4.9439594  78.0538484  14.7661835   4.5660660
   2.6097253  78.5292530  81.7537212   2.0627321  77.7831888  81.9995213
   3.4416544  78.1385279  81.4864063  42.3565674 108.4532642  53.9241791
  43.0851173 109.0723324  53.8771820  42.4104261 107.9575253  53.1071234
  74.5946742  51.9813878  24.9182484  74.8054726  52.2748811  24.0318844
  75.3232012  52.2950990  25.4540417  30.8454347  98.6582661  48.4258127
  30.3263855  97.8592110  48.5171509  30.9819388  98.7487030  47.4827194
  76.5300304  10.1182227  40.8649492  77.0725948  10.7933860  41.2723827
  75.6775290  10.5364757  40.7443905  79.6410214  50.8339936   9.5805046
  79.1723376  51.1381776  10.3577015  79.0938343  51.1129815   8.8463566
  58.6207867  77.3991442  54.9376440  58.7999439  76.8788815  55.7208824
  59.0063524  76.8944550  54.2215014  49.7077370  87.5533485  60.8754683
  50.0680208  86.7033100  61.1281586  49.5145082  87.9880714  61.7060757
  24.4991183 108.5973835  83.4973049  24.9418640 109.2997265  83.0209446
  23.5906625 108.6412811  83.1989574  59.1980356  28.6062579  77.4033594
  59.0771121  28.5480647  78.3511066  59.5997268  29.4640689  77.2653866
  79.4040353   5.8087592  76.9364786  78.8858349   5.1705794  77.4268103
  78.7576586   6.4154582  76.5754271  38.8706017 100.6264687  69.9818659
  38.9446378 101.4165783  69.4466257  39.7760510 100.3692532  70.1557398
  66.1172373  12.9365878  45.6541157  65.8127887  13.1787639  46.5286970
  65.5308706  13.4032683  45.0586271  19.3026829  91.1215591  63.2388973
  19.6509397  90.2890301  63.5580397  19.7043598  91.7815685  63.8039398
  17.5340426 106.0831261  49.3852568  17.3388040 106.0561371  48.4485674
  17.8966439 105.2187824  49.5793343  88.2978183  19.4155841  58.4986782
  87.6674873  19.8912101  59.0396881  87.9458935  18.5269885  58.4460878
  48.1631231  78.8586569  82.9928398  48.9193201  79.3794537  82.7223492
  48.4023523  77.9578447  82.7747917  77.2859646  60.1469571   0.8064339
  77.1220752  59.9103314  -0.1064709  76.4160559  60.3073842   1.1721584
  44.5896006  94.1359711  90.4675579  44.4860315  94.1003799  91.4184666
  43.8170242  94.6101093  90.1600647  43.5627747  84.5836258  76.2251997
  43.4379101  84.2291927  75.3448486  43.9709520  85.4378128  76.0838223
  42.6831496  13.4167533  68.4866524  42.1632749  14.0340762  67.9719973
  42.2468839  12.5739436  68.3618546  47.5556612  94.6967220  81.7648983
  47.1434832  95.5033684  81.4556122  48.4926653  94.8922920  81.7674828
  49.6208191  94.2994308  51.6376352  48.7776232  93.9982033  51.2992191
  49.4845533  94.3815231  52.5815248  69.2530012  85.5053711  95.3295422
  69.4085550  85.8647156  96.2029934  68.4072113  85.0627232  95.3997993
  81.0808689  10.3627639  46.8278265  80.7229215   9.9657111  46.0338211
  80.5723459  11.1652713  46.9445086  24.5899010  94.4786549  51.7934322
  24.5396447  94.5273972  52.7480698  23.8092041  94.9410439  51.4885712
  48.3096356   1.6333823  88.8994026  48.3373064   0.6867843  88.7600040
  48.6273218   2.0059829  88.0769157  74.0455705  13.4133201  47.8602934
  74.2569930  13.3033900  46.9332314  73.7393743  14.3174987  47.9305506
  60.3841972  99.5893955  84.0133286  60.9487724  98.8853550  84.3323994
  59.7553015  99.7313595  84.7208405  60.2622539   1.7338328  50.4319859
  60.3511030   0.9290271  49.9214697  59.6214682   1.5181499  51.1095572
  74.3377344  27.0764405  13.8408730  73.7623406  26.3115079  13.8460609
  73.7433005  27.8227765  13.7642834 101.6360742  49.8524909  20.0677991
 101.5080148  50.4687553  20.7889366 100.7498581  49.6044211  19.8045135
 104.9743755  74.0659475  64.9324656 104.3365832  74.0411091  65.6457901
 104.5373709  74.5581388  64.2374754  76.8341238  11.4549689  36.2871718
  77.7770836  11.3495784  36.4134598  76.6063053  12.2218089  36.8127918
  27.9434896 101.1635208  91.4762688  28.1083536 101.7256165  92.2333050
  28.6336470 101.3918972  90.8535671  62.7184135   2.9219775  56.6423798
  63.0596024   3.8143592  56.7014647  63.2737571   2.4136024  57.2334623
  35.0324130  98.8641167  62.4196482  35.9351802  98.7984753  62.1083021
  35.0874186  98.6725903  63.3558750  43.3841944 110.2487659  72.5892830
  43.5945654 109.4058037  72.1875429  43.6964560 110.1691151  73.4906054
  70.9551954  85.9376621  78.5691833  70.9748602  85.4108238  77.7702570
  70.0239897  86.0775280  78.7409925  74.0013940  37.1447234  40.2220011
  74.2785937  36.5916305  40.9523964  74.2723138  36.6629844  39.4404912
  17.3401797 101.0981083  58.3992290  18.1641459 100.9556484  57.9333782
  17.5625074 100.9753990  59.3221283  34.4877648  67.4805927  76.5035439
  35.3456330  67.0586729  76.4557838  33.8816977  66.7685127  76.7081404
  71.8429279  83.6543941  62.5711346  71.6375637  84.5419025  62.8650379
  71.2167358  83.0978489  63.0341434  35.6795669  90.0817776  60.3061771
  36.3660884  89.7129822  60.8619785  35.5316520  90.9593201  60.6586742
  84.6229267  76.9006014  52.0219660  84.4769764  77.7527714  51.6111994
  85.1689053  77.0925856  52.7843857  62.1751785  99.0243149  87.6197433
  62.8573132  99.6805096  87.4771214  62.5103092  98.2343578  87.1956158
  76.0011942   0.8750205  69.0293646  76.0185987   0.6465201  68.1000042
  75.0752980   0.8342986  69.2687225  72.5915861 105.1135063  95.3578758
  71.7770195 105.6158733  95.3393555  72.9272509 105.2341652  96.2461376
  86.5119726   9.4036250  32.6844406  85.8999616   9.8442130  33.2739782
  86.7671186  10.0788550  32.0557952  89.1908437   2.8404193  57.7351665
  89.2647773   1.9315295  58.0261707  89.7344906   3.3335929  58.3495378
   0.5665784  84.2009068  79.2375040   1.4948304  84.1479969  79.4650555
   0.5287513  84.8503017  78.5352993  42.2004843  19.2370563  96.6493320
  41.5716260  19.6304088  96.0443211  43.0428824  19.3112331  96.2008953
  55.9054190   9.2643504  68.6693621  55.5983955   9.2162376  69.5747089
  56.4477820   8.4834533  68.5585642  48.8936901 108.7484646  66.2248087
  48.3314562 109.2454243  65.6305313  48.9931583 109.3147945  66.9900608
  58.1437129   0.7975917  66.8508673  58.8095600   0.1279025  66.6946507
  57.5695736   0.7473521  66.0866213   9.9067092 108.1920815  64.1092730
   9.3739313 107.5401020  64.5645714  10.8005309 107.8547478  64.1685963
  80.4555960 103.8218021  94.1684055  81.3124223 104.1997147  93.9702320
  79.8485346 104.5593262  94.1069794  58.0044937 109.5619488  74.5580244
  57.4861670 110.3289700  74.8014307  58.8845253 109.9061775  74.4054222
   3.8280647  57.5209863   3.9492390   4.1263645  57.7559525   3.0705807
   2.8898066  57.3603875   3.8486740  33.9838999  55.0375611   9.6111843
  33.5186499  55.3699071  10.3788635  34.4408434  55.8012921   9.2588398
  44.0906143 110.9277821  69.1581535  44.0383720 111.7807293  68.7268925
  45.0006962 110.6553745  69.0407515  89.0999556  67.2877080   9.5027802
  88.6994589  67.5182111  10.3410503  90.0388289  67.2562081   9.6865150
  98.9216221  49.6508462   4.5446560  98.1130136  50.1149327   4.3278477
  98.8543213  49.4783074   5.4837677  41.6152763 109.4731903  68.9377165
  41.9368839 108.9850330  68.1797600  42.3188543 110.0892258  69.1419649
  31.5680790  92.6076984  55.2719831  32.2132993  92.1955585  54.6974659
  31.0750651  91.8756485  55.6424856  13.9952600  92.1801567  40.4373550
  13.6134064  91.3356876  40.6766987  14.0691745  92.6531410  41.2662458
   7.5763720  60.1936395  12.4335072   7.0269507  59.5092446  12.0514557
   8.0222719  59.7633797  13.1630871  58.3235359  83.5242939  61.3427591
  59.0501213  82.9509640  61.0986376  58.6321783  84.4053459  61.1313057
  98.9801342   8.6273437  72.0099306  99.1840107   8.8081889  72.9275131
  98.1326992   8.1830268  72.0359373  47.2203207  69.6754360  80.2134991
  47.9607964  69.1743851  80.5553722  47.4066448  70.5799961  80.4650688
  81.5534145   1.2153773  45.7500362  82.0041448   0.4033713  45.5182552
  81.0517055   0.9951835  46.5349150  91.7461044  12.1569495  64.8843145
  91.0890085  12.5662189  64.3213272  91.4028579  11.2797599  65.0544739
  37.4288154 106.8766308  91.1256218  37.1554613 106.8041611  92.0401001
  38.1970596 107.4471092  91.1497784  82.0150281  13.0153663  21.0200188
  82.8674532  13.0604512  20.5869267  82.2061450  12.6617343  21.8887302
  50.5355674  17.3753219  92.9007339  49.6327824  17.0585780  92.8710175
  50.5772812  18.0443435  92.2174358  80.2750427  16.3529544  54.5677042
  79.9422437  15.4668288  54.7100306  79.6001941  16.7804294  54.0403795
  94.3482715   3.5984950  70.6553316  95.0759346   3.0888419  70.2989769
  93.9895803   3.0489593  71.3521767  63.3104045  13.4997707  34.1534925
  64.0436084  13.7968307  33.6146069  63.5303337  12.5961356  34.3800282
  64.4386673  81.8421364  64.0126276  64.9045801  82.6742554  64.0946484
  64.4616556  81.4669800  64.8929453  14.7419167  95.6525993  80.5058861
  13.8596904  95.6060219  80.1374626  15.0980091  96.4757347  80.1714134
  33.1079531  94.2012596  64.5557213  32.2116566  94.5365715  64.5770121
  33.1799269  93.7637806  63.7073898  14.8548353  94.5995235  31.6016030
  15.3882778  94.6909714  32.3910999  15.2964067  95.1439381  30.9497952
  21.1921423  21.4407069  11.7984173  20.6120795  22.1924502  11.6773960
  22.0527952  21.7552954  11.5217468  23.4256005  73.5212469  64.1426897
  24.2191935  73.1259441  63.7818861  23.1979680  74.2121124  63.5204983
  13.4034848  76.8359613  47.8290319  13.5268903  76.7863226  48.7769461
  14.1412079  77.3609829  47.5186253  73.6807424  11.2673431  88.6114597
  73.4640915  11.1920982  87.6821423  74.4846350  11.7866664  88.6287022
  43.9886618  87.3295403  50.9679031  43.7041807  88.1430340  51.3844824
  43.5949373  87.3566055  50.0958443  68.5973263  86.3370991  79.5348454
  68.2728243  85.4366016  79.5285034  68.1165409  86.7599392  80.2463818
  34.5516515 101.1387634  80.8241940  34.1283226 101.7782879  81.3969326
  35.2288890 101.6376686  80.3673840  93.0764366  44.1255624  15.1422569
  93.7163771  43.7017018  15.7141468  92.4856878  43.4197861  14.8793289
  92.8266347  64.5165974  20.3236267  92.2296465  63.8495786  20.6626293
  93.5455705  64.5378453  20.9552261  55.6081915  95.1282024  71.5517378
  56.3995886  94.6539688  71.8067360  55.0497246  95.0973606  72.3285246
  35.1538444 103.3054066  78.6256027  34.3850589 102.9408169  78.1871176
  35.6884456 103.6608410  77.9156065  55.1470179   3.4302669  68.2372284
  55.7551069   4.1569381  68.1015587  54.2800338   3.8180022  68.1179523
  16.7278218  91.7811394  63.0219460  17.6410544  91.4959145  63.0516815
  16.3176823  91.3498878  63.7716436  25.8560729  99.5486546  69.7726250
  25.8530688 100.5058479  69.7758436  25.6365395  99.3054295  70.6720018
  65.2643711  16.6425948  68.2433128  64.3928248  16.4507346  67.8971481
  65.1601750  17.4731403  68.7076044 116.3648099  83.6671162  74.4934940
 115.7649679  83.7211227  75.2374744 117.2066536  83.4282875  74.8814249
  34.5049191  84.3304825  85.6624413  34.1240287  85.1036072  85.2459812
  35.4481554  84.4930553  85.6520557  40.6481361  82.5303173  95.8926201
  41.3104296  81.8916321  95.6286430  40.3211498  82.8908634  95.0684166
  41.0638571  96.9045544  43.9586926  41.9359016  97.0362854  43.5866547
  41.0134792  95.9629822  44.1234350  92.0905525  21.3505321  26.0499907
  91.2120086  21.1429267  25.7317352  92.2309286  20.7449775  26.7778873
  14.2816281  66.4548731  67.9014635  14.9093795  66.5180874  67.1816254
  14.7822833  66.7037153  68.6784124   4.7766131  73.8589055  17.3461506
   5.3728884  73.1278474  17.5081512   5.0764864  74.5483643  17.9385635
   7.5182247 110.5311584  89.6561432   7.1334338 109.8286057  89.1321373
   6.8450654 110.7441044  90.3024769  96.8751932  15.2853114   5.4056236
  97.5347067  15.6872756   5.9710381  96.4007414  14.6847731   5.9804890
 116.1583327  89.6367741  71.0568666 115.7050793  88.8995171  70.6479073
 115.6147088  89.8633957  71.8114138  73.0194950  78.5333586  66.5137339
  73.7280893  77.9587173  66.8034124  72.3632288  78.4730196  67.2079325
  48.9223766 102.5331974  52.3416519  49.8188734 102.7405834  52.0779943
  48.4389830 102.4700832  51.5178919   8.6907446  95.9935951  92.5871849
   8.0532968  96.6882610  92.7525139   8.2077777  95.1825809  92.7459908
  41.2714767 105.3304577  82.8843403  42.0912218 105.6028175  83.2967377
  40.5911016 105.6068897  83.4982777  61.1195040  80.7361317  63.8154078
  62.0401430  80.5576324  63.6236048  60.7498407  81.0143185  62.9774380
  31.2445736  86.0338306  60.7474661  30.7705426  85.7421303  59.9687243
  30.7931328  86.8336678  61.0170603  66.4671594   8.4077888  63.8802624
  66.0430032   7.9038768  64.5748091  67.3345739   8.0125289  63.7931299
 107.6559866  66.4846761  40.1881954 107.3397578  66.1523873  41.0283253
 106.8662370  66.5802533  39.6558544  79.2600471  13.7758308  74.4653940
  78.7896330  13.1526713  75.0191212  78.7532145  14.5851379  74.5315742
  99.9422962  18.8403945  46.2528515 100.5139381  19.2115741  46.9249249
  99.6253044  18.0214172  46.6336679  18.5532379  93.8923931  83.2455063
  19.0131533  94.3234062  83.9658833  17.6461768  94.1860294  83.3306789
  72.7671146  88.4279728  51.9819164  72.6216221  89.2445850  52.4596310
  73.5521889  88.5926247  51.4596367   7.4070162 101.2116146  59.1587543
   7.2424161 100.4432392  58.6121893   7.4285340 101.9437313  58.5424995
  89.0733899  79.2093617   7.9011128  88.7909753  79.5232922   7.0420906
  88.9365531  79.9550301   8.4854862  34.0631628  90.2402782  35.3975987
  34.7928166  90.1561928  36.0114145  33.4442806  90.8216667  35.8394170
 116.7950007  91.4684105  73.0795050 116.8982124  90.5383968  73.2811356
 115.8855970  91.5518188  72.7926922  55.6695086   7.0233016  79.6835089
  55.9126503   7.8923183  79.3642378  55.5056090   7.1487384  80.6181908
  37.5179172  98.0542469  61.3779211  38.0270600  98.6431980  60.8210230
  37.9901195  98.0440044  62.2104788  45.0762177 106.9558048  63.5324717
  44.3160963 107.2283077  63.0184841  45.1419306 106.0128880  63.3814144
  64.6218157 110.2289200  54.7557402  64.7354174 110.4637241  55.6767130
  64.0527248 110.9128094  54.4026470 116.3218385  37.8832202  89.2212582
 115.6408912  38.5134082  88.9858913 117.1126444  38.2151752  88.7962151
  33.1493402  74.2707157  85.3055954  32.6193786  74.3255711  86.1008072
  34.0517068  74.2258787  85.6217575  14.5973551  39.7094321  38.0035329
  14.9150681  39.8546267  37.1123481  15.3916788  39.5963526  38.5255432
  13.7382555  23.1967616  27.2874641  14.4618952  23.3223486  26.6736197
  13.2192624  22.4895382  26.9044328   2.7001247  27.6935768  43.0658865
   2.7397230  26.7586756  43.2674503   1.7909530  27.9376698  43.2392550
  22.1571922   0.8630023  86.5140915  22.9433441   1.3910550  86.6532230
  21.6436577   1.3609645  85.8780575  60.4256064  56.1621764  14.0074703
  60.1404006  57.0559968  14.1971371  61.1813838  56.0256080  14.5787689
 106.1008067  73.0951929  55.3802824 106.6508134  73.8649178  55.5260515
 106.2508638  72.5445890  56.1487532  27.9062462  84.0172482  68.8475132
  27.3923016  84.7373199  69.2130089  28.4277272  84.4226933  68.1547642
 112.1407206   8.8483208  91.7452526 111.6212960   8.3372605  91.1245728
 112.7421386   8.2132959  92.1341896  87.0542784  11.5146875  78.8892269
  86.8372030  11.5531218  79.8206949  87.4995775  12.3434043  78.7126780
   6.6674989  44.3324852  15.2628422   5.8205807  44.1041803  15.6460357
   6.5503830  44.1937065  14.3230247 112.4791206  24.3113470  33.8492489
 112.9581292  24.4023895  33.0255437 112.9122730  24.9208546  34.4468355
  23.6109686  61.6741943  49.8310757  24.0457225  62.0239258  49.0533161
  22.7295184  62.0461321  49.8003769   6.8383199  37.5550556  51.6268778
   6.3464695  37.3751211  50.8256674   7.6509619  37.9596305  51.3232946
 117.6134328  30.3946972  29.5267677 118.3215147  29.8655367  29.1595626
 118.0597083  31.0786939  30.0259876 105.3264292  35.9053707  91.6742706
 106.2727339  35.7615018  91.6806030 105.2275188  36.8525600  91.7706108
  22.7963591  11.9091475  41.5919781  22.4043179  12.5324726  42.2035360
  22.0659328  11.3584208  41.3101816  98.0306716  23.8279200  43.8572884
  97.5836392  23.0563378  44.2052174  98.9287086  23.5349727  43.7025452
  10.0535679  57.3558569  51.7739725   9.5432800  57.8860235  52.3861504
   9.6768904  57.5515270  50.9160328 118.2402829  87.2348118  28.6575031
 118.0527118  87.9432297  28.0417228 117.9846611  87.5852108  29.5107961
 102.6600583  11.0840595  17.0396912 102.4634965  11.6197026  17.8082490
 101.8325885  11.0398769  16.5605545  43.2310465  91.0876443   8.5221836
  43.6852497  91.3972475   7.7385590  43.3880365  90.1434638   8.5327026
 107.8092499  47.1782064  45.2734756 107.2260423  47.5394440  44.6059370
 107.9097851  46.2577105  45.0309610 100.5298741  71.5346527  53.2760620
 100.9723563  71.0845518  53.9956856  99.6214051  71.6153860  53.5665751
   9.4741809  31.0292006  45.5585718  10.0345850  31.7610884  45.3006601
  10.0844264  30.3202987  45.7617712  45.7599766 101.1531641   6.6931412
  45.6322444 100.2099897   6.5914890  46.2740654 101.4091541   5.9273693
 115.8327041  38.0567050  58.9391232 115.8687358  38.0145979  59.8947144
 114.9411584  38.3464003  58.7455893  78.3908014   3.3809668   5.6130192
  77.4990864   3.3704955   5.2652237  78.5248544   4.2838198   5.9013149
   2.0147842  23.5789847  48.5989761   2.9393244  23.4875059  48.8293839
   1.5549803  23.0234361  49.2284012   6.8199593  35.2423429  47.4731159
   7.7201200  34.9170613  47.4847794   6.4654952  34.9362898  46.6382980
   5.9234506  37.9098940  79.1610098   5.7751518  38.0981493  78.2342958
   6.7919469  38.2691216  79.3423939  46.3280559   5.6624179  62.5661755
  46.2162549   4.9645190  63.2116747  45.8414573   5.3597312  61.7994690
  23.2449198   1.8037267  19.4625223  23.2987928   2.1299486  18.5642409
  22.8516865   0.9350647  19.3786955  15.8777642  59.4272280  35.9351707
  15.9743083  58.8287973  35.1943636  14.9977553  59.7906303  35.8363986
  11.7191768  40.4230785  34.7410631  12.3579991  41.1014557  34.9600148
  11.4899063  40.5957508  33.8279080  99.7144921  35.0917482  42.6321030
 100.1964433  34.7671175  41.8714666 100.1396437  34.6741080  43.3811378
  25.8489227  54.1156387  17.0950866  26.6803098  54.1445398  17.5685763
  25.9269190  53.3541155  16.5204275  21.7147231  32.4804568  55.2402210
  20.8093333  32.7890396  55.2044964  22.2321725  33.2725334  55.3854609
   4.3848190  35.3670144  37.4487615   4.8234349  34.6820998  37.9534793
   4.8320925  35.3645539  36.6024923  26.7387247  45.4150152  64.6827888
  26.1042571  45.5506229  63.9790201  27.5509405  45.1843405  64.2318678
  99.0693934  61.0579967  65.8791590  99.6127851  60.9590816  65.0973845
  99.3965311  61.8534946  66.2991476  89.0819760  65.0906372  33.1293941
  88.5801788  65.8635712  32.8705430  89.1601010  65.1633072  34.0806293
 111.7842580  16.8081307  86.6272926 111.1141087  16.8764615  85.9472466
 111.7433984  17.6457071  87.0888424 104.0685220  19.4153225  45.2524900
 103.5345216  20.1785445  45.0321102 104.9106045  19.7819686  45.5221176
  19.0602303  68.0051470  26.4430094  18.5817552  67.7009392  27.2142100
  19.7468197  67.3508644  26.3136220  28.6268258  25.4453444  60.2981377
  28.3332825  26.3334036  60.5016470  28.4287882  25.3348327  59.3681908
   2.0168938  59.2435074  57.0018721   1.6275863  58.5937977  57.5871468
   1.6896020  60.0831509  57.3245287 103.3671702 105.3416146  66.6499901
 102.7524532 106.0748930  66.6243410 104.1475380 105.6980069  67.0745468
 107.9543359  67.7505302  30.1967335 108.5883726  68.4597778  30.3025484
 108.4868349  66.9816446  29.9930429   3.7640983  45.4301405  26.9566083
   3.0442235  45.8087206  27.4612761   4.5357805  45.5557775  27.5088358
  17.4819553  41.8938446  76.8490887  17.6915097  41.6920233  75.9371710
  16.5326858  41.7850780  76.9064283  23.2993174  69.6670246  91.2764454
  23.9617515  69.2602491  90.7179260  23.2976198  70.5876589  91.0144138
  25.8273172  13.8532007  71.9039536  25.0475717  13.4269011  71.5482855
  26.2715960  14.2172217  71.1382246  19.2049742  49.5664215  45.0680923
  18.8501596  49.4673252  44.1846228  18.9548278  50.4528618  45.3286266
  32.3760676  31.7616558  67.4720192  31.5543675  31.4105201  67.1288776
  32.4922729  32.5926924  67.0114708  73.3561797  53.0955887  49.0500355
  74.1681714  52.6253557  49.2391968  72.7341075  52.4104881  48.8052988
  20.8938766  38.0407548  77.8557348  21.0097647  37.5736213  77.0283365
  20.0399685  37.7509713  78.1768274  29.1493177  52.3323536  48.2157278
  29.0581608  53.0644798  47.6058817  29.8435903  51.7917728  47.8389072
   7.5207454  71.4042759  89.7184944   6.7585588  71.9791555  89.6490955
   8.2376635  71.9863796  89.9703217 113.5007368  40.5454397   9.6708959
 113.3333950  41.1532688   8.9506358 114.2776851  40.8971548  10.1054990
 102.9174156  69.0296507  54.1889238 102.7997942  69.1516447  53.2468462
 102.2477682  69.5852375  54.5878363  34.0757537  46.2933922  69.9828768
  33.7613893  47.0033741  70.5426407  33.9710760  46.6267347  69.0917253
  21.8410087  35.5548048  45.0565481  21.0652089  35.5849218  44.4966745
  22.2189212  34.6901679  44.8958635  86.7080541  15.0149167  51.5492630
  86.1867018  14.9408615  50.7499218  87.1098991  15.8818996  51.4936543
 118.3255182  34.4705892  31.6317916 117.4385837  34.3110967  31.9545007
 118.3401871  35.4047060  31.4233541  33.7884259  24.2858553  33.8464499
  33.8682747  24.9558544  34.5253897  32.9791403  23.8221526  34.0615535
 105.3689940  52.2332621  49.9897003 104.7369595  52.8781176  50.3073883
 106.0706349  52.2447109  50.6407022   8.9248037  28.0750108  56.5419436
   9.3431258  27.5121593  55.8904552   9.4535208  27.9611540  57.3317051
   3.4551659  48.2269192  72.3322916   3.0918497  47.3450756  72.4134493
   2.7040812  48.7755346  72.1061802 100.5384155  12.4718189  27.8784847
 100.4295631  13.3468294  28.2509637 101.0141630  12.6171148  27.0606923
 116.4539480  36.3090014  39.6671200 115.8264305  36.6640997  40.2966928
 115.9207249  35.7926893  39.0626979 114.8403220  49.1873121  83.4073544
 114.5795964  50.0172138  83.0079651 114.3287162  48.5260439  82.9413033
 111.3626857  68.2107496  71.5524149 111.7164011  67.3225975  71.6003799
 111.7042388  68.6470604  72.3329306   6.8163908  46.6997099  75.8990288
   6.6327572  45.9322596  76.4408159   6.7811763  46.3723564  75.0002337
  13.6853540  52.5951433  63.7676477  13.7224627  52.4731255  62.8189850
  14.0990794  53.4454441  63.9161348 112.0629538  18.0015380   2.3868439
 111.5033639  18.7780625   2.3969719 111.6000093  17.3800093   1.8250439
 112.3077120  62.0168018  53.6529207 111.4193125  62.2996998  53.4362507
 112.5210477  61.3649607  52.9852247  54.8879862  15.2399695  84.9685097
  54.1378641  15.2616096  84.3743038  55.5817699  15.6992197  84.4952393
  11.9660699  20.4830647  75.1592922  12.1778643  20.7141137  76.0637188
  12.0833766  19.5338583  75.1208210  20.5757117  24.7967362  73.4543467
  21.0968900  24.3666434  74.1323042  19.7488368  24.3146133  73.4459829
  14.9993014   9.3447721  57.1862507  15.6728411   9.7752249  57.7128315
  14.2707562   9.9655253  57.1753120   7.9779214  34.6809769  44.7218418
   8.2910484  34.5500588  43.8268328   8.7739313  34.7057319  45.2528667
 104.3603535  14.4699931  21.2081432 104.0399142  15.3236651  20.9169507
 105.2965982  14.6033442  21.3561177   0.8962030  50.4184008  58.2205486
  -0.0491052  50.4192400  58.3709621   1.1208792  49.4941235  58.1135082
  18.6382198  70.5247831  17.8462923  19.4400859  70.5517626  17.3242640
  18.2317722  71.3798618  17.7053332   9.1086662  36.5769219  33.5512114
  10.0049901  36.2689734  33.6853862   8.5596240  35.8398128  33.8185191
   2.5226715  36.6275024  33.2136917   2.3368034  37.1938396  32.4647260
   2.6709798  35.7633877  32.8295803 114.5717929  47.3836565  74.4740820
 113.8888140  48.0364418  74.3203306 114.8013492  47.4900627  75.3972340
   6.8873483  49.1260576  58.1498051   5.9555775  48.9996862  57.9707384
   7.0928323  49.9762154  57.7609015 116.6602860  62.4554825  84.5054913
 117.3876250  63.0158329  84.2349052 115.8762011  62.9347467  84.2376232
 108.8075443  50.5611563  78.7534237 108.9171715  49.7693729  78.2268429
 109.6625222  50.9903669  78.7214184  35.9130645  37.0857382  57.2608423
  35.2591705  36.7513704  56.6469574  35.4501200  37.1420431  58.0967522
  39.5430923  71.5072441  68.2197046  38.9372969  72.2339630  68.3650351
  39.9613595  71.7078781  67.3824310   8.7097186  24.2908525  77.1935225
   7.9867011  24.1237354  77.7981281   9.2704743  23.5190415  77.2715759
  27.7762198  31.6644692  49.2530537  28.6955571  31.4402366  49.3971729
  27.4418044  30.9594703  48.6986399   2.4622391  52.5726748  59.0792513
   2.0722283  52.5186586  59.9517202   2.1142615  51.8120623  58.6138344
 107.0777119   6.4935595   8.7602112 106.3763107   6.7214448   8.1500122
 106.6262258   6.2935836   9.5802090   8.8688958   8.0506408  58.0017662
   8.8396275   7.8413850  57.0681763   9.1639549   7.2414970  58.4194469
  21.7313528  78.0158663  60.7470083  21.2429404  78.5827351  61.3439512
  22.4057412  78.5842323  60.3749990  19.5719206   9.4532520  64.4636536
  19.5937049   9.5171654  63.5088396  20.1407051   8.7107223  64.6670341
 114.0488259  58.9355469  58.1172466 114.6648799  58.3106041  57.7349424
 113.4161581  59.1056490  57.4193716  34.9268031  50.6671429  80.1822662
  34.1089129  50.2163553  79.9723244  35.4846406  49.9874544  80.5605125
  10.0952625  23.4500742  63.2848072  10.1899481  23.3566308  64.2327166
   9.8666865  24.3706894  63.1565285  90.9372635  38.4984016  52.8909588
  89.9937577  38.3504605  52.8266001  91.0903115  39.2938542  52.3809958
  84.7227259  53.6015654  56.0232210  85.6680556  53.6661243  56.1589289
  84.4090958  53.0839682  56.7648172  19.1436493  31.7079234  35.4009819
  18.6147702  31.2117553  36.0257506  18.8184762  32.6054287  35.4715300
 106.0087307  32.4508667  49.5302296 105.3902574  33.1805062  49.4935322
 105.5654640  31.7378068  49.0705633   8.8811463   0.2071515  46.3094330
   7.9990464  -0.1165772  46.1268663   9.0017903   0.0577617  47.2471762
  25.3749371  46.8539572  86.1145878  24.4959021  47.2194242  86.2143993
  25.7816958  47.3907614  85.4344273 103.3572216   7.9441029  26.8740487
 104.2582269   8.2500839  26.7701364 103.3608754   7.4656230  27.7030706
  10.3178799  21.4313030  59.8655081  10.1407814  22.3691130  59.7921562
   9.8907608  21.0463262  59.1002703  84.1226662 107.2022198  50.9462929
  83.4349055 106.8223144  50.3995848  84.9004639 107.2004644  50.3883839
  19.9662507  58.2784367  44.3984079  19.8138940  57.3363781  44.4728518
  19.1973436  58.6094713  43.9342594 114.9003692  45.3534460  32.5185585
 115.5526079  45.9680319  32.1822524 115.3736798  44.5260906  32.6062536
 100.6507225   2.8080264  21.9593382 100.6425579   3.5952207  21.4148283
  99.7889145   2.4141243  21.8238401  98.4855254  65.8376122  36.9158554
  99.4013448  66.1155176  36.9323921  98.0320521  66.5352011  36.4426088
 106.7894418  30.4743910  34.6272492 106.8740065  31.2161207  35.2263451
 107.0787831  30.8157563  33.7810922  80.5957504  12.0401812  40.1704884
  81.0285564  12.7183008  40.6892061  81.1797376  11.8994212  39.4252563
  28.5896921  42.9537058  66.5297174  27.6896524  43.0791616  66.2290192
  29.0028143  43.8091707  66.4125204 109.1855641  61.5916681  31.6493058
 108.3064754  61.9633198  31.5764403 109.6900763  62.0343494  30.9668589
 115.0985272  61.8086767  93.4144783 114.6874548  61.2190866  92.7823067
 115.8277963  62.2024965  92.9356194   5.2721876  34.5858002  81.0073376
   6.0932189  34.3832898  80.5588627   5.4115272  35.4561281  81.3806343
 101.5369816  56.6952324  78.1574345 102.3392601  57.0596647  77.7835798
 101.8331380  55.9492970  78.6790705  13.4399569  70.8825874  64.4074631
  13.9456820  70.1498652  64.7590208  14.0989459  71.4835119  64.0598106
  33.5562038  91.1425972  57.4117231  33.6015415  91.0587025  56.4592838
  32.9463005  90.4568672  57.6838017 107.1375485  51.8477726  81.9348240
 107.6814933  51.3022947  82.5029945 106.2399013  51.6547823  82.2054100
   9.8134744  56.9155216  96.1991310   9.2581475  57.4167585  96.7962933
  10.7066464  57.1643591  96.4369392  16.9027364  52.2632933  33.0508590
  16.5973234  51.4134979  32.7333665  16.9814253  52.7995586  32.2618961
   9.9169385  35.6780362  71.0788202  10.2705681  36.5597939  70.9618521
  10.2172434  35.1954293  70.3086615 115.4506464  28.1465101  48.9101887
 114.8002602  28.7547302  49.2613268 116.0001118  27.9233623  49.6615362
   6.7695457  50.5041742  76.9306517   7.4331510  51.1105728  76.6018057
   7.1147174  50.2044296  77.7716303  50.8897824 101.2421800   1.5001080
  50.4547340 101.9603254   1.9597027  51.6541440 101.6478445   1.0909340
 108.4708013  71.3434887  39.5834208 109.2436077  71.2627220  39.0244222
 108.5324766  70.6022453  40.1859093   8.3132958  63.6710405  66.0488462
   8.3059120  62.7162313  65.9816551   8.9225864  63.9544153  65.3671598
   2.9163715  41.6225338  59.8307753   2.5078097  42.3746443  60.2593040
   3.8359165  41.8710327  59.7363377   4.7337818  82.4412251  71.1893368
   5.4635102  82.5884438  70.5876303   4.9896577  82.8958321  71.9918966
  99.7218795  64.8793888  50.6143045 100.4193540  64.3382406  50.2442741
  98.9666469  64.7159290  50.0493860  12.6849842  55.3616238  57.0163107
  12.4303746  56.2743950  56.8812132  11.8555021  54.8920965  57.1042681
  14.0493214  50.6617498  80.0889301  13.4998262  50.8998060  79.3421936
  14.8050225  50.2217865  79.6995974  39.8857208 102.3348619  13.7233040
  39.4867333 103.0456449  13.2214806  40.5973085 102.7536442  14.2075607
  22.2132158  68.2371330  62.4215126  22.8199601  68.6263800  61.7917681
  22.7715802  67.9404211  63.1401348   8.8761449  46.7839670  25.6799269
   9.2892259  45.9216213  25.7241273   9.5176256  47.3771477  26.0709143
   8.2048935  64.9867153  80.7248020   8.2530355  64.0618467  80.9667206
   8.3974218  64.9993801  79.7872496  80.8902021  17.3230314  71.8182468
  80.1504846  17.5628424  71.2600899  81.4416476  18.1052613  71.8342543
   1.9355641  58.6435509  71.5214443   2.0293653  59.3547201  70.8876705
   1.5994886  57.9084969  71.0086250 117.3943434  81.7435455  65.4480553
 118.2481306  82.1435165  65.2828026 117.2948010  81.7759514  66.3995171
  34.7719187 101.8474867  15.7719967  34.5758301 102.4721290  16.4702866
  33.9298225 101.6957285  15.3429577 114.6511744  73.8098526  68.4787846
 114.7452350  73.6717033  69.4212818 113.8149704  74.2663240  68.3858967
  22.6265311  52.5719547  34.7198176  22.8669930  52.5813770  35.6462741
  21.7131591  52.2857237  34.7123337  13.5336661  79.2459011  70.3226709
  13.7396801  79.3310785  69.3917942  12.9086602  78.5221243  70.3644085
 113.6853652  63.7264061  72.6104259 114.0171160  63.6630154  71.7147970
 114.1816400  63.0680990  73.0968189  72.5884147  68.5387564  57.0139408
  73.2568021  69.0935326  57.4160814  72.3624463  67.9045486  57.6943445
  13.6872649  48.4436226  50.2569103  13.6708832  47.9164028  51.0556602
  12.8037179  48.3619690  49.8978710 116.6879794  55.7746124  66.2047863
 116.6484678  54.8359251  66.0216427 115.8968227  55.9529543  66.7132139
  48.9137125  63.7775183  73.0246639  49.2749023  64.4554853  73.5957432
  48.7787247  64.2180204  72.1856356   8.7350386  45.7579613  94.2981148
   9.0230715  46.0664225  93.4389782   9.2877817  44.9972725  94.4771576
 110.3659011  51.3711977  61.8080521 110.5414517  50.6354904  62.3946905
 111.2302573  51.7326212  61.6118526  16.9801593  50.6513786  25.1680589
  17.7884853  50.9455109  25.5879712  16.7379797  51.3704872  24.5845652
  23.3939862  83.3294010  26.4070582  23.6626077  83.2800198  27.3244643
  23.0382466  82.4618435  26.2146187  82.3248263  84.9989510  32.4267411
  83.1260438  85.3187847  32.8414583  82.6160355  84.6388626  31.5890265
 113.1586935  44.6313715  84.3571186 112.5765796  44.2603016  85.0202084
 113.1447734  43.9944506  83.6427212   7.3022723  30.0048375  69.0776062
   6.5016413  30.4222989  68.7598801   7.2660041  29.1163921  68.7232304
  10.6623220  67.6169252  71.3932371  10.5037034  68.4250259  71.8811369
  11.6110492  67.4959517  71.4321470  17.7459598  66.9654799  54.2883015
  17.4792385  66.2495995  53.7115812  17.1634507  67.6889944  54.0571260
   2.3630342  41.1331797  73.2738972   2.3633823  41.2529707  72.3242235
   1.7871127  40.3828001  73.4204483 101.3697143  63.8882303  65.2621508
 101.3392945  63.3117628  66.0256910 101.1080523  64.7453165  65.5985594
  21.2521076  71.2940311  65.8302402  20.3876042  70.8951139  65.9288740
  21.1122131  72.2204113  66.0264206   0.0280496  33.5922599  72.5899315
  -0.0503352  33.8888001  73.4966564   0.6758958  32.8884029  72.6232862
  56.4598812   3.5467202  13.8083241  55.6839360   3.3603150  13.2797501
  56.1938823   3.3419902  14.7047398   5.4528314  69.6618366  90.5033779
   6.2125361  70.2351141  90.6055355   5.7803422  68.9180136  89.9977207
 107.0707221  37.0057011  78.0502701 107.5750680  36.5636039  78.7332153
 107.0576997  37.9243493  78.3188677   4.5797950  38.8543463  83.4948635
   4.8113728  38.0758739  82.9883194   4.7174755  39.5833588  82.8900337
  33.0145311  93.4584904  28.0445361  32.5801945  92.8326511  28.6241102
  33.7581253  92.9751968  27.6843548   6.4990926  83.0567646  59.0416956
   5.8002359  83.1668377  59.6864557   6.2647140  82.2584820  58.5683632
   3.4154630  64.8594093  63.2013893   3.2938486  63.9319515  63.4045172
   2.6306987  65.1018524  62.7098608 108.6052306  75.7649708  72.5468969
 108.1981118  75.8488560  73.4091330 109.5121099  76.0395956  72.6824903
  14.5381749  38.9646721  53.6879301  13.7264729  38.6676168  53.2766724
  15.0394535  39.3566561  52.9728746 114.6646129  51.2381506  39.7910857
 113.7355371  51.0431004  39.6685958 115.0112624  51.3203001  38.9026523
 103.7150521  26.5660024  57.6641655 103.6706908  25.9404278  56.9410372
 104.0214021  26.0492945  58.4094143   6.8314373  40.8232260  17.1927118
   6.7890060  40.3357983  16.3700032   5.9203237  40.8910131  17.4782073
  87.3177047  53.7934589  56.2308168  87.8958173  54.4614792  55.8623457
  87.5978394  53.7106180  57.1423483  32.6656127  49.4511604  78.9452934
  31.7729354  49.1241407  79.0567446  33.2123971  48.6657047  78.9630747
   8.1038499  52.5363874  47.7252197   8.3094966  53.4629679  47.6011801
   7.5728840  52.3047924  46.9632006   1.1712351  75.6078386  39.5116067
   2.0293236  75.2076054  39.6520782   0.9672363  75.4216242  38.5951233
   4.2274246  28.4996676  60.8259058   3.8302180  28.6366725  61.6859579
   3.4863091  28.4780741  60.2204990  22.7131057  50.2468252  20.2130508
  23.5825443  50.4391003  20.5642438  22.4245381  51.0719109  19.8229218
  28.3674288  36.1817575  33.9543700  28.4256959  35.2718830  33.6628795
  29.0130877  36.6458058  33.4214401  -0.0888933  95.3800964  67.1634865
   0.4836333  94.6237946  67.2917747   0.0738721  95.6532955  66.2606573
  47.2444534  34.3421793  67.1794796  47.4036741  34.9393606  67.9104090
  46.8793297  34.8981380  66.4911318 111.0501124  74.5637941  90.7533455
 110.5841727  74.9879217  90.0327587 110.6686027  74.9464798  91.5434361
  28.2347655  45.6116676  41.7624283  28.3099937  45.0827646  42.5566769
  29.0298629  45.4146004  41.2672377 108.7590314  16.2445569  42.2932577
 109.1372485  16.5549743  43.1159544 107.8484638  16.5382385  42.3223925
  11.5079331  47.1112871  59.1255331  11.1772895  47.6119280  58.3797026
  11.1722672  47.5747633  59.8928356   9.2199123  62.0070553  84.7863579
   9.1997343  62.6750326  85.4716587   9.9214864  61.4125204  85.0519848
   6.5197486  41.3030100  76.2115908   5.6462622  41.6018486  75.9587049
   6.4017135  40.3797197  76.4348173   1.3367669  49.3314505  45.8745670
   1.5059596  50.1423597  45.3949499   0.5395641  48.9803743  45.4777718
 113.8406826  59.1134834  18.5947621 113.0988832  58.7087727  19.0444005
 114.5876796  58.5577869  18.8170862  21.5653086  83.9967632  43.6799955
  21.7810345  83.5333824  44.4893026  21.1236262  83.3418083  43.1394529
  11.9024336  56.1428642  83.5768700  12.6387513  55.9326839  83.0025101
  11.3048470  56.6476488  83.0252171  15.1360166  68.9652348  65.5932760
  15.7364011  68.2369089  65.7523823  15.3803444  69.6235323  66.2437963
  99.4810708  34.2110825  70.2756119  98.5389884  34.3731141  70.3251839
  99.8534889  34.7473264  70.9755993  19.5650434  62.3801279  47.0257521
  19.9118245  63.2250166  47.3123550  18.6585748  62.5643492  46.7795610
  41.3622093  38.7753963   3.5639733  41.3390398  38.2494783   4.3634135
  42.2411060  39.1543770   3.5519832 116.4368504  25.5636072  34.9612117
 117.2702819  25.8938003  34.6256566 116.2063718  24.8484230  34.3682337
   8.5327256  81.2599182  63.3428192   7.9068351  80.9498119  62.6883507
   8.1867558  82.1074963  63.6223793  52.5599957  45.8932161  53.2827187
  53.1317616  45.7540989  54.0376759  52.2169256  45.0232410  53.0785608
   7.0141035  73.3707714  41.5536594   6.9283664  72.5183439  41.9805574
   7.5803983  73.2052755  40.7998991   1.9978556  60.5979586  43.2135820
   2.7599227  61.1343575  42.9950476   2.3671538  59.7627258  43.5003567
  17.5571489  58.4406853  91.6861725  17.9333198  58.9574528  92.3986816
  16.6765678  58.7976360  91.5704250 116.7903420  65.2248383  27.0074749
 117.1066977  65.9927702  26.5316272 117.3560156  65.1705503  27.7777338
  18.8278162  76.5393686  64.1449118  19.5264590  77.1936369  64.1369295
  19.2069495  75.7897043  64.6037102  21.0172248  77.9650450  50.8419371
  20.6400347  78.5238171  51.5214491  20.9254360  77.0760250  51.1846495
 112.2643866  20.1272321  62.8812456 112.0523555  20.8143330  63.5130453
 111.7019017  20.3116632  62.1290302 106.3340743  18.0107844  26.7068696
 105.9008677  17.1603334  26.7796469 107.2342427  17.8458381  26.9874430
   0.6247624  79.5920944  47.1766424   0.6383413  79.8280334  48.1042099
   0.9733686  80.3626537  46.7283773  26.4415097  20.5548978  90.9132767
  26.1503959  20.1533580  91.7319679  25.6341600  20.8436489  90.4877853
 111.4757825  45.8828115  40.0192451 111.2197848  45.8538580  40.9411240
 110.8280303  45.3369236  39.5735383 115.7047214  44.2875671  78.7677765
 115.7064177  44.5659208  79.6836090 114.9708329  43.6763000  78.7045908
  25.5832005  50.6392765  44.8419714  25.8197594  51.5102339  45.1608849
  25.4039216  50.1343155  45.6351376 115.7552944  69.7110415  82.6456070
 115.8634625  69.8483133  83.5867119 115.5661283  68.7766266  82.5600338
  11.0168743  49.9033833  53.5858727  11.5311718  50.5298996  53.0767441
  11.3672912  49.0479612  53.3374929  12.9019487  93.2693577  79.6058130
  12.0292532  93.3522701  79.2214203  12.7489853  92.8748608  80.4644203
  99.6413620 101.6540241  52.6022196 100.5344327 101.5685177  52.2685385
  99.5386107 100.9162521  53.2033491   7.0483130  72.9328203  92.7489853
   6.2555254  72.4316311  92.9401112   6.9202352  73.2522345  91.8557835
   8.4908390  41.5559530  72.0436668   9.2647201  41.1226511  72.4036503
   8.8425541  42.2324705  71.4650011  96.9593663  70.6682253  86.8199062
  96.0088463  70.5571127  86.7999840  97.1378489  71.0506821  87.6790333
 104.0329452  51.6700363  39.2631245 104.0927465  51.3583326  40.1661730
 104.8475833  51.3776064  38.8543653 105.3697403  55.6004238  90.2807140
 104.5322032  55.3892803  90.6932449 105.3053100  55.2255964  89.4023132
  18.8666689  65.6437397  95.8035946  19.6071684  66.2470007  95.7406139
  19.1504276  64.8653460  95.3242111  27.1057773  40.2273512  91.4625263
  28.0472922  40.3103876  91.6137981  26.8952036  39.3376493  91.7459297
   6.4949971  46.6902065  62.2935867   7.0396328  46.0598183  61.8221903
   6.7673045  47.5428438  61.9543314  99.5204730 101.4781475  57.9904127
  98.6337109 101.2291622  57.7298641  99.7719832 102.1576881  57.3649502
  30.4432607  43.9466190  82.8709984  31.2081313  43.4860754  82.5258732
  29.6946788  43.4706736  82.5113678 115.0390084  84.8627758  88.7679386
 115.8291913  85.0631046  89.2696381 114.4271548  84.5115757  89.4148731
   9.6670300  36.8819094  60.2195406  10.1430237  36.3560510  59.5767832
   9.2601395  37.5788045  59.7047520  86.1087032  83.2679749  69.2981100
  85.8326407  84.0017891  69.8472261  85.5201335  82.5529766  69.5401907
  21.8905973  47.8939152  56.6670322  22.7846837  47.6058006  56.4831114
  21.3451672  47.1397448  56.4435005  19.9074244  58.9393377  26.6761971
  19.5720589  59.4094086  27.4396062  20.8330941  58.7941980  26.8719006
  45.0302500 107.8818084   2.9330608  44.4352031 107.2246553   2.5720856
  44.7182149 108.7115623   2.5719807   5.8772790  94.5344543  47.2915125
   6.1534381  95.0716591  46.5489626   6.5988481  94.6012020  47.9169035
  16.9812799  33.7076640  56.3612461  16.5760636  33.1044531  55.7382154
  16.2520683  34.2258215  56.7018223 113.2158829  39.8235488  48.3360147
 114.0457199  40.1310539  47.9712677 113.4687702  39.1757321  48.9937496
  74.1939650  13.2231147   1.6085598  74.0133254  12.5922543   0.9116909
  74.9464650  13.7220961   1.2907669  11.7524791  96.2668133  41.5005398
  12.1869540  95.6925583  42.1311665  10.8187056  96.1562157  41.6796160
   8.0929273  37.3105478  83.8106060   8.9528120  37.2933245  83.3904457
   8.1755853  37.9711699  84.4983387  31.8192577  84.9593258  66.8031883
  31.3613605  84.1697979  66.5147257  31.2228703  85.6754303  66.5846634
  45.1432276  92.1697044  30.6578183  45.2560711  91.5789223  29.9131846
  44.4817686  91.7439747  31.2032223 113.2108135  82.4237347  42.1350288
 112.9845102  81.6795731  42.6929283 112.8332032  83.1814766  42.5816393
 118.4345260  48.1772804  36.5586400 117.6727391  47.6528406  36.3119054
 118.5387344  48.0214500  37.4973035 113.9091338  51.7202663  73.7447119
 113.1232364  52.2559547  73.8525915 114.5952083  52.3457479  73.5116816
  40.6398869  74.5965815  71.4359570  40.4922485  73.9322615  72.1090984
  41.5615654  74.4958067  71.1980677  98.4827550  48.0280447  64.1625071
  99.2369600  47.6472139  64.6123648  97.7272864  47.5721025  64.5334721
 110.5126782  82.2391319  70.2783442 109.6668382  82.6669216  70.4117012
 111.1556430  82.8796864  70.5825090  73.0841930  30.5485780   2.4266979
  73.1445945  31.2084157   1.7359039  72.8835250  31.0481030   3.2181809
  33.5942841  92.5579929  68.7611437  34.0396476  92.3988819  67.9289389
  32.6647091  92.5835419  68.5342741  12.7929628  40.9479904  55.1845741
  12.1168280  41.4286041  54.7069931  13.1981838  40.3853273  54.5246983
   6.7044884  51.6945410  57.7623987   6.5958798  52.4768305  57.2216082
   6.2038416  51.8810177  58.5566330  31.7194707  14.5020537  45.8721876
  31.8871171  13.8405757  45.2009439  31.0108752  15.0350242  45.5115366
   8.9071399  76.4300537  71.4811850   8.6703432  75.5027485  71.4976025
   8.1094629  76.8857431  71.7500544  14.7437024  68.0586481  50.2717924
  15.0831091  68.2950544  49.4085741  13.9984953  67.4867821  50.0877619
 115.2057607  99.6780586  76.1073685 114.2544748  99.5834637  76.0590219
 115.5395956  98.7843513  76.0294771  25.8714294  49.8932981  77.3952341
  25.9160304  48.9372826  77.3786640  24.9364281  50.0884008  77.4580097
   1.5754472  71.5157700  39.9994993   2.1225666  72.1917820  39.5996261
   2.1832350  70.9956694  40.5251646  26.0931063  59.7555351  82.9434013
  26.2162876  58.8479567  83.2215405  26.9796634  60.1127815  82.8922176
   8.4084076  75.4352808  42.4127293   8.4342265  74.9192762  43.2185221
   7.9383510  74.8819542  41.7889452 116.3819344  49.8152399  26.2474680
 116.8773809  50.5829191  25.9620953 116.1835796  49.3438387  25.4383516
   2.1447706  64.5028257  40.9772015   2.7769980  65.0087547  40.4667568
   1.4650148  65.1349163  41.2109137   4.3880621 110.2503109  57.3263931
   5.0034821 110.3129196  58.0568504   3.5985506 110.6914711  57.6398945
  27.5454235  40.4014063  34.3845129  27.1026134  40.3954697  33.5359168
  27.2438812  41.2059641  34.8063993  20.1001024  44.9618626  27.2849655
  20.7179880  44.2317533  27.2477007  20.3418803  45.4400015  28.0781627
  91.7045374  60.3832340  47.7975845  91.1907978  60.3652668  46.9901323
  91.9239063  59.4661951  47.9623461  50.6323242  41.1338806  64.0726662
  50.5268526  40.9334517  63.1426477  51.2101841  40.4455137  64.4019985
  32.1271300  74.9342203  78.6368513  31.2716770  74.9417257  79.0662384
  32.6647234  74.3616009  79.1839600  15.9501565  70.8124018  67.3170614
  16.6696656  70.8264589  67.9482031  15.4552603  71.6110039  67.5002098
   2.0798887  56.2957573  76.4703608   2.3253405  55.4050589  76.2200737
   2.5562036  56.8564796  75.8580303 116.1789294  90.6123734  64.3681955
 116.8682752  91.2740993  64.4243193 115.6251587  90.9042072  63.6440420
   7.3349035  45.1058102  40.3963184   7.7134806  44.2364264  40.5270290
   8.0699742  45.7073927  40.5146360 105.3031345  31.1468816  19.9612141
 105.7693584  31.7114329  19.3446529 105.0711019  30.3725457  19.4485795
  42.5039334   5.4863792  44.8244905  43.1713605   4.8002582  44.8282766
  41.7436049   5.0786166  44.4099283 113.4684615  47.5184393  36.3040829
 113.4959789  47.8339052  37.2073841 112.6569994  47.8807783  35.9484553
 107.5300904  48.4116077  62.6733208 108.2772489  48.4288597  63.2713938
 107.2433515  47.4983644  62.6745415 108.5827853  41.0136557  51.8041611
 109.2860956  41.5311193  51.4119673 107.8202446  41.1891556  51.2528324
   4.2615479  69.0145540  71.8350172   3.4136677  69.4430256  71.7177820
   4.0478012  68.1572723  72.2032738  19.4378793  98.0449390  29.8881602
  19.9490595  98.5422421  30.5266094  20.0625205  97.8319645  29.1948366
 111.8736865  53.5621309  87.7445030 111.6041680  54.4615936  87.5585938
 112.7045496  53.6526442  88.2110882 115.1954703  73.0489349  70.9880638
 115.9451592  73.6171865  71.1649466 115.4877524  72.1771049  71.2539864
  17.7789211  48.8686132  80.3693867  18.3688903  48.1378460  80.1845932
  17.3357487  48.6194658  81.1804104  16.4928138  38.5431838  64.5273972
  16.1805356  38.2238364  65.3739929  15.7255530  38.9534068  64.1283226
   9.9820054  79.0441036  62.1405077   9.3603486  79.5371103  62.6759672
  10.0181985  79.5236254  61.3128710 109.3638916  49.1327286  53.2835484
 109.7805507  48.2889795  53.4587908 108.8975711  49.0026665  52.4577999
  43.4244806  97.8787996   8.2848236  43.8553068  97.6162149   9.0982601
  43.5999144  97.1596863   7.6779244   5.3448123  63.0866146  48.5820818
   6.2812036  62.8988743  48.5176086   4.9895784  62.8280210  47.7316904
  13.4822774  29.5366788  68.5294628  13.3567047  30.3927493  68.1200647
  14.1905928  29.6736264  69.1585636 111.6977639  63.5816383  39.5782638
 112.1027554  63.9269161  38.7826514 110.8489014  63.2469320  39.2890668
  20.2424884  67.4457455  71.2455034  19.9323642  68.2213783  71.7128849
  21.0138083  67.7476454  70.7657623   8.4437507  72.1456194  81.7407036
   8.5585082  71.8149233  82.6316071   7.8669393  72.9031706  81.8388653
  19.5185113  77.6744843  36.5502095  20.0294685  78.4830666  36.5869474
  19.5420146  77.3354435  37.4450445  14.5039797  54.9117708  64.9756670
  13.9378989  54.7916508  65.7381344  15.1165974  55.5988550  65.2380562
   6.0643774  65.5140686  60.7890797   5.2464533  65.8469868  60.4197598
   6.7451853  66.0566854  60.3912115  43.5861444  52.8993511  51.5685511
  43.4717274  53.7493277  51.9936132  42.8169775  52.8072596  51.0062981
   2.1548706  46.4303493  55.3593874   1.6301107  46.3034630  54.5689726
   2.8584152  47.0198059  55.0877285   3.2032645   4.3900463  75.7553005
   3.4700736   3.4881747  75.5773306   3.5019651   4.5561865  76.6493940
  23.7308836  27.3764682  55.5623007  24.1039872  27.9806352  56.2041807
  23.4934187  27.9322433  54.8200369   4.5006284  47.6144838  47.8775454
   4.6186674  48.1920624  47.1234226   5.2813697  47.0607042  47.8796244
  92.6449390  72.2074747  86.7754173  93.2482429  71.4916992  86.5756035
  93.0856796  72.7074766  87.4624252  21.2851524  59.9558640  58.8625860
  20.7779312  60.3511095  58.1535435  21.9122624  59.3847609  58.4189606
 114.8971908  55.2324867  63.0387449 114.4226594  54.6958256  62.4038839
 115.7496087  54.8054123  63.1237316  13.9316761  99.7594643  76.7656755
  13.4093428  99.8659420  75.9706545  13.9285648  98.8164520  76.9297934
  18.0795407  14.6203113  66.1453485  18.0568957  13.8455129  65.5837393
  18.9809370  14.6580338  66.4651823   9.7854155  30.7150578  50.5824995
  10.3259516  30.8521581  51.3604832   9.5497745  31.5974665  50.2960348
  36.3395452  37.7061534  82.6581001  37.2595191  37.4987578  82.4941921
  36.1545396  37.3158360  83.5122967  24.8612952  20.1127028   2.1006218
  25.6348610  19.5681989   2.2467177  24.1220474  19.5202398   2.2374947
 115.6362601  47.2107840  56.5505934 116.0004228  46.4163399  56.1601114
 116.1394435  47.9235411  56.1568642  43.4486961  15.3589153  44.9836206
  43.7993240  15.3657627  45.8742666  42.7304745  15.9913480  45.0040960
  15.5777049  75.6335783  42.5818968  15.5068469  76.5689564  42.7723503
  14.7770607  75.4259157  42.1001482   9.1259950  60.6589746  41.6642475
   9.6192282  59.8629045  41.4661789   9.4832027  60.9604549  42.4995565
  29.0994287  68.9232969  26.1751723  28.3368659  69.1322374  26.7146850
  29.8277020  68.8833714  26.7950559  24.5239496  64.3321371  54.6878624
  23.9655423  63.6275578  54.3592501  25.0691938  64.5744753  53.9393854
  22.0609236  95.3803921  62.1429729  21.1159062  95.2291298  62.1601057
  22.4240851  94.5834351  61.7567015  22.9607010  98.1384850  89.3260098
  22.5053954  98.5414314  88.5867119  22.3484278  98.2194233  90.0573158
  18.8580704  23.6351466  57.1831036  18.4214032  23.6661696  56.3318729
  19.4726086  24.3687725  57.1639204  31.1271882  38.0786800  47.4869061
  31.5804577  38.3658409  48.2795715  31.8175006  37.7075577  46.9373846
  34.3786168  46.7130327  31.5724325  35.3173470  46.8759012  31.6645741
  34.2766500  46.4019918  30.6729388  12.7606201  18.8075721  70.2109528
  12.3358214  19.0938735  69.4023705  12.3730624  19.3566644  70.8925152
   7.1705180  78.4006166  73.7527561   6.4922750  77.7457666  73.9182425
   7.9891044  77.9610062  73.9827347 116.5763602  44.2965841  58.3186388
 115.8465658  44.7365761  58.7545776 116.4132358  44.4300652  57.3849344
 117.7582955  58.4479380  69.8830843 118.4451449  59.0208054  69.5420647
 117.0464854  58.5228348  69.2475128 113.2831399  92.8181553  64.2208624
 113.8604285  93.4873104  64.5885563 113.7938072  92.4233818  63.5140324
 113.8564338  66.7441702  51.1354637 114.7121657  66.8369246  50.7167149
 113.4776302  65.9613943  50.7354546  30.0019121  50.7586670  44.2256212
  30.9526873  50.6717587  44.1570282  29.8570585  51.6927099  44.3766594
 114.8398976  65.0548506  55.5378866 114.0801538  65.3813362  55.0557804
 115.5722181  65.5798483  55.2149105  43.3642340  38.7129951  58.8360834
  43.7368202  39.5929623  58.7807035  42.7841377  38.7459540  59.5967674
  80.6163306  38.6425447  44.6723509  80.1723047  39.4616628  44.4529867
  79.9101348  38.0014443  44.7530127 117.4770348  92.1813488  30.0365448
 117.0607163  92.8524494  30.5774140 117.0659932  91.3621902  30.3126812
  12.5508177  69.4971895  67.8931999  11.7969048  68.9907312  67.5909615
  13.2003033  69.3984938  67.1970272  10.7401538  51.5139151  46.3805056
  11.3503611  51.9367838  45.7763004  10.0167894  52.1351814  46.4642048
  11.2997615  72.6972532  73.7340832  11.6523993  73.2160425  74.4570875
  11.3171124  73.2903337  72.9829645 103.8673659  68.8637114  47.0121908
 103.0546875  68.9130163  46.5088463 104.1154869  69.7768593  47.1565056
  31.7977810  97.8882790  54.9711847  31.9225693  97.0338821  54.5580626
  30.9075809  97.8571415  55.3216219 115.2013250 100.1406860  78.8742113
 114.3465467 100.5536461  78.9969015 115.2862357 100.0430393  77.9258013
  28.1891894  97.0905113  64.6922064  28.1600404  97.8679848  64.1346025
  27.2917914  96.7575359  64.6860123  17.9501760  79.8157644  35.4368615
  18.4636223  80.0525379  36.2092233  17.0515776  79.7452545  35.7590103
  30.8882403  87.5888729  67.0411444  30.6875515  87.9680920  66.1854887
  31.8444777  87.5871944  67.0840597  28.6216807 103.7943840  70.3749704
  28.4694409 104.3128395  69.5848703  28.8015151 102.9117012  70.0512791
  63.7657785  88.9020729  64.3726635  63.5146856  89.6066093  64.9700022
  64.3795633  88.3679390  64.8768520  39.8345304 102.9321766  59.3023777
  38.9541292 102.6240730  59.0874386  40.4177237 102.3472977  58.8185978
  34.2383671  82.1277714  74.9856329  34.1729045  82.2497082  74.0384865
  33.5514832  82.6878166  75.3472614   2.0346485  89.5201683  88.8288307
   1.4504462  89.3692017  89.5718956   2.5329804  88.7070370  88.7468815
  16.0660279  77.4696684  64.1738224  16.9722199  77.7666044  64.0908813
  15.5813563  78.2510281  64.4399023   1.2308190  86.4928150  81.5291119
   1.6139084  85.7154465  81.1227036   1.2466134  86.3049030  82.4675465
  10.9155095  81.2391281  74.2398310  10.0911844  80.8999348  74.5886374
  10.7609510  81.3230705  73.2989311  99.7299493  37.1790749   9.0288994
  99.6649970  36.5621335   9.7578690 100.6370653  37.1049172   8.7324593
  28.5907960  68.4461164  68.8319826  27.8655100  67.8230906  68.8770342
  28.4015036  69.0842009  69.5199108 116.9358022  75.1519203  70.9402895
 116.9758859  75.8725309  71.5690565 117.1683053  75.5519772  70.1023579
  10.1435375 109.8513508  83.9171410  10.1991653 110.7657623  84.1946030
  10.0252354 109.8957348  82.9683208  34.8416972  80.2437878  79.3675852
  35.0837970  80.2498341  80.2936459  34.8493648  79.3181181  79.1240597
 106.1977394  79.0013170  81.7187595 105.8396502  79.5498896  81.0208511
 106.9658942  78.5860348  81.3267040 112.5601168  58.1504965  60.1025295
 112.0414241  57.5670767  59.5486212 113.1902565  58.5515451  59.5039320
   1.5971436  56.3774824  70.0790548   1.2265323  56.3277054  69.1979170
   2.5385204  56.2619877  69.9498177  41.3965059   0.8806758  82.6142693
  41.1368730   0.9856372  83.5295868  41.3325103  -0.0607724  82.4536037
 113.9295725  60.6839895  52.1177149 114.1666062  60.7819605  51.1955166
 114.0935521  59.7608328  52.3103905 102.8558625  11.6341407   7.7740738
 103.4563244  11.8661935   8.4824726 102.3655642  10.8845240   8.1115887
  15.6972933  83.9207554  86.3835621  16.0932708  83.6443233  85.5571175
  15.9034514  84.8532867  86.4478302 105.4500981  70.2405882  54.1232061
 105.8393700  70.3489065  54.9909401 104.6431108  69.7509527  54.2821407
  90.6497718  35.2824551   2.8287575  90.8777464  34.6676404   2.1314308
  91.0420729  34.9068505   3.6169502  40.7363648   8.6981921  74.5558882
  40.8387876   7.8266578  74.9382210  40.0988611   9.1343265  75.1212215
  13.9441764  62.2749138  61.8354273  13.4431493  62.3408365  62.6483631
  13.2824004  62.2929382  61.1440849   3.9959684  62.9231977  65.4643536
   4.6688002  63.5605812  65.2250481   4.2022061  62.6851702  66.3682604
  12.8419316  96.2140846  67.6648092  12.2554517  96.8392086  67.2387934
  13.6652541  96.2912178  67.1827078  99.8085745  72.0502710  67.5679922
  99.4232567  72.3334074  66.7387772  99.1196079  71.5362453  67.9891062
  12.3409557  82.6672745  44.6989918  11.4791560  82.3183918  44.9266291
  12.1667075  83.5596848  44.3998909  16.1681914  74.2325115  69.5943880
  15.6665444  75.0209332  69.3870783  15.7353735  73.5363770  69.1001272
  36.8259573  61.5096235  71.2032604  36.9885826  61.0417747  72.0223522
  35.9838200  61.9440174  71.3386822  51.7022514  25.7961464  22.8094721
  51.1061573  26.1364627  23.4766197  51.3250828  26.0884809  21.9797039
  13.9787662  53.3359957  38.6127424  14.3784320  52.4880600  38.4190702
  14.3988776  53.6188650  39.4249773  48.7629747 103.0881119  55.2044249
  48.6423588 102.2692776  55.6852484  48.8336420 102.8197575  54.2883348
  11.4819014  56.8329430  67.1722078  10.8759379  56.0921049  67.1861410
  11.1768794  57.4051380  67.8763294  31.7780828  98.4498119  59.0698862
  32.7124977  98.2786179  58.9524460  31.3437200  97.7133751  58.6395168
  12.2941411  45.8069897  67.0053339  12.6170075  46.6700077  66.7461205
  11.5691829  45.6323051  66.4052057 114.7920702  69.1803980  88.2378006
 114.3067975  69.9785376  88.4468842 114.1241614  68.4954929  88.2056236
  12.3217905  89.3225574  51.3376427  12.4086452  89.6977139  50.4613161
  11.4232361  89.5260334  51.5973091 117.3111565  71.6337109  65.4583836
 117.1860954  72.3248148  66.1087418 116.9264942  71.9871664  64.6563005
  59.4845915  74.2806435  72.2408342  59.0800714  73.5626745  71.7538929
  58.7949705  74.5902824  72.8280067  25.3611636  96.0539532  41.0998058
  25.3877401  96.9221973  40.6977224  26.0461736  95.5601883  40.6490421
  99.0093751  74.7796822  29.1062617  98.5123952  75.1900148  28.3985376
  99.6768291  74.2589140  28.6595631  18.7344944  22.8881884  59.9389553
  18.8122296  22.9668307  58.9881659  18.2500029  23.6696386  60.2051067
   1.8764934  69.4915438  81.5633488   2.5878856  69.5558786  80.9261513
   1.8549833  70.3501940  81.9858265   8.3928317  97.6567650  32.7826500
   8.8692296  96.8689346  32.5207329   7.8964907  97.3903561  33.5565376
  25.3232384  84.9987984  90.3637981  25.6938004  85.5695915  89.6906662
  25.8676243  85.1539898  91.1356735   1.5144166  56.4935064  32.4053645
   1.6497789  55.6864738  31.9087696   2.2399190  56.5152884  33.0293870
  48.3086133 102.9471828   9.1312954  47.6185006 102.8432848   9.7864124
  49.0087235 103.4094383   9.5921585  30.6112289  90.8017921  18.2344425
  31.2136769  91.2378597  18.8370490  30.1717305  90.1419830  18.7708402
  45.4747486  87.5877857  57.9461670  46.0160160  87.1869469  57.2660208
  44.6925116  87.0374870  57.9850388 116.6267408  76.7573786  81.2802410
 117.1531086  77.0875788  80.5521393 116.4830522  77.5219250  81.8379688
  39.1243529  57.5211811  83.6215591  38.6702037  56.8952847  83.0574417
  38.5424089  57.6320934  84.3734074  38.4775679   5.3423648  45.1309061
  38.6154706   4.6228271  44.5148849  39.0035072   6.0614638  44.7808790
 117.4057081  96.0502052  49.1093683 117.6164947  95.9076023  50.0321150
 118.2078444  95.8175659  48.6417246   9.7650117  64.9992609  44.2498064
   9.1647726  65.5435991  43.7402534  10.0552094  64.3240261  43.6365604
  26.1143064  83.3950710  85.8795452  26.7396665  84.0184498  85.5099964
  25.5784631  83.9182568  86.4756870   9.7456557  95.8672523  56.9859457
   9.2274022  96.1071968  57.7541113   9.7666693  94.9104023  57.0005465
  17.9142785  73.1934595  85.0230408  18.3774877  73.8205481  85.5784035
  17.0310569  73.5531521  84.9407482 110.6128652  91.2362194  78.4143019
 111.3975687  91.3289928  77.8740549 110.3319283  92.1352005  78.5849905
  15.0804305 107.8108978  73.6383009  15.0501692 107.0428753  74.2087841
  15.9766006 107.8244877  73.3022547  77.3860450  60.3820086  61.6972589
  76.5972610  60.3666258  62.2393036  77.7308507  59.4906759  61.7507648
  26.1883283  67.0171881  69.2641020  26.2448215  66.0616589  69.2647648
  26.0818315  67.2514677  70.1860571  17.8927469  60.5151415  80.1396751
  16.9592154  60.6079960  80.3297520  18.3253789  60.6811285  80.9772396
  43.8382483  89.8835373  60.3927040  43.3732748  90.4267311  59.7563314
  43.7730074  90.3690338  61.2150526  18.6620331 106.2278557  44.0294886
  18.4237683 105.3450489  43.7464285  19.6078551 106.2767696  43.8907099
  34.8304367  81.1124706  65.6416225  35.2764082  80.2767181  65.7789564
  35.5372977  81.7375660  65.4808903 104.4601126  75.2670288  46.5450096
 105.2051802  75.1815128  47.1398163 104.6946867  74.7295809  45.7884645
   2.7150255  84.2659569  69.0643358   2.6242465  84.3834114  70.0099516
   2.2177932  83.4707451  68.8729286  54.2358822   2.4305015  52.3758173
  53.3857650   2.5526385  51.9531870  54.7185213   1.8560462  51.7814398
 114.7303237  61.3646746  44.5871067 114.3377264  60.7209635  45.1768017
 115.6714936  61.2921524  44.7457647  21.8585730  44.3044758  67.0893717
  21.2916517  43.7739563  66.5295649  21.3783717  44.3796396  67.9139853
  18.9756167 109.1996956  43.7411880  18.9675975 108.2426643  43.7573862
  19.7783148 109.4403553  44.2037773  14.3557763  81.1623764  52.5730944
  14.8694420  81.4368057  53.3327484  13.5007977  80.9280109  52.9340839
  80.2082235   5.0072341  59.4208097  80.0918705   5.9092765  59.7191811
  79.5643026   4.9016719  58.7204885  17.1537399  33.5169411  96.2167740
  16.6664529  33.4570336  95.3950691  16.5315521  33.8968992  96.8370533
  34.2977834  87.0495892  63.4952021  34.2342591  87.9977131  63.6103535
  35.1878452  86.8336391  63.7733793  16.9676995  45.1255083  50.8990717
  16.8720508  44.9752522  51.8395567  17.4632478  44.3692350  50.5848789
   3.6721575  46.3308382  61.8365526   4.5453295  46.3822603  62.2253418
   3.5429239  47.1849155  61.4241457  28.6698651  60.9550619  83.5366154
  29.1087198  60.1101351  83.4379292  29.0093565  61.4868164  82.8167439
  39.7216773  82.3820591  86.5287495  39.9602103  82.4910831  87.4493217
  40.3863287  82.8763008  86.0489559   8.2614338  99.0006924  30.4060364
   7.9825962  99.8486710  30.7516003   8.2309675  98.4127426  31.1607695
  29.9922657  79.1357374  64.2393780  30.9120560  79.1358852  64.5043612
  29.7742796  80.0613785  64.1303205 105.4403652   1.2247998  24.4808361
 105.9010495   0.3990084  24.3322537 106.0357369   1.8949563  24.1451904
 112.1058150  63.2570076  64.9844980 111.7239566  62.3794079  65.0000286
 113.0503644  63.1065845  64.9466705   6.2637383  67.6277876  38.1309843
   5.5693573  67.1912241  37.6375484   6.5176326  68.3696461  37.5819659
  37.6972604  84.4568920  29.8585272  38.1771755  84.9182034  30.5463529
  38.3747339  84.1635990  29.2492318  22.8475666  50.1685286  75.4171944
  23.0670905  50.9562731  74.9197006  22.9846954  49.4496441  74.8002434
  26.0681295 104.5463562  54.7047710  26.6496634 105.2766800  54.4934130
  25.2715158 104.9621868  55.0345087  16.8089855  52.1778011  57.6994228
  16.9229424  52.3968554  56.7746210  16.1008573  52.7497339  57.9955387
  10.8715367  71.7040443  40.1428747  11.1009717  70.8056307  40.3804493
  11.2360203  71.8202877  39.2654490 108.4137560  84.9691963  63.9365959
 108.4801115  85.7886982  64.4267511 107.9902895  84.3612480  64.5426464
 114.7169842  65.9811831  22.7840996 114.1290332  65.2298689  22.7062058
 114.6211116  66.4474535  21.9536567  91.4577956  85.0780773  23.8968873
  92.1717925  85.6401253  23.5959816  91.0471482  84.7611523  23.0924273
  16.2745214  89.9877930  68.3943605  16.1289060  89.2128849  68.9370823
  17.2102547  89.9673557  68.1938171 106.1598570  16.9977431  42.1816444
 106.1374218  17.8771453  41.8043089 105.6655819  17.0746093  42.9977417
   9.7863078  76.2934065  80.2188873   9.9436110  77.1901512  80.5144119
   9.3825310  76.3927031  79.3567181 105.4920996  20.2053172   1.6859695
 105.4881895  19.5134122   1.0245487 105.7939900  19.7718722   2.4842236
  46.4130259  43.3324718  62.5841141  45.8489895  43.0464363  61.8655872
  46.1071634  42.8338575  63.3417797  58.7525934   6.9698482  54.0716887
  59.4872362   7.5469642  54.2801619  59.1455144   6.2515693  53.5757780
   1.0456430  85.4312992  76.6046858   0.9084590  84.7769356  75.9196901
   1.9968872  85.4872036  76.6954660 100.7728423  14.8663956   0.3585503
 101.3854636  14.6957213   1.0739491 100.0820602  14.2139108   0.4739639
  18.0238390  61.1384726  90.8477783  18.2615340  61.9979954  91.1955643
  17.9343927  60.5831099  91.6222477  29.6598005  56.8433237  79.6162033
  29.5252681  55.9897566  79.2044258  29.6443057  57.4652815  78.8887691
   3.0918068 111.0128689  31.2418866   3.2464635 110.8260250  30.3159237
   2.6380789 111.8556976  31.2436271  17.4981463  49.3604279  55.8499765
  18.1766093  49.2929029  55.1781416  16.6770840  49.3915129  55.3589344
  23.8685608  52.1656322  40.0525761  24.8171711  52.0543003  40.1156187
  23.5141301  51.5874815  40.7281113  32.7083135  82.8001213  89.3600464
  33.5443974  83.2493877  89.4839573  32.7109194  82.1038246  90.0168419
 114.3347700  55.4523277  52.9535913 114.6525295  54.8285532  52.3007774
 115.1229577  55.9009075  53.2598114  25.3709239  29.2930369  61.8535137
  24.5554704  28.8145976  61.7039824  25.1872308  30.1810699  61.5471077
  21.7812133  55.9965181  70.3681612  21.2242365  56.3411283  71.0661983
  21.1668968  55.6778431  69.7068787  23.5126352  46.3797188  27.5401616
  23.1727600  45.5997515  27.1015596  23.0277824  47.1056938  27.1475887
  23.1897616  82.6550770  79.8834181  23.0862689  82.3502254  80.7848549
  23.2441235  83.6078548  79.9575424  26.4379859  66.7098045  60.2309275
  26.0422802  66.3725519  59.4272470  25.8311462  66.4498806  60.9240484
  10.2396965  77.9689312  83.8744259  10.4960930  78.8002539  83.4751892
   9.4304007  77.7266121  83.4243679   3.7042567  94.7475815  22.9526639
   4.5000839  94.8379707  22.4285269   4.0019572  94.3584824  23.7749839
  36.9623637 100.0696945  72.0764112  36.0841966 100.2137184  71.7238379
  37.5508285 100.3626537  71.3806248  18.3858740  96.6254997  56.7110825
  17.9054677  95.8991814  57.1084499  18.3947027  97.3044300  57.3857737
  40.7581425  85.4214096  64.9436951  41.3140678  84.6971035  65.2310181
  41.0378313  85.5961418  64.0451002   0.3786692  74.7444963  56.2097073
  -0.2788555  74.3208265  55.6579876   1.0451853  74.0714884  56.3477182
   1.8966126  73.2887650  61.8695831   2.5702849  73.4848738  61.2184763
   2.3784056  73.1918478  62.6909924 100.2613111  79.2139006  92.1283436
  99.3185909  79.3563604  92.2132778 100.5442066  79.8615217  91.4827538
  18.3461368 109.1744995  61.5176773  18.2870162 108.2381058  61.3282251
  18.7185919 109.2176342  62.3983860  27.9953194  74.4583654  87.5836754
  27.8920031  73.5782385  87.9455280  27.3327041  74.5135403  86.8951035
  25.2084517  94.2446327  36.7966413  24.9531341  93.3264637  36.8861628
  24.4526124  94.6644592  36.3859320   4.1472778  93.0075741  57.1514797
   4.0228334  92.9017448  56.2083244   5.0965232  92.9827499  57.2720957
  33.9160085 103.4503078  39.9999881  34.4830990 103.5364914  40.7662868
  33.7954712 102.5064182  39.8961759  44.5742923   2.1653800  24.2252707
  45.3006685   2.3320346  24.8259664  44.2166642   3.0327373  24.0354347
 106.2040587  73.1411886  72.3746395 106.6253968  72.7723932  71.5983009
 106.8892462  73.1386423  73.0430269 113.6474271  99.8613644  61.4571428
 112.9763938 100.2138805  62.0416737 113.1683542  99.6066380  60.6685781
  65.0763369 104.5135880  75.6611395  65.6079769 103.7251759  75.5515671
  65.6101751 105.2159595  75.2897692  23.7507868  58.0239487  90.3609371
  24.6986175  58.1575346  90.3589439  23.4839034  58.1878471  89.4564342
  16.8500006 102.5465202  51.4705229  17.2893858 103.0306911  50.7714176
  16.9851375 103.0806255  52.2532797  20.1678538  74.7908497  73.5980415
  19.2286348  74.7339344  73.4223747  20.4235792  73.8969278  73.8255072
  33.5854530  74.3344927  64.6545792  32.9372668  74.1813850  63.9670849
  33.2281828  73.8906622  65.4237366  46.8555403  67.4492359  71.0006809
  47.3694277  68.2565928  70.9826469  46.2241936  67.5829172  71.7076159
  57.6106960  10.1685577  30.5192924  56.7483765   9.7556834  30.5659032
  57.7603060  10.3057628  29.5838666  37.2140288 105.8154583  51.5381050
  36.6426086 106.2067986  52.1988392  36.9009447 104.9148464  51.4537716
  27.3214030 100.6977177  34.9611950  27.1187091 100.0526524  34.2836761
  26.8701339 101.4927959  34.6775842  94.8838158  79.2718363  34.2126822
  94.2896815  78.5544968  34.4332623  94.9580879  79.7785807  35.0213408
  57.5588322  84.8563099  70.5005693  58.5025072  84.8257828  70.3431511
  57.3942518  84.1366673  71.1098862  51.6914034  87.1633625  52.3491335
  51.7630577  87.8662586  52.9949141  52.0716619  86.3996601  52.7831745
  42.5299692 101.6050529  79.4961500  41.7618275 102.0899296  79.1943550
  42.7284908 101.9806099  80.3539276  17.4501967 105.2926731  24.3728781
  16.5721488 105.4976273  24.0515399  17.6575589 106.0070133  24.9753356
  41.8069601  55.8959532  75.2176857  42.2039509  55.3945351  75.9298754
  41.5394020  55.2347326  74.5793819  54.8085690 104.8073673  59.4389105
  54.1779423 104.1697502  59.7735357  54.9214935 104.5719528  58.5180092
  53.1402063 110.3543758  48.3751822  53.5135555 109.4730091  48.3805943
  53.8942051 110.9331989  48.2625484  50.9219217  69.6469545  65.7689905
  51.1733007  69.6989250  64.8468494  49.9694920  69.5528936  65.7526684
  15.2730966  72.5433493  87.3018456  14.8930728  72.9034042  88.1031990
  16.1465335  72.2503328  87.5616074  23.9502716 109.6887398  47.9557562
  23.5221338 109.3743801  47.1594429  24.5542169 110.3661823  47.6515150
  76.0077960  20.0606494  94.4072151  75.1340300  19.9178939  94.0433693
  76.0802299  19.4199996  95.1147175  20.9953976  87.8329372  60.7393646
  20.5413008  87.8757763  59.8978233  21.3950920  88.6968422  60.8400965
 104.6099312  12.3298125  66.2940598 104.0370828  11.8521648  65.6941128
 105.4823047  11.9728332  66.1274338  68.3156729  81.7523098  71.6942072
  68.7550592  81.9218826  70.8608866  67.9455566  82.5982952  71.9463110
  67.1222455  19.0024047  52.2634840  67.0488030  19.2993217  53.1704998
  67.8681833  19.4884830  51.9120026  38.2728672  75.3502846  71.1111546
  37.7738571  75.3577232  71.9279575  39.1470003  75.0560570  71.3671875
  24.0885711  89.7228718  51.2669086  24.4131637  89.5034790  50.3935575
  23.4083629  90.3782654  51.1119652  44.7201777  80.8183002  72.4338913
  45.4848766  80.6772232  71.8757153  44.0342045  80.2783394  72.0413160
  46.3252670   0.0797992  27.6867318  46.8631512   0.6558948  27.1435690
  45.6643969   0.6580405  28.0676723  74.4579918  13.1642585  54.7368431
  74.8968941  12.8040748  55.5074692  73.6733968  13.5883384  55.0844097
  30.0675392  88.8849735  45.0880623  30.6231642  88.2045746  44.7078419
  30.6322789  89.3300056  45.7199240  54.5402247  10.3109317  33.0198050
  54.6471090   9.9989753  32.1212006  55.3054673   9.9713664  33.4838414
  34.2358351  92.9715347  50.9062290  34.7977090  93.1631470  50.1553535
  33.3586121  93.2261944  50.6201220  24.7038913  75.6079865  72.0149374
  23.7627268  75.4992485  71.8785048  25.1008415  74.8792791  71.5378141
  92.3163004  76.3533211  78.6240673  91.5349002  75.8064175  78.5431910
  92.8875656  76.0613632  77.9136801  28.3443713  96.4034081  44.8193502
  28.3776927  97.1270180  45.4450560  27.4116969  96.2083817  44.7281551
  67.7384377  96.3391209  57.6673126  68.0913401  95.8051300  58.3790350
  68.0181837  95.8901024  56.8695927  38.3227205  60.1654720  61.2761354
  37.8686118  59.4304800  61.6882086  38.2410192  60.8812332  61.9064045
  23.5493207 100.6345081  65.2705240  22.9623699 101.0237980  65.9187269
  23.4928179 101.2190342  64.5146275  37.2668624 101.6361046  59.2262268
  36.6229987 101.9517231  58.5921478  36.7788577 101.5617657  60.0463247
  71.1393356 110.8057976  45.1357746  71.3705873 111.7307091  45.0503635
  70.3197527 110.7179070  44.6491671  17.1529722  72.2156000  75.9893274
  16.7188215  72.6305056  76.7347097  16.9701183  71.2819815  76.0949373
  35.9778905  85.4750443  94.3972206  36.3014388  84.7061539  94.8666382
  35.0293350  85.4510498  94.5233154   2.9498726  88.4209919  58.0057240
   3.7757498  88.4766197  58.4864140   2.2756137  88.5558319  58.6716270
  15.0774050  96.8582058  70.4011297  15.6826198  97.5847054  70.5499697
  15.3631246  96.4744663  69.5720673  11.4687645  67.0141649  45.2984142
  10.9855163  66.7291355  46.0739565  10.7920933  67.3135042  44.6911716
  39.7056651  92.3903179  88.4387302  38.7576437  92.2711563  88.4960651
  40.0579596  91.5005970  88.4160328  12.3101532  93.7534618  48.4822464
  13.1394696  94.2313671  48.4903193  11.6692746  94.3911648  48.1678629
  35.9861255  86.3165283  67.9751444  36.4448285  87.1494675  67.8654528
  36.6704941  85.6529617  67.8882647  39.0865111  57.1927023  70.5280018
  38.6765814  57.2397232  69.6643019  39.9591303  56.8370152  70.3599167
  31.1279845 104.7961044  78.5670090  31.6732574 104.1473103  78.1220579
  30.4130125 104.9687004  77.9544258  30.1834106  97.5083160  40.8551216
  30.3885841  97.6675034  39.9338198  30.3981376  98.3314228  41.2940073
  41.8613482  88.2669353  74.1090298  41.7144585  87.6661587  73.3784723
  41.5914774  87.7730370  74.8832798  74.6186876 102.8384018  53.8723660
  75.2333212 103.0745220  54.5671320  75.0965166 103.0107975  53.0610752
  49.7874784  95.4287434  61.3150167  49.2443132  95.1709366  60.5702066
  50.0831223  96.3136101  61.1009455  54.0336615  13.2010131  54.8703289
  54.0755302  14.0479140  55.3144503  53.2472903  13.2540279  54.3271494
  82.1985609  12.6742797  64.3547106  81.7767317  12.8387027  65.1980734
  81.6718656  11.9825606  63.9542818  57.4236793  22.0288615  61.5813160
  56.8124694  22.1534686  62.3073530  57.5033623  22.8959708  61.1838055
  57.1499920 100.7101154  43.2679415  57.6033211 101.3512039  42.7204609
  57.5044870 100.8514786  44.1457701  30.5841970 102.0835781  71.6399145
  30.7062554 102.8286934  72.2282505  29.7458792 101.7045879  71.9041443
  43.1794930  67.0075560  64.3163490  43.3504581  66.8393850  65.2430201
  44.0299749  67.2617483  63.9581633  71.6395528   5.8158546  46.9883299
  71.0902769   6.4130263  47.4961805  72.4731881   5.7989268  47.4584341
  66.2076950  78.9105749  56.6267872  66.5582943  78.7999678  55.7430029
  66.4931583  78.1274891  57.0974445  33.9402628 104.5864868  73.1805611
  34.7690058 104.2634583  72.8269005  33.4664655 103.7963486  73.4402370
  55.2625990  61.0854197  86.4126015  55.3700495  61.5431976  87.2463417
  56.1062384  60.6585741  86.2632656  90.3868992  -0.0153966  49.6660757
  91.1250669  -0.4395814  49.2285728  89.9582655   0.4908900  48.9760208
  19.4392502  87.3856831  55.3356695  20.2363515  86.8716240  55.2068424
  19.5878839  88.1876755  54.8347187  80.3851015   7.4974971  71.1986494
  80.5999595   8.3974414  71.4439583  81.2323124   7.0888000  71.0213709
  41.6944313 104.4636250  72.5648355  42.4506044 105.0095844  72.7801514
  42.0446110 103.5735798  72.5270939   5.1250744  55.4095125  52.3994446
   5.0580114  54.4962120  52.6780462   5.4527640  55.8718061  53.1708908
  56.5321016  93.3324051  60.0202131  55.7772446  92.9574490  59.5665216
  56.1511469  93.8980484  60.6918859  11.4427400  63.1610060  75.4156828
  10.7746685  62.6924896  75.9160852  11.2144804  62.9982948  74.5004463
  51.6486406  80.6307602  55.0938606  52.0321989  80.1252651  54.3772125
  51.5392923  81.5110874  54.7342825 105.8006783  61.7725658  92.9780865
 106.0965986  61.5193987  92.1036816 106.1106689  62.6718712  93.0848026
   6.2989622  76.1105776  57.6246738   6.1318552  76.0518265  58.5653448
   5.5564797  75.6611538  57.2209835 117.0706223 109.5473671  42.9831314
 116.4018215 108.8872433  42.8009844 117.3981753 109.8009205  42.1201992
  25.6973815  81.6673946  68.6078262  25.2796078  82.5222301  68.5032368
  26.4433217  81.8342495  69.1839886  38.6317086 108.4265900  81.2151718
  39.4477868 108.4858990  81.7118931  38.0130935 108.0156231  81.8190384
  11.7974079 103.1972122  39.5697284  12.0608902 102.3306084  39.2602110
  11.1101484 103.0231094  40.2128410  67.1094179  94.6997738  54.5581436
  66.1629677  94.7308731  54.4185114  67.2225332  94.1071701  55.3012848
  67.6162195 100.0026035  91.7940235  67.3719120 100.7987785  92.2658730
  66.8932724  99.8540497  91.1845016  26.7887664  75.3727102  64.3775558
  27.5587821  75.8742285  64.1096306  26.9478178  74.4911528  64.0402174
  52.2624111  96.9595814  44.3845558  52.1673250  97.4564266  43.5719442
  52.0856380  96.0530663  44.1331100  17.5956821  60.3343725  69.6976995
  17.6556480  59.7761488  70.4729557  18.1006134  59.8711252  69.0293598
  62.0101005  12.7580695  63.7507534  61.8001491  13.4716945  63.1483507
  61.5614278  12.9909473  64.5635843  44.2045975  96.2920761  48.8550806
  44.4003773  97.1977615  48.6150265  43.2530022  96.2240124  48.7772274
  30.2301502  78.3644342  61.0671473  29.8487473  77.5430822  60.7570696
  31.0107040  78.0977583  61.5527964  45.4284573  73.6220741  61.8131495
  45.7007647  74.0708542  61.0127258  45.0169373  74.3051624  62.3425627
  90.3420461  26.3597256   8.2596085  91.1754573  26.6986424   7.9328129
  89.7259153  26.5063340   7.5418827  96.7861301   1.4228015  44.0855646
  96.5311081   0.5003409  44.1018343  97.0768339   1.5751033  43.1863832
  42.7778625 100.1399231  63.4619665  43.6329269  99.8558044  63.7850428
  42.8451586 100.0668049  62.5099421  20.2520728  45.8237600  56.3256454
  20.3170276  44.8804760  56.1765432  20.0716329  45.9063673  57.2620440
 103.5235293  77.4589205  82.6544189 103.6374207  78.0595827  83.3909416
 103.1738849  76.6599083  83.0488300  54.3459988  92.5230980  80.2792168
  53.4880209  92.2092533  79.9935579  54.8303890  92.6689816  79.4666195
   9.5453453  86.0783958  47.8074169   9.6464586  85.2542782  48.2836962
   8.8471782  85.9058571  47.1757317  50.1797581 103.7222576  59.6792221
  49.8374462 102.8614330  59.4383049  50.8382130 103.9136600  59.0113640
  61.2349558  89.3568039  70.9748983  60.3851175  89.2550468  71.4034462
  61.8445206  89.5350552  71.6910648  78.8779527  19.1570716  38.3340526
  79.4696600  18.5104232  37.9493833  79.4451839  19.8920493  38.5670424
  37.4283814 108.7975407  72.2316504  37.7134395 109.4559193  71.5979958
  38.0814171 108.1010246  72.1635437  12.3168963  21.7410428  12.9829380
  11.9614189  22.5973136  13.2209942  13.1262892  21.6686827  13.4887859
  57.5043154  83.1208038  72.6011276  58.3392429  83.1921482  73.0637646
  56.9534492  82.5947857  73.1808567  10.7476056  58.9952612  72.8560066
  11.4879203  58.6238384  72.3761988   9.9749905  58.6624575  72.3993397
  52.8524494  68.9753485  67.8068352  52.2470713  69.1628456  67.0894766
  52.6984310  69.6767473  68.4397268  57.5845289  93.5915661  73.1463861
  58.0318165  92.7930832  73.4266996  58.2522535  94.2745781  73.2086325
  67.3467976  26.9995265  62.8563690  67.1800739  26.5641551  62.0203781
  66.6185433  27.6125865  62.9565716  32.0478439  94.7220612  37.7068233
  32.7318168  94.7840118  38.3735871  32.5248408  94.6678448  36.8787122
 116.1756469  57.7834606  37.5994229 116.5893678  58.6338854  37.7472210
 116.9076081  57.1798658  37.4724007  57.3968315 101.5360737  76.3738871
  56.7750740 101.5263462  75.6461811  58.0273247 102.2176456  76.1411238
  39.5834255  89.0934658  14.0142155  40.2194548  89.2673016  14.7081053
  40.0905657  89.1513443  13.2044673  20.4360485  98.8710308  32.5796199
  19.8318076  98.2046890  32.9068947  21.2977839  98.4570503  32.6272368
  79.4058800  96.5356731  76.9596720  79.7635937  97.2352505  76.4129829
  78.5418510  96.8540382  77.2210741  27.1535397  98.1789780  84.5826149
  27.4176192  98.9803505  85.0345993  27.2776413  98.3756924  83.6540985
  18.2034361  62.5811195  59.1604090  18.2759953  62.3400116  60.0838995
  18.9355934  62.1324396  58.7374830  78.3561754  92.7629089  64.7318649
  78.7367916  93.4173870  65.3175497  77.4711084  92.6252651  65.0694180
  12.8093350 107.3342228  72.0783663  13.4831333 107.4171257  72.7531672
  13.2062984 107.7157784  71.2953758  57.9380035  97.3139668  66.9365215
  58.3435631  98.0653858  67.3691034  57.5449657  97.6777267  66.1431551
   2.9568636  92.1126461  83.4268856   3.7594098  92.6213169  83.3111286
   2.3077722  92.5630474  82.8864670  54.4023037  96.5883446  34.2861056
  53.7574863  96.4064121  34.9697256  53.9028931  97.0245171  33.5957599
  90.8280594   2.2004752  34.3677139  91.1287863   1.5019946  33.7864041
  90.9189255   1.8353324  35.2478528  44.3381882  72.1703053  96.3703346
  45.1732683  72.5141764  96.0531235  43.6980867  72.8425503  96.1366940
   8.6526459  12.9261023   1.4331505   8.9622038  12.1008736   1.8065140
   8.5697907  13.5129172   2.1848270  20.4615569  60.4632998  71.9397306
  20.6904578  59.8758078  71.2195253  19.5728290  60.2062225  72.1853018
  52.6229858  87.0105839  69.1228485  53.3055544  86.4710808  68.7237740
  51.8029404  86.5938091  68.8581657  23.2208061  85.6025219  87.2102165
  22.8005147  85.3756809  88.0397511  23.8118243  86.3226128  87.4302006
  31.5229583  94.2779160  49.8102236  30.8845353  93.6279202  50.1037264
  31.3927054  94.3310452  48.8634157  17.2140050  90.7148266  56.2778234
  17.0509160  89.9837303  55.6818867  16.4644039  90.7104301  56.8730593
  39.9201907   7.4992042  43.8965178  40.1218798   7.6755767  42.9775763
  40.1675628   8.3025222  44.3544722  64.8301125 104.5440102  51.2700796
  63.9399719 104.2190742  51.4053392  65.0904226 104.1835976  50.4223919
  12.5462747  54.9993610  61.1836386  11.7608154  54.9828434  60.6368208
  12.9524839  54.1437435  61.0452557  71.8284416  94.4245625  46.3112116
  71.6676950  94.7222710  45.4158020  72.0244312  95.2249813  46.7981911
  32.8041697 106.2179470  60.4540062  33.6043644 106.3995457  60.9468985
  32.6365495 105.2875233  60.6037951  27.1593142  85.0956345  50.4365540
  27.0801306  84.2665100  50.9082747  27.5554872  84.8574448  49.5983791
  21.6254377 100.2701569  20.4064918  22.5477695 100.4626560  20.5752420
  21.5641117  99.3170643  20.4703355  48.5622168 110.9358120  51.7007828
  49.0663385 110.6101513  52.4464607  48.7412024 110.3099632  50.9989929
   7.2011912  85.4086304  45.8665752   6.8290067  84.5340157  45.7536745
   6.4449602  85.9951115  45.8468342  75.8165986  47.9650742  10.0507805
  76.0298015  48.1404931   9.1342613  76.2104146  48.6928994  10.5318424
  56.2014217   2.2360377  71.3504171  55.9754080   1.7690997  70.5459833
  55.6091065   1.8762355  72.0106792  28.8502026  83.0218410  79.8678398
  27.9115605  82.8923893  79.7320986  29.2367435  82.1615696  79.7042799
  52.9135275 108.3104134  53.4863710  52.0342922 108.6399078  53.6724091
  53.4946251 108.8816738  53.9885950  52.9116154  75.4869509  68.8131857
  53.3044815  75.6826115  69.6638346  52.2653246  76.1808395  68.6825562
  -0.1846384  49.9152565  23.0334663   0.5965450  50.0425529  22.4951530
  -0.3225940  50.7613754  23.4592390  39.3107581  78.5923243  94.3652534
  38.8700294  78.1272364  93.6541367  39.4356322  79.4800329  94.0296745
  43.1663275 107.7662468  61.8785715  43.4570169 107.7236652  60.9675741
  42.8184175 108.6524391  61.9778013  29.5748782  94.3369865  56.0060358
  29.7630048  95.2278519  55.7107306  30.2965260  93.8123322  55.6593609
  46.4596510 110.6287766  19.8125196  46.2584400 109.6932316  19.8346543
  46.2503433 110.9396839  20.6932902  63.5994512   3.1237655  91.6946793
  62.8943593   2.6217132  91.2860012  64.3735081   2.9208903  91.1694145
  14.8194802  72.1892929  93.5660458  15.3618610  72.9152727  93.2578182
  15.4465032  71.5421820  93.8890266  96.8554956   3.4437423  47.3996401
  97.1971304   2.6723342  46.9474745  97.6305277   3.8691383  47.7665186
  47.4290943  57.5905991  75.0435162  47.2471189  58.2312965  75.7309914
  46.5774250  57.1992111  74.8493481  70.6507969  93.7474155  67.3561335
  69.7252798  93.5052872  67.3881197  71.0471725  93.1018639  66.7710018
  15.5129552 110.7015800  50.8739424  16.4289951 110.6810188  51.1508512
  15.4362953 111.5049744  50.3592539  38.4597421  97.5735378  40.9451580
  37.5491595  97.4265480  41.2010145  38.4964061  98.5013390  40.7126331
  30.7834625  92.3815536  68.4235859  30.2813864  91.9097900  69.0881109
  30.1294994  92.8941631  67.9483986  21.4533877  92.2817421  29.2186689
  20.6806803  91.7818260  28.9555311  21.6848803  91.9300461  30.0782943
  33.7897253  63.0103874  81.7253208  34.5197654  62.4613905  81.4391899
  34.2056203  63.7961960  82.0799541  60.8067322  84.5371246  52.4849558
  60.3720188  85.3004265  52.8652668  60.7363081  83.8609314  53.1587744
  93.5640765  32.8137643  12.5888416  94.3667794  32.5993211  13.0641434
  93.8112796  33.5403497  12.0168278  24.5974731 103.0973434  57.8068066
  24.9369359 103.9756680  57.6349354  24.7911477 102.6053429  57.0089006
  28.4718919  92.1195412  57.6297712  27.8328943  91.4137363  57.5310421
  28.6095715  92.4441910  56.7398930   1.7242415  98.0469131  82.2707558
   2.1110170  98.2236767  81.4132023   2.3583961  97.4777412  82.7067947
  84.9241478   1.9794517  54.7333002  84.9878675   1.8522601  53.7867308
  83.9941484   1.8642383  54.9283791  27.9642987  43.8138771  56.3732481
  28.0343604  44.6769810  55.9653568  27.2508955  43.3834743  55.9020376
  50.7103366   4.9358420  87.2149754  51.0310358   4.8808532  88.1151772
  50.5742532   5.8715301  87.0659447  63.2077456  79.3790770  89.0566826
  62.3157120  79.6097755  89.3160915  63.6580610  80.2196693  88.9738560
  41.7922258  88.2191753  59.3554592  42.5691271  88.6920261  59.6538973
  42.0805264  87.7576542  58.5679865  10.2137828  86.7858696  50.7047129
   9.3857592  87.1843719  50.9726763  10.4408848  87.2313023  49.8884726
  34.0177417 101.5176105  49.8893213  33.0805826 101.5852547  50.0720596
  34.0760589 100.8957291  49.1639996  31.9608092 103.7348080  60.7726240
  32.3918867 102.9038620  60.9724569  31.0548258 103.6085033  61.0545397
  47.8079653  93.1965065  62.7642679  47.2846413  93.9975548  62.7380228
  47.7774000  92.8609848  61.8683195  48.9860201  88.0393505  79.9134874
  49.3171406  88.6276340  79.2348766  48.1059313  88.3642483  80.1035404
  60.9740925  83.2863808  54.8652554  60.9034729  83.9497757  55.5516624
  61.9066715  83.0730534  54.8333788  38.2151985 101.1149120  23.7446070
  37.6771927 101.9049168  23.6928844  37.6859188 100.4973030  24.2492366
  17.2772813  94.1133595  57.1472406  17.1845639  93.3312321  57.6912069
  16.3943446  94.2825603  56.8185663  11.5732706  66.8584633  66.4740372
  12.2647512  67.0273447  67.1140099  12.0243716  66.4466095  65.7370758
  12.6497710  92.7070045  64.6491528  13.4869313  93.1672001  64.7093058
  12.3367846  92.8938770  63.7640858  37.6181769 107.9518032  86.1046028
  38.0802441 108.6545277  85.6475353  37.5908208 108.2374859  87.0177650
 102.3773128  27.0461898  31.9941473 102.6923019  26.6450553  32.8041506
 101.5206844  27.4068980  32.2228622  85.6336147  17.6283984  61.9431877
  86.0008842  16.8518882  61.5208387  84.9362785  17.9146819  61.3532686
  57.7535105 101.3366508  45.8135700  58.1898451 102.0041752  46.3429546
  57.8540230 100.5285358  46.3166428  65.5056286  91.9882584  53.8422680
  64.5931435  92.1412849  54.0875912  65.8343792  92.8516865  53.5919714
  54.4747097  15.6439548  19.4576287  54.4795758  16.0283046  18.5809982
  54.3374235  16.3876205  20.0444436  19.3591213  81.8879509  73.1378984
  20.0552940  81.9881058  73.7871647  19.6616066  81.1794949  72.5697327
  53.9875460 105.4050636  14.6748555  53.5331535 105.2295876  15.4988503
  54.8046446 105.8288765  14.9374676 110.1518232  16.6314941  57.4273825
 110.5572445  16.2632423  58.2124043 110.8891327  16.8544154  56.8591261
  40.7746077  95.0183964  60.8879900  41.3330317  94.2409706  60.8864498
  39.8874450  94.6758366  60.9967375  81.3697654  12.4829822  78.7590599
  81.4586384  13.1459956  78.0744076  81.0834200  11.6963153  78.2949495
   9.4219130 104.3974686  38.7835717  10.3575373 104.2913818  38.9555740
   9.0905333 103.5031986  38.7016988  63.2714510  78.0923462  83.1925869
  63.6435413  77.2106409  83.1733131  63.8915491  78.6026716  83.7134266
  77.1686363 108.1240845  37.4657202  77.6171827 107.2930336  37.6218891
  76.7283821 108.0042076  36.6242695  27.9728317  98.9009476  88.5544014
  27.9809856  99.2782211  87.6747322  27.2032166  99.2863655  88.9731884
  21.5840816  98.3240318  51.3975668  21.8489671  99.0783691  50.8712149
  20.6354094  98.4153271  51.4865494  58.9396519  20.1983028  53.9651823
  59.4472534  20.9377151  54.2996025  59.0485746  19.5145373  54.6261215
  73.3498335  98.4765911  79.1623354  73.4786415  98.3869839  78.2180834
  72.7939320  97.7343941  79.3997288  88.7962246  90.3424644  76.8236589
  88.7294388  90.9544849  77.5566006  88.6321545  90.8788490  76.0480261
  91.1110908   0.9758144  24.4254541  91.9593364   0.8770328  23.9930725
  91.2217981   0.5426555  25.2718258  21.1638236 102.3057938  61.2157249
  21.7183995 102.8814030  60.6890821  21.7356968 101.5770149  61.4567137
   9.1637969  91.6635323  68.6371326   9.8989320  91.0565567  68.5512209
   9.5676208  92.4952507  68.8849401  47.8619003  97.3374462  63.8718462
  47.5398254  97.3377991  64.7732306  48.8150072  97.3571301  63.9580536
  68.1672621  87.1763229  45.7651711  68.5118484  87.4293423  44.9087381
  68.9008093  87.3059273  46.3662958  71.1074638 103.1053734  71.4090586
  71.1767244 102.3564148  72.0010948  71.8442011 103.0033302  70.8065367
  39.6613097 101.6488934  87.4274158  39.4359827 102.0145130  86.5719700
  39.9163866 100.7451439  87.2419739  28.1058717  79.0410376  81.1682224
  27.6579762  79.8257875  80.8523273  28.7259245  78.8227129  80.4724503
  73.1403548  12.6151233  21.4031076  73.1073314  12.8783279  20.4834008
  73.8767440  12.0055060  21.4514756  20.5358911  98.5888863  45.3620386
  21.3835645  98.1843281  45.1776075  20.4668689  98.5757732  46.3166571
  42.4790907  97.1976948  61.7142963  42.2149563  96.7516708  60.9096050
  42.6206970  98.1064320  61.4490223  82.5409490   6.8875556  57.3071384
  82.8382093   6.4292674  58.0931711  82.1628648   7.7037768  57.6343393
  65.2551317  87.9504585  79.4922638  64.9297333  87.3786545  78.7970018
  65.3649473  88.8024044  79.0699434  39.5205164  91.4620781  73.8239098
  39.0296555  92.2837925  73.8321352  40.0200748  91.4733219  74.6403360
  81.8068010   5.2463870  73.4848547  82.5431663   4.8383002  73.0293703
  82.0522386   6.1686378  73.5587025 100.7013685  17.8387885  94.8707676
 100.2605898  17.2283702  94.2797089 100.1024229  18.5824733  94.9372768
  64.2886407   4.8199325  70.8209372  63.3339102   4.7514396  70.8156586
  64.4654280   5.6721931  71.2192249  76.7641735  92.4471188  49.1686249
  77.6226759  92.4770164  49.5909023  76.3816547  93.3071613  49.3425035
  35.3456324  57.0465372  96.3713723  36.0514611  56.4049338  96.4512345
  35.7949513  57.8835867  96.2543299  52.3639393 107.6903343  60.2466440
  52.8111839 108.5365582  60.2570629  53.0600691 107.0534801  60.0852299
  73.0325174  93.3187771  79.8549175  73.4021425  93.9452267  79.2326927
  72.8922272  92.5241566  79.3400192  28.9236212  93.6738682  66.0345221
  28.6785650  92.8769207  65.5643463  28.1162691  93.9562798  66.4642382
  67.6101208  84.2336655  58.9335680  67.8157711  84.7113037  58.1299496
  68.4637356  84.0054035  59.3016243  39.8494148 109.6034527  61.0103369
  39.8333430 108.8027000  61.5345240  40.2461100 109.3385506  60.1804638
  91.7503530   8.4684806  72.4638367  92.2362835   7.8267341  71.9458961
  90.9284670   8.5875468  71.9878531  45.1762819  79.2711449  82.4986744
  46.0261250  79.6687889  82.3092556  45.2526808  78.9611626  83.4010601
  81.5534401 110.5994511  55.3448200  82.1723461 111.1454582  55.8296490
  80.9084892 110.3299522  55.9987640 106.5014774  23.3156829  92.3137951
 105.8301622  22.6751762  92.5489902 106.0763723  24.1644054  92.4370098
  22.8678489 104.5861244  82.7647877  23.0349469 103.6811924  82.5013351
  23.4148192 105.1107025  82.1800804  73.8748581   9.5495372  64.4813967
  73.9609939  10.3459315  65.0053883  74.7658593   9.2049937  64.4210577
  57.1645880 110.2292252  51.7827606  57.4560642 109.6372032  51.0893726
  56.9778776 109.6548271  52.5253439  16.8111294  38.5899026  11.8827316
  17.2332543  39.1070515  12.5687286  17.4636572  38.5406262  11.1841461
  73.7660313  93.9700699  73.9592409  74.3998766  93.2751083  74.1367245
  73.6489773  93.9506340  73.0094242  40.7079268 109.2055035  58.4574747
  39.9074602 109.7070980  58.3029175  40.9356308 108.8474369  57.5994682
  86.4957029  15.1409965  83.3696938  85.9789497  15.1603847  82.5642014
  86.3709671  16.0082011  83.7552166  19.1054785 102.5710869  30.9442377
  19.1005552 103.4644127  30.6004834  19.1605139 102.0155525  30.1666880
 104.5856799  51.8488652   6.6817543 105.4313124  51.4118916   6.7827007
 103.9432825  51.1406476   6.7263290  72.5256616   5.0657706  25.7090998
  72.8064901   4.7747855  26.5766788  72.6606948   6.0133414  25.7189536
  68.9569265   6.2237601  70.1533937  69.1611273   7.1541839  70.2474451
  68.3214981   6.1890941  69.4383717  28.4654498 100.8977985  72.8087330
  27.5340319 101.1113548  72.7531910  28.6983180 101.0768414  73.7197495
  21.3753581  67.8907061  87.1006584  21.2310195  68.7908411  87.3924828
  21.6367626  67.4211359  87.8927422 114.3901647  58.4711129   5.8389542
 115.2068580  58.1670434   5.4429886 113.9244688  58.9051396   5.1241276
 109.3515331   1.8830066  61.2337160 110.0686914   2.5075393  61.3426876
 109.6342022   1.3166003  60.5157232  22.0650458 105.5011368  56.9271231
  21.6969562 106.2769222  57.3500919  21.5978265 104.7667694  57.3254299
  69.4550759   2.6120811  42.3219919  68.5568291   2.6653915  42.6484060
  69.8885757   3.3837085  42.6865387  24.3597889  86.5604210  27.5188756
  24.4459605  86.3012028  28.4362721  23.4155583  86.6260624  27.3762107
  41.8385029  75.1889133  75.1330328  41.0422802  74.6633387  75.0553751
  41.6847134  75.7452869  75.8965969  52.9960346  83.8615227  64.7636890
  53.1555843  83.1228733  65.3511953  52.1307325  83.6896038  64.3922997
  56.6437101  96.8651962  40.4663563  56.3973045  97.5819874  41.0509348
  57.0485020  97.2976971  39.7144818  44.5278692 105.1876545  51.0511494
  44.9993229 104.7874737  51.7817783  43.7987232 105.6519985  51.4621925
  38.0516815  97.4304485  55.1849413  37.8535128  96.6360760  54.6890211
  38.6447859  97.9244709  54.6188974  35.4023027  74.1739893  60.3486204
  34.9144816  73.3504677  60.3400707  35.6198907  74.3139267  61.2701988
  59.2456466   5.3532558  58.2095337  60.0349361   5.8920436  58.1551600
  59.2021674   4.9061446  57.3642921  39.6718168  95.7892895  28.7325954
  40.5595112  95.4622173  28.8783860  39.1191101  95.2362823  29.2848039
 102.0966226   5.5287795  58.2660961 101.6661770   5.0455432  58.9713907
 101.5937311   6.3396411  58.1896877 113.2502014  12.3947959  70.1707983
 113.8165457  12.5919108  69.4247198 112.3732883  12.6427798  69.8779392
  85.3019905 110.5275917  45.7254314  85.0033188 109.6185970  45.6980181
  84.4972515 111.0424232  45.7851791  10.1581061  74.0710735  85.6988049
   9.2476612  74.3502760  85.6020164  10.4288447  73.8260698  84.8139763
  88.6687929   1.1289840  47.4889326  87.8172905   1.1495357  47.0521784
  89.2507965   1.6115432  46.9018745  54.2075491 101.1256504  69.1142416
  53.3591270 101.1578274  68.6722231  54.8351240 100.9427834  68.4149981
  85.6194479   6.0998206  81.8465137  86.5091688   5.7641749  81.7371082
  85.3098947   6.2532859  80.9538460  49.5098782  75.5633163  65.5594826
  50.1561928  75.8920431  64.9346256  49.9725580  74.8811150  66.0460567
  50.2607155  78.7165117  79.4599152  50.3880596  79.3279362  80.1852894
  49.5073652  79.0644693  78.9828157  51.4682484  96.8089485  53.1239891
  52.3704338  97.1233940  53.0655050  51.0682297  97.0734787  52.2955894
  81.5482122  14.0045219  44.6402979  80.8238346  13.9205222  44.0202570
  81.1257679  14.0428405  45.4983807 103.4190304  11.0533004  42.6617622
 103.0625707  10.7690005  41.8201256 102.6534826  11.3319831  43.1642580
  44.5452642 110.2544689  59.6816397  43.9695024 110.5042171  60.4043770
  44.5705652 111.0273457  59.1175032  36.1073112 102.2375870  45.8373308
  36.5196228 102.5761795  46.6320562  36.7016459 101.5519142  45.5326366
  16.4833676  21.7250781  37.0259809  16.7507779  22.6431899  37.0682979
  17.2667729  21.2356238  37.2768497  65.9765816 104.7818184  62.9484224
  66.0110283 104.5231533  63.8693619  65.9287643 105.7375908  62.9697180
  57.5552702 109.3590546  48.6706686  58.4527016 109.2910099  48.9965725
  57.5643635 110.1297760  48.1030893  48.0638504  69.7292614  70.8240652
  48.0491972  70.2026272  71.6558933  48.1151056  70.4155731  70.1588011
  21.6286039  97.2425079  67.5637674  21.3627553  96.7182922  66.8082809
  22.5105906  97.5448132  67.3471022  92.5792599  91.6346359  27.6824999
  92.0527935  91.2268066  28.3700609  92.8422165  92.4781322  28.0507278
  81.2563259   1.6737132  89.7549343  80.5198080   1.6361194  89.1447163
  81.5727360   2.5749927  89.6932220  46.7383718  96.5436935  84.3454742
  46.1259317  95.9499741  83.9111519  46.2001562  97.2880459  84.6147537
  61.2289047  95.6721592  84.0001583  62.0627689  95.2516460  83.7902260
  60.9124804  96.0084820  83.1617069  97.0739013   9.2912440  60.1852083
  97.3464090  10.2004199  60.3091669  97.5641138   8.9968066  59.4175911
  82.0593530  15.3679710  56.8625498  81.5863878  15.7054191  56.1018515
  82.7898342  14.8737769  56.4905262  72.5465584  73.5678959  90.2392960
  71.6512585  73.4174776  89.9359226  72.8333044  74.3468332  89.7625732
  65.5168754  12.7150684  90.1328182  65.2216012  13.2088237  89.3678093
  64.8479730  12.0415454  90.2559757  31.1471343   4.8536067  35.8144999
  30.8174545   4.0754466  36.2639666  30.3779591   5.4136424  35.7098341
  18.3165669 104.9937344  40.6752872  18.0539429 104.5736313  41.4942932
  17.7811408 104.5683765  40.0054932  29.8979568  85.9225750  83.7063885
  28.9642620  85.9526062  83.9150524  30.3131151  85.6102180  84.5103264
  39.0575290  90.4594898  68.7638044  39.4637227  91.2901306  69.0113544
  38.7202597  90.1034451  69.5858192  55.9177732  89.2372799  14.2752600
  55.7692146  90.1277828  13.9571846  55.4293156  88.6814499  13.6680496
  95.9032470  19.0902000  44.5583725  95.9697181  18.7153869  45.4366255
  96.7957145  19.0538364  44.2142630   6.0857045   4.2288165  67.0752335
   5.8049618   3.4056430  66.6754627   6.9951474   4.0733676  67.3301220
  13.4743404  80.7215309   3.6496374  13.4320760  80.3458786   2.7702421
  12.9204524  81.5008640   3.6040565  94.1357404   6.0794978  33.3440375
  93.6698562   6.8945747  33.5306549  94.7801859   6.3190608  32.6780534
  83.4948904  32.4544482  50.1338196  84.0321047  32.2085242  49.3807268
  82.8089935  31.7875915  50.1667261  28.0110383  95.9907246  70.3703356
  27.7259994  96.1192131  69.4656372  28.4284115  96.8181992  70.6097603
  65.5907059  76.4127207  51.5310240  65.7147408  75.8667803  52.3074245
  64.8788214  77.0072889  51.7675447   7.5302159  35.1126819  37.6968408
   6.9461762  34.3858104  37.9131508   7.6925122  35.5469089  38.5343003
  25.3836107 110.0541401  63.0545712  24.7129345 110.7347012  63.1117010
  24.9031353 109.2341805  63.1687737  57.4628544 111.6229057  20.3333950
  56.9398737 111.3955879  19.5645964  57.5068808 110.8127022  20.8412075
  64.2568731 110.6089783  13.2232893  63.7173986 110.7395363  12.4434471
  64.8921776 111.3244915  13.1975758 107.2173006   3.1902366  49.2470980
 107.7203304   2.7529292  49.9340963 106.3781959   3.3963351  49.6589851
 107.1088964  29.1440063  64.5370960 107.6736767  29.1806178  65.3090525
 106.2196380  29.1868358  64.8886824  90.6505663  13.2911067  95.6469250
  90.1404840  12.4811511  95.6424046  91.3646824  13.1210094  96.2612057
  77.2790813  96.7278671  84.2340374  77.3165703  96.2255859  85.0480080
  76.8772411  97.5598145  84.4842720  54.5475721 103.5685921  56.8467665
  54.9825430 102.7194118  56.9237328  54.6735859 103.8202000  55.9318638
  87.4053318   5.1462607  61.8550920  87.4440748   6.0382419  62.2002077
  87.3504478   4.5907645  62.6326752  72.2830540  15.0440745  72.3204136
  72.0924741  15.8291392  71.8070126  73.1646044  14.7884421  72.0488310
  52.1343803 104.3061829  57.5113487  51.7555523 104.7037220  56.7273283
  53.0017471 104.0105438  57.2347593  80.4546339   3.2954936  29.7139525
  79.8100836   2.7002864  30.0967312  80.3582842   4.1062789  30.2135205
 105.5165893  11.2946849  46.2768555 104.6744138  10.8401923  46.2564945
 105.5405313  11.7913871  45.4589653  40.7269335 104.0412045  38.2680726
  40.1386213 103.7430954  37.5743461  40.3329992 104.8547459  38.5830259
  31.1448360   0.1117187  60.1399279  30.9909559   0.1695685  59.1969490
  31.9293190   0.6399779  60.2874422  46.1696625  78.3278275  62.1470737
  45.4397345  77.9257059  62.6179600  46.9324684  77.8066683  62.3975801
  35.8441019 105.8434486  86.4247322  35.7862926 105.4272461  87.2847652
  36.2675381 106.6850662  86.5939140  62.0127112  21.8035560  66.2408733
  61.0632021  21.7933040  66.3615370  62.3181135  21.0078101  66.6764736
  33.0526400  97.6733303  43.7208080  33.4261584  97.7608585  42.8438520
  32.1338010  97.4522686  43.5688114  54.4182158 110.4843235  51.4085293
  55.1437426 110.4194450  50.7875395  54.8023462 110.2438259  52.2516441
  53.6668158  89.3225574  20.8437753  52.8285980  88.8944530  21.0179973
  53.4867620  90.2560329  20.9553218  98.9873916  16.8846660  81.1598492
  99.4103557  16.2246947  80.6105137  99.2251188  17.7197700  80.7569408
  78.5308487  10.0454669  20.1820946  79.2082292   9.6421867  20.7250023
  78.9942247  10.7152324  19.6791768   1.6294831  46.5899903   2.8995583
   1.9683283  46.3810403   2.0290634   1.9447535  47.4770314   3.0727264
  97.1778089   3.0628257  61.0509205  96.9333202   2.1415286  60.9633398
  96.9261772   3.4578090  60.2161169 100.0122577   2.3237472  92.5005627
  99.4476015   1.6340499  92.1516991 100.7794887   1.8590312  92.8346729
  73.9441347  84.1362095  81.7304325  74.1772604  84.6120167  80.9332561
  74.7552443  83.7033844  81.9968891 100.0486976  19.0813499  79.9141073
 100.2155191  18.4898238  79.1802740 100.6281025  19.8269420  79.7572422
 101.9137896  31.7822511   6.5299866 102.4568928  31.2279851   5.9695789
 101.8609823  32.6161916   6.0631058  30.1401830  90.4406452  26.8292379
  29.2396188  90.7427025  26.7110229  30.5967665  90.7343960  26.0409021
  46.2236547  59.6767378  72.6824856  46.3226175  59.3866444  71.7756891
  45.3679180  59.3409777  72.9493332  74.2439396  25.2136092  32.8396630
  73.8484937  24.4304233  32.4569559  74.7038323  24.8946719  33.6161995
  11.7454481  89.1367626  60.2096701  12.6789820  89.1679382  60.4188967
  11.6708517  88.4477711  59.5494032  81.5223009   1.9386821  42.7174044
  81.5244371   2.8542285  42.4381065  82.1074564   1.9179111  43.4746313
  29.7725415  99.2501545  32.3991323  28.8725233  98.9910698  32.5967908
  30.0478721  99.7598934  33.1610990  17.4639595  98.9951515  83.4807396
  18.0625439  98.2483673  83.4652042  16.7474520  98.7399197  82.8996181
  20.0292730 102.5410843  63.9562178  20.0833082 103.4698772  64.1812563
  20.0393820 102.5255299  62.9991961  64.1877079 103.3081341  29.4823527
  64.0909100 103.7623405  28.6453533  63.6773920 102.5048828  29.3793893
  32.4796265  31.7326600   7.1799538  31.9531887  32.1300370   6.4862797
  33.1499069  32.3870808   7.3766586  67.3261642 102.1594238   3.6253363
  66.9912958 101.5797901   2.9411456  67.7893400 102.8489017   3.1496075
  48.0802679  94.5940685  69.1394949  48.8036776  94.2019463  68.6504650
  47.5322342  93.8513947  69.3931150 107.7972872   6.7347102  50.8306551
 108.1906969   7.3529296  50.2148104 106.8777544   6.9963222  50.8781385
  61.6942549 109.2746067  51.6915417  62.0624685 109.7639656  50.9558916
  62.3952627 108.6800194  51.9585419  84.2956335  13.8331180  61.3327885
  84.1572983  14.5619350  61.9377136  85.2469761  13.7686877  61.2489748
  43.4086943 109.3338108  56.9712877  44.3275928 109.1581249  57.1737480
  43.4207869 109.6687317  56.0746717  85.0347549   6.9510226  36.3164544
  84.7672922   6.1298804  36.7292857  85.9887916   6.8932777  36.2643552
   4.9800986  51.6477448   1.5198586   5.1253527  50.9284169   0.9052727
   5.8306187  52.0819146   1.5857288  63.9962006  78.0826712  67.9380131
  64.7342253  77.6307631  68.3470774  63.4659290  77.3813868  67.5595331
   1.7862069  33.4850364  65.0402021   1.9623505  33.4636932  64.0995932
   0.9293782  33.0685191  65.1329327  37.6295567  92.2689342  50.6599808
  38.1038570  92.3840141  51.4834070  37.7549887  91.3462543  50.4382563
  71.5297842  84.3309689  74.2346382  72.4585295  84.2560387  74.0154266
  71.0759354  84.2015743  73.4018660  98.0903942  13.1854110  78.8689375
  98.1096918  12.7697139  78.0069304  98.7195856  13.9037089  78.8025951
  54.6836502   7.9251723  91.8833828  53.9783878   7.4288707  92.2987366
  55.1100189   8.3859592  92.6059532  25.8211541 108.8966370  41.2667370
  25.8865571 109.8298264  41.4694929  26.0774040 108.8329124  40.3466797
  87.6688290  86.6396332  45.7399225  88.1573772  86.4814854  46.5477180
  86.9372177  87.1958637  46.0074854  47.0727968  88.4072781  75.8609533
  47.8945923  88.4339905  75.3708839  46.9534969  89.3027020  76.1775160
  69.6968842 105.9686184  66.4829350  70.0847197 105.2358055  66.0046101
  68.7525940 105.8337975  66.4031363  44.8837423  94.1016483  86.2807655
  43.9741373  93.8035583  86.2814522  45.0121450  94.4769192  85.4096127
  57.1098334  11.4463382   9.5401973  56.2986202  11.2730746  10.0178421
  57.6004953  10.6263595   9.5960969  55.2546406  89.1789913  94.4490910
  55.7557154  89.6465588  93.7808609  54.8799229  88.4293461  93.9866543
 105.2339870   9.6318393  56.7184877 106.1466533   9.8343997  56.5129566
 105.1363069   8.7076240  56.4892960  42.6016665  58.9211607  82.1185303
  41.8352222  58.7353182  81.5760708  42.2895908  59.5540571  82.7652740
  44.2577982  60.7620049  81.1210346  43.7951469  59.9541807  81.3437462
  44.2209291  60.8034706  80.1654434  63.5056686  99.7372532  35.1321673
  64.0286350 100.3510761  34.6164465  63.0976200  99.1652584  34.4821334
  89.0151293   9.5735698  53.7636471  89.5662386   8.8514190  54.0653276
  88.1432230   9.1886382  53.6750793  37.2125983 110.2112865  74.5794249
  37.3317790 109.7955513  73.7254953  38.0160952 110.7133579  74.7156096
  79.7482521   1.7743354  33.3669257  79.0004474   2.1403842  33.8391829
  79.3831593   1.0410266  32.8717494  83.1461143  64.8793459  29.2278075
  83.2870293  65.6091166  29.8309755  83.5195732  65.1783228  28.3987308
  35.1527977  85.6992149  72.9925013  34.6715450  85.4244900  73.7729883
  34.8875570  86.6086388  72.8553200  79.2135245  17.9274230  52.3682880
  80.1149589  18.2414012  52.2970581  78.8317138  18.0980926  51.5072870
  30.8823031  40.3109128   8.9158794  31.6866034  39.8598534   9.1725323
  30.6048506  39.8681313   8.1138775  86.4743549  18.0170302  48.4093428
  85.5497867  18.0222850  48.6570835  86.5185434  17.4212127  47.6614952
  49.7967052  94.2822075  63.9604425  50.3575993  94.5657444  63.2384825
  49.1233492  93.7444878  63.5436869  27.7713799  75.0325298  77.5036669
  26.9124246  74.7598648  77.1810484  27.8429842  74.6259642  78.3672667
  73.0171925  15.3558211  42.1083307  72.7475650  16.2036090  41.7550611
  72.5090605  14.7160010  41.6096687  44.6841097  99.0227127  60.7415771
  45.6229067  99.0832138  60.9183073  44.3857145  99.9319077  60.7181740
  55.7932997 107.5387955  59.3658352  55.7858801 106.5822697  59.3307209
  56.5048027 107.7507782  59.9700356  50.4617453 105.3546143  79.5977068
  50.5031109 106.2496471  79.2608976  49.6376991 105.3193378  80.0834465
  60.0848514   9.3954711  59.3715858  60.5820948   8.8971858  60.0201941
  59.1846222   9.3801932  59.6965265  31.4662576  86.6166878  44.2293453
  32.0114183  87.1267033  43.6302471  30.7739639  86.2562561  43.6752224
  44.3471956  74.0198231  82.2728920  44.1140461  74.9478340  82.2987843
  43.9630604  73.6540365  83.0696774  52.4501705  95.8780575  80.4846668
  53.0082846  95.3859997  81.0868454  51.5591097  95.7052898  80.7886219
  38.6497426 100.9115505  73.9959288  39.0016222 101.7439461  73.6804533
  37.9975438 100.6634998  73.3406878  63.7840509  81.2408829  49.8828554
  63.6670780  82.1432590  50.1799440  62.9149914  80.9722805  49.5848179
  44.1157866 107.0413113  84.0431881  43.3383369 106.8243885  84.5577335
  44.8252821 106.5570545  84.4654942  88.2093269   4.9208217  53.2582951
  88.7681324   4.5978503  53.9651632  88.3369524   4.2936664  52.5465250
  82.1038181   1.8075996  61.9598198  82.4797088   2.1039920  61.1309147
  81.3527233   2.3837237  62.1018124 102.3728449   8.3552985  50.6951761
 102.7637464   7.6719432  50.1507044 102.4822790   9.1587119  50.1864576
  47.9872990  96.1044216  58.9091396  47.7723932  95.1776409  58.8036060
  47.2312117  96.4753151  59.3641090  52.2272301 106.2929153  40.5781412
  52.4670029 105.5729389  39.9947286  51.2759352 106.2270832  40.6613827
  54.4820690 108.0261612  47.9156971  54.6212053 107.3294830  47.2742081
  54.7050810 107.6259327  48.7561226 100.8134664  42.9955918   5.5972740
 100.2128590  43.2122952   6.3103935 100.3616036  42.3116261   5.1030609
  52.6389933  76.7951488  75.8733320  52.5791073  77.6733065  76.2494850
  51.8450928  76.3518429  76.1723852  90.0228769  16.4651637  39.7735953
  89.4170744  16.0876994  39.1358280  89.6016056  16.3178878  40.6203938
 101.4745790  14.3508105  65.2814913 102.2590477  14.5672374  64.7775078
 101.3916713  13.4007506  65.1993656  46.3796711  66.5943384  87.0267773
  46.9205999  66.1915541  87.7060413  47.0058489  67.0322943  86.4503002
  74.3636710   9.4271522  78.5343027  73.9216310   9.5975261  77.7025557
  74.7396690  10.2715354  78.7830687  30.9406543  99.7680378  35.4765773
  30.9780622 100.6938553  35.7167888  30.3092456  99.3875122  36.0871100
  41.0037327  86.7526340  53.3944750  40.1410913  87.1082783  53.1809330
  41.6211176  87.3900890  53.0356979 100.5039961  16.4491801  33.5842991
 101.0829336  15.8539538  33.1081009 100.0529033  16.9432693  32.8997350
  56.7609119 110.1189995  43.6380005  57.4152422 109.8390961  42.9978895
  56.3548756 109.3053532  43.9368916  53.0074978  88.3071136  92.2276115
  53.8768959  87.9241753  92.1104145  52.4328709  87.5559807  92.3753738
  19.5493615 106.5856361  88.1417465  19.3677807 106.4256477  87.2156429
  20.4271221 106.9673157  88.1512642  90.4921324   8.6958747  35.6883359
  90.6903965   9.6320205  35.6645536  89.5360882   8.6539989  35.7097220
  91.9856197  22.3259215  88.1841946  91.6292221  22.0207458  89.0185070
  92.4855835  23.1103473  88.4099007  81.5473730  20.6692271  59.7182941
  80.8481724  20.0372748  59.5509958  82.3551733  20.1767974  59.5726824
  84.4587404  25.6976371  42.9599762  83.6698562  26.1273818  43.2904577
  85.1709062  26.0736041  43.4773779  61.0731036  15.8607631  49.5288706
  60.8093673  16.7807918  49.5138550  60.2704889  15.3849845  49.7425890
  45.7061672  67.9659224  68.2941914  46.4146519  68.1842279  67.6886988
  46.1203718  67.9649353  69.1571331  95.8575756  16.9756274  71.8016768
  95.0529081  16.6593127  72.2123861  96.4376528  16.2142615  71.7935801
  99.7658378  28.0568652  32.2664237  99.1604788  27.4917369  31.7864203
  99.6189386  28.9296107  31.9017839  48.0150795 104.9070454  86.6333199
  48.4663677 104.0770721  86.7873383  48.7076187 105.5667591  86.6706371
 106.7171032  13.9967685  30.7423115 105.8508760  13.6571174  30.5175519
 106.5501100  14.8800712  31.0711408  97.6117260  11.7845111  70.4345751
  98.4368116  11.9470649  70.8917856  97.3393041  12.6459746  70.1184893
  41.5848684 105.9980583  63.7240028  40.6655931 105.8065319  63.5383081
  41.8895245 106.4789200  62.9544640  53.7450027  90.6167603  49.0966988
  52.8647089  90.9926796  49.0942764  53.8939476  90.3615570  50.0071478
 113.0672199  29.9237304  70.6846285 112.5686056  29.2807632  71.1888123
 113.8360054  29.4432597  70.3774643 104.6139414   0.7251887  74.5736980
 105.4503614   0.2597861  74.5791054 104.8552639   1.6514640  74.5713663
 101.1693413   6.3772254  73.8088703 100.7890112   6.5059619  72.9399586
 101.0060150   5.4552322  74.0076017  51.2002993  90.7675838  64.7835684
  51.4826155  90.3336143  63.9784575  51.6303778  90.2766514  65.4837513
  79.2119551 110.1310921  41.3984489  78.9855957 110.9494781  41.8402958
  78.7126493 110.1535988  40.5821037  60.9673864  22.6174693  39.1222692
  61.5278393  22.2878318  38.4198022  61.3939125  22.3231368  39.9270535
  71.9726879  16.7528777  76.4782667  71.9062359  16.3721423  77.3539686
  72.8639776  16.5485625  76.1952639  71.4552051   1.8569045  77.7648830
  71.9405991   2.5506454  77.3183966  71.9566781   1.0611873  77.5871611
 103.2505686  16.4864402  43.1122398 102.6861126  17.2404533  42.9416943
 102.7919561  15.7482963  42.7109289 103.9745075  29.0581756  79.1983032
 103.7416679  28.7655883  80.0794411 104.6732599  29.6978908  79.3351889
  68.5534716  99.9060059  61.5427446  68.0597162 100.1810551  62.3152590
  68.3355618  98.9800262  61.4363861  73.2623529  82.9434967  93.7271690
  73.0605125  83.8054466  94.0912342  74.1933250  82.9876518  93.5090542
  84.8547077  89.8190117   5.1773256  84.3043709  90.2349186   5.8409345
  84.6371460  90.2760983   4.3649435  43.5777998 111.1913109  17.4231505
  42.6753569 111.3315964  17.1365345  43.5453463 110.3782654  17.9272735
  81.1727905 110.5292416  62.5138044  80.4167271 110.9492970  62.1037388
  81.5799332 111.2228966  63.0327559  26.8747306  89.5646954  46.5383911
  26.0717106  89.9513721  46.8874979  26.9853711  89.9756622  45.6810093
  77.5209696   7.4952655  72.4463367  77.3900205   7.6175170  71.5060520
  77.0037324   8.1907039  72.8526115  99.1300184  12.5490337  56.3795757
  99.6606571  12.1882682  55.6692886  98.5996753  13.2274394  55.9615707
  93.4777433  21.9328838  36.9050145  93.5679657  21.0337119  37.2205663
  94.0620834  22.4432330  37.4656630 114.4921715  24.7873168  62.4234343
 114.1560537  24.4300704  61.6014671 115.3847391  25.0645976  62.2168541
  93.9927274  10.6165462  43.9599752  93.7160713  11.1073833  43.1861687
  94.9473316  10.6870227  43.9596558  33.2435417  90.0685596  30.1508427
  32.5822735  90.7434940  30.3038883  33.4417367  90.1348877  29.2167354
 112.3499013  87.1866035  71.3663149 112.7792187  87.8641891  71.8886137
 112.9858585  86.4720535  71.3316250  13.4005523 102.2608089  63.7006950
  13.4921646 102.8415680  64.4560480  13.3372748 102.8518486  62.9504299
   1.9568573   5.2827792  58.9420509   1.6082894   4.8167758  58.1820631
   2.8882634   5.0622802  58.9517355  94.7404701  25.5409770  68.0954552
  94.8772651  26.3395648  67.5857782  94.2206842  24.9772601  67.5224924
  68.1960899  16.2767081  85.0524902  68.0046517  16.8284850  85.8108616
  67.6492411  15.5009513  85.1765728  41.4823359  69.2290742   3.4537956
  42.3081225  69.6664197   3.2463524  40.9425657  69.9124963   3.8510582
 105.4993374  23.7558513  39.4360495 105.4776651  24.4903712  38.8226604
 106.3591177  23.3570819  39.3019128  66.8588924 101.2210083  54.7407007
  66.6065550 102.0427799  54.3197012  67.7654219 101.3606358  55.0144625
  52.4518091  12.9753547  46.8197155  53.1202955  13.2383018  47.4523401
  51.8632251  13.7283092  46.7663050 103.6860306  18.8267570  13.9580178
 103.1142790  18.0592399  13.9740384 104.5600969  18.4779887  14.1329443
  62.4383688  91.9607639  88.7597942  61.5362549  91.6628647  88.6428547
  62.9013205  91.6306877  87.9897499  99.7062952  37.1914249  40.8479500
  98.9781601  37.6423030  41.2754488  99.9475652  36.4942794  41.4578819
  14.9674927   8.2330661  50.3415346  15.7099091   8.8367515  50.3663349
  14.6881043   8.2345157  49.4260168 101.3202602  34.8835425  83.2965565
 100.3817493  34.6957545  83.2834530 101.5430910  35.0545840  82.3814964
  75.8653719  10.1095348  70.7403326  75.7916743   9.7126536  69.8724127
  75.3894765  10.9367709  70.6666183 116.1311609  31.7269759  76.3072491
 116.7101270  31.4701896  77.0249462 115.4655725  32.2763305  76.7212868
  28.8923758  67.5918156   0.8771107  28.4552687  68.2305962   0.3139755
  28.2278364  66.9226701   1.0410091  45.9968042  81.0699272  61.0515213
  45.9443474  80.1970673  61.4408779  46.9352913  81.2415981  60.9739876
   8.5402047  20.1991325  26.8401980   7.9311882  20.4250960  26.1371565
   9.1454541  19.5741229  26.4411139  14.6779173  43.1364781   0.9183380
  14.2794388  43.1203229   0.0481674  15.5029362  43.6059815   0.7952854
  83.5554439  10.1020007  71.1121321  83.5744650  10.3840976  72.0266199
  82.6543075  10.2609019  70.8311653  72.8124887   7.7227931  33.9461708
  73.1829864   8.5866599  33.7653327  72.2011453   7.8706508  34.6677184
  52.1905661  95.1245499  67.3814869  52.9443026  94.5868015  67.6242590
  52.4135017  96.0027409  67.6902246  99.0935976   3.4506850  44.4893503
  98.2498962   3.0042224  44.4180870  99.2080909   3.8829188  43.6430073
  75.2500540  54.0604262  46.7421818  75.6244141  54.8721366  47.0845556
  74.5325834  53.8559203  47.3418856  90.4321748   3.0831103  43.0850220
  89.5617086   2.9863124  43.4712267  90.3521139   2.6950317  42.2136927
  61.2604063  55.7882172   2.8320477  61.1789530  56.7302853   2.9807636
  60.8511561  55.6441647   1.9788239  74.1466045 110.0578785  46.7765188
  73.2753992 109.6680164  46.7040873  74.7292566 109.3147945  46.9332790
  79.5226860  97.2344208  82.7735233  80.0981140  97.4820137  83.4972763
  78.7071609  96.9662571  83.1968880 106.4654190  41.0825496  75.3976679
 106.9118101  41.2102943  76.2347126 105.5382425  41.0214954  75.6275511
 105.6307090  66.7167241   4.0508625 106.5611781  66.5904767   3.8650581
 105.3885783  67.4924905   3.5450909  84.6961862   6.4580398  79.2600203
  84.1588575   7.2313171  79.0881252  84.7393162   6.0044055  78.4182405
  69.5907265  14.4397216  75.6107283  69.2216021  14.9859672  76.3046980
  69.0621406  14.6431594  74.8390770  97.1578390  17.4905925  77.1398163
  96.9993955  16.5480952  77.0866013  96.5077907  17.8077178  77.7667904
  62.2598600  97.8405190  47.2485065  62.9879713  97.2209072  47.2951221
  61.7926359  97.7237225  48.0757236  47.8870428   4.2803912  59.5893145
  48.6794180   3.7735801  59.4117785  47.6267100   4.6249728  58.7350798
  62.4336147 107.9023933  39.4765282  62.7381563 108.3921337  38.7125683
  62.5202036 108.5170555  40.2051735  68.6110497 101.3091373  46.3025618
  68.5285950 101.2602139  47.2549486  69.1486883 100.5522633  46.0694981
  43.9679623  66.1908770  82.7047062  43.8261223  65.8744049  83.5968685
  44.3360519  67.0672894  82.8171444  72.0969540  16.8256526  59.2075253
  71.3754184  16.4712291  59.7271490  71.6827065  17.1345382  58.4017849
  39.9086022  92.7826691  69.8472452  39.5671439  93.3095264  70.5697775
  39.9869657  93.3980274  69.1182613 102.2230894   0.9476810  24.8764777
 102.9993803   0.9611278  25.4363179 102.5710279   0.9275394  23.9849830
  54.1636616   7.9588561  52.7445173  53.9753968   8.4406428  51.9391155
  53.3233601   7.9178767  53.2010746  18.3069992 107.1555805  81.2312889
  17.9009593 107.3743534  82.0700455  19.0136135 106.5508938  81.4577484
 110.3032953   6.7315822  56.1364937 111.1174185   7.1768241  55.9015751
 110.5826122   5.8714538  56.4501953 103.6592085   3.7486415  38.3067799
 103.4234888   4.6328025  38.5877371 104.0745002   3.8713222  37.4531341
  91.0528976  23.2352691  43.9617491  91.3376028  23.0480914  43.0672455
  90.1159221  23.4141688  43.8823938  12.9702442  44.1239888   2.5903389
  12.1862810  43.5895306   2.4639008  13.4869402  43.9827020   1.7970535
 107.4492008  15.7503181  86.1616802 108.0272562  16.5128856  86.1856651
 107.8063375  15.1581340  86.8234921  41.0290527 100.9268093  34.5036697
  41.4690828 100.5225945  33.7558651  40.4410410 101.5740585  34.1143823
  59.6547222  87.4665451  93.6486053  58.7567425  87.4041176  93.9741421
  59.8137951  88.4065819  93.5634136 115.5513794  43.6116080  49.6911478
 115.2614910  44.4566684  49.3475246 115.2185184  43.5909705  50.5883741
  92.5991470   8.2456260  65.2609777  93.2979519   8.8995605  65.2774763
  92.8845913   7.6064830  64.6080971  31.2023037  60.2881009   2.3074696
  30.2693051  60.1368863   2.1562073  31.2639540  60.4898602   3.2411263
  99.9763948   5.5832152  63.9567995 100.4440529   4.7985129  63.6708450
  99.0536863   5.3287368  63.9478397  50.4565287 109.2113018  53.6221981
  50.5268383 109.9927425  54.1704988  49.6778917 108.7596035  53.9476728
  50.7338190 104.4327068  77.0108938  51.4217043 103.7693596  76.9560623
  50.7508612 104.7205544  77.9236317 101.2816841  17.3560481  83.8334465
 101.0913402  17.4339252  82.8986073 100.5962831  17.8695159  84.2610168
 106.1821157  25.5833297  76.5567970 105.2891285  25.6280570  76.8985558
 106.5388805  26.4593558  76.7035246  71.2028462  21.0053496  28.2165837
  71.5052611  21.3647609  29.0506077  70.3466017  20.6264930  28.4154344
 112.1759475  90.9145123  13.8897774 111.3341154  91.3149602  14.1070053
 112.2239269  90.9608418  12.9349110  59.4888973  64.5096159  28.7322521
  58.6361980  64.0769005  28.7757707  59.3819094  65.3030205  29.2569447
  99.5358211  41.1901813  81.9646072  99.1317112  40.6321006  82.6290321
  98.8724834  41.8531184  81.7729378  64.8330450  99.6044064  67.5272799
  65.6887007 100.0092030  67.3850441  64.4737101  99.4885445  66.6476917
  14.3794571  17.5762992  35.6813192  13.4604298  17.4033218  35.8855343
  14.3581425  18.3499484  35.1180744  68.3508062  69.6783304  58.3605242
  67.7859592  69.9847126  59.0699673  68.8237476  70.4604387  58.0761576
  39.2594767 103.1785488  72.4380922  40.1456499 103.4554100  72.6710606
  39.1312456 103.5090828  71.5489721  93.6792070   2.5458293  35.1331067
  92.7665836   2.2677760  35.2108002  93.7425167   3.3191733  35.6936073
  88.7534839  16.7494063   1.5959992  88.7412054  16.1158519   0.8785834
  88.9136583  16.2220054   2.3785752  83.1193177  50.6525189   2.9906628
  83.5857613  50.7895810   2.1661160  83.2316310  51.4741093   3.4688065
  93.0097801   6.5705352  70.9088421  93.6038429   5.8218722  70.9620047
  93.1825001   6.9527106  70.0484085 101.0870964   9.6806960  34.4134402
 101.7859060  10.2431827  34.7473502 100.5428011  10.2635722  33.8840699
  41.6039515  93.5596275  52.3266983  41.0751724  94.3149185  52.0694590
  42.4749041  93.9215088  52.4901485 104.2300398   6.1633735  64.6788931
 104.1286976   6.8487983  65.3393173 104.9026472   5.5837684  65.0365067
  86.2675459  14.8213916  36.1520290  86.5187675  14.1009574  35.5740190
  85.5059416  14.4914870  36.6288447  95.7491810  29.4190745  12.7700591
  95.7740051  30.3656726  12.9099548  94.8352033  29.1784530  12.9216349
   7.0534932  23.0892711  58.5256052   7.1140706  23.4616141  57.6458788
   6.1134373  23.0180221  58.6913204  82.6659584 109.1795921  41.9192696
  82.1561623 109.7433186  41.3374186  83.5269737 109.5956230  41.9619608
  33.3788633  90.6199265  44.8321581  32.5650239  90.8572483  44.3876600
  34.0500379  91.1496735  44.4018984  53.4410048  73.0138206  80.7921314
  54.1621494  73.6389780  80.8653641  52.7712870  73.3498669  81.3877678
  86.3114738 103.7067223  72.5587463  87.0131969 103.0745792  72.4031258
  85.9989071 103.9377594  71.6840172  17.9034203 100.4036958   0.7869408
  18.4179657 100.8672864   1.4476654  17.0957916 100.1605183   1.2395355
  98.2137966 109.4180202  55.0422716  97.6905537 109.6657276  55.8045626
  97.6580334 108.8069344  54.5586061 105.7319433  12.8398280  57.6126909
 105.3310186  12.4675136  56.8272781 105.0145895  13.2925849  58.0561495
 101.9075329  25.4723506  74.6447563 101.1929828  25.8808856  75.1333666
 101.5311033  24.6612315  74.3032455  83.5361463  10.1109176  48.9543295
  83.7841779  10.7975154  49.5734453  82.6034719  10.2567439  48.7959623
  40.0892960  38.1394630  79.3605518  40.1238667  37.1871810  79.4510174
  39.1545617  38.3434157  79.3304110  81.5364142  11.1026716  56.0966730
  82.1385069  11.3511932  55.3952742  80.8185334  11.7323422  56.0303974
 101.0338033 107.2808121  21.7014766 101.8155659 106.8140985  21.9968724
 100.8477963 107.9046355  22.4032450 111.1323805  10.6025136  50.1827574
 111.6806956  10.2419198  50.8795738 111.7541541  10.9707570  49.5550442
  29.5101047  39.8644280  24.3173528  28.5700965  39.7722983  24.1620183
  29.8948717  39.0774107  23.9316225 113.5743581  18.8132155  46.9344759
 113.1030400  18.0647111  47.3003054 113.1941582  19.5737636  47.3740721
   9.1142142   4.3198249  23.3922219   9.2556685   5.0190115  22.7539754
   8.3861184   4.6304771  23.9303708  60.8682741 102.4135799  95.5726910
  61.7482985 102.1510924  95.8426762  60.8814276 102.3489119  94.6177769
 114.2022072   3.3330837  40.8310318 113.6177166   2.8640708  41.4265394
 114.4507383   2.6806909  40.1761627 114.3432401  25.7200933  51.3454056
 115.1724030  26.1965728  51.3043165 113.7187977  26.2864900  50.8920860
   8.8486677  22.4502778  72.0621109   9.3836594  23.1609869  71.7086887
   8.8133258  22.6222277  73.0030775  34.4577122  31.4956331  43.7949896
  34.2664814  31.0743451  42.9570246  35.0817060  30.9082866  44.2214727
  30.3083253  10.8283031  47.0842361  30.3652072  11.5797746  47.6743937
  30.6207395  11.1605024  46.2426472 104.3640692  66.5494061  82.9962826
 105.2611370  66.2321663  82.8920650 104.4595452  67.4869299  83.1641102
 104.7494693  27.1633482  40.1866150 104.4716258  26.2473822  40.1803064
 104.5118697  27.4916863  39.3194509  66.8206882  31.0603523  45.0733280
  66.4936018  30.3320622  45.6013823  66.1394405  31.2049770  44.4166565
 106.8669172  21.0172868  26.8670082 106.2891312  20.5076671  26.2989545
 106.4306541  21.8648386  26.9539690   3.0561882   3.7843686  54.6680641
   3.9326820   4.0171042  54.3617535   2.9359153   2.8782669  54.3839025
  76.4796054  88.6224694  92.9366875  77.1075873  87.9138083  92.7964401
  76.9804730  89.4219036  92.7746201  16.5062809  48.7348843  38.6678934
  16.8221939  48.2045650  39.3994594  17.3018491  49.0307951  38.2254672
   0.0669592 108.1159757  80.5807686   0.2925080 108.8108508  81.1992455
   0.7760924 108.1280075  79.9379492  14.2857903 101.3500984  40.6097555
  14.3279570 102.1932710  41.0608768  14.7161215 101.5064205  39.7691560
 115.6717311  40.7749319  62.7563286 115.3839351  40.8794785  63.6632347
 116.4791703  41.2860060  62.7008533  19.4727004  43.9851284  33.9853263
  18.7846446  44.4285154  33.4891200  20.2463627  44.5361948  33.8669753
  95.7520319 106.5786321  51.4402199  96.3864745 106.3441629  50.7629204
  95.2669872 105.7699091  51.6043234  18.2296050  16.6635537  63.5107327
  18.9804685  17.2236466  63.3139277  17.9230154  16.9656622  64.3657017
  99.8900993  29.6431088  27.3126125  99.3852241  29.0509582  27.8700089
 100.7985301  29.5109797  27.5837708  31.4807940  20.1074052  48.1233597
  31.2344241  19.3568802  47.5827599  31.7835426  20.7647443  47.4968767
  17.4521697  12.0348680  30.0204134  17.6310670  11.9379222  29.0850902
  16.6384625  11.5505111  30.1600933  28.4046173  46.9187164  70.4305553
  27.6826906  46.4395809  70.0237560  28.3303833  46.7171097  71.3633299
   2.4175669  21.1314845  70.5633545   3.2154018  21.5374446  70.9023094
   2.0275268  20.6990266  71.3230133  52.1823162  85.9133166  93.1059635
  52.2745127  85.0496000  93.5081160  52.0811254  85.7328098  92.1713996
  41.4335251  35.7436013  47.5290251  41.6120052  36.3119793  48.2782412
  42.2940111  35.4176426  47.2653151  73.1725688   9.0503979  73.8868713
  74.0742727   9.3010283  74.0877485  73.0652375   9.2645782  72.9601336
 110.5817212  36.6027403   5.9416252 110.7309164  36.0452771   5.1779437
 110.0929888  37.3514366   5.5998278  34.4755816  18.5233057  43.9077139
  33.8045859  18.3342969  43.2517624  34.2109489  18.0149734  44.6743965
  37.7630281   8.3351612  59.5223236  37.0410681   8.8525677  59.8791170
  38.4850883   8.9578354  59.4378567  48.5789776  59.3266678  19.0301490
  48.4309959  59.5661974  18.1152952  47.8717232  59.7593927  19.5084465
   8.5437012  49.0896654  45.8863831   9.2595446  49.6021652  46.2620783
   8.9507157  48.2623720  45.6291676 115.7894342  13.1327105  40.9713840
 114.9824662  12.9783368  40.4802608 116.4772509  12.7458692  40.4296350
 110.6621839  23.4419441  59.9402714 110.1353474  22.7621198  59.5201397
 110.1506175  23.7022161  60.7062960 105.2531738  12.3718917  24.0037751
 105.7146652  11.7702162  23.4196138 105.9475072  12.7955663  24.5083880
 107.4429615  22.4536276  56.5012360 107.4624212  23.0285907  57.2662687
 108.3484228  22.4366856  56.1912632  97.0890517  33.0240440  52.5820351
  97.9768701  33.2920456  52.3449993  96.6297622  33.8453150  52.7575302
  91.2915845  38.6273742  67.5478983  91.0585089  38.5342216  66.6241980
  91.6545935  39.5104909  67.6154423  69.7288341 104.2273469  27.8991008
  70.6493259 103.9784564  27.8155565  69.6720911 104.6511639  28.7554836
   7.1091849  67.0047169  92.6648715   7.4097974  67.8643077  92.3699689
   6.2192566  67.1581155  92.9822522   6.9495285  28.7078309  47.6271534
   7.5709260  27.9809809  47.5848913   6.0932368  28.2867908  47.7027941
 114.1177870  15.3656411  19.7479594 114.4736458  16.1145258  20.2262568
 113.2717331  15.6707680  19.4203603  33.5296249  14.5081961  66.4500666
  34.1891384  13.9912808  65.9873867  33.6843967  15.4075980  66.1613560
   5.8666259  12.6719820  43.2101011   6.7300272  12.4503922  42.8612900
   6.0166353  12.8217471  44.1435337 103.8384660  47.3109293  41.1478996
 103.0908938  47.9072714  41.1061144 104.5367165  47.7690315  40.6801176
 106.1018427  17.6885748  64.7307205 106.8805678  17.7573597  65.2830648
 106.1261018  18.4736812  64.1836786 110.0550933  17.1132648  44.5890951
 110.6569411  16.3689518  44.5860147 110.5857100  17.8515756  44.2898083
  86.2678720 111.7578218  69.2479420  85.4839356 111.2239608  69.1188383
  86.9653733 111.1232565  69.4124126   9.8459572  46.6190815  40.8705854
  10.5261409  46.4028883  40.2327442  10.1974607  46.3157845  41.7076588
 109.4295384  12.7728093  36.3874102 108.7207897  12.5309086  35.7912636
 109.2861725  13.7023532  36.5652418 109.1559870  26.3906193  57.5825405
 109.8654099  25.7872534  57.3614073 109.1405888  26.4017487  58.5395479
   4.7206804  33.9869809  46.1735535   4.8452330  33.5711575  47.0266724
   3.8035214  34.2609334  46.1722517 117.6437769   1.1005897  42.1079016
 118.0591994   1.6101009  42.8036404 116.7859279   0.8663756  42.4621201
 116.9792324  20.6166697  64.1716099 116.1507411  21.0959268  64.1594553
 116.8063192  19.8264122  63.6599255   5.3455764  17.0823550  73.4156513
   4.7761631  16.5598488  72.8508615   4.7872061  17.7958882  73.7243986
  82.9131407  93.4691305  52.4902201  82.1426509  94.0049274  52.3018074
  82.6815699  92.5964565  52.1723413   4.4628480  38.2298565   9.7913712
   4.4102830  37.2743320   9.8124123   5.3735781  38.4146333   9.5618933
  29.4192719   5.2375948  59.1916275  29.7444272   4.5828456  59.8095322
  30.0072837   5.9846669  59.3027878 100.5012907  82.8532786  73.4919310
 101.3353694  82.4001784  73.3684540  99.8596633  82.1503301  73.5939550
   1.2058868  83.4602451  58.2197857   1.7803924  82.7270412  58.4401894
   0.3435772  83.1928825  58.5378551  16.5709639  46.1727619  54.8023891
  16.3452709  46.1436129  55.7321453  15.8400118  46.6356277  54.3928814
   8.9468670  21.9019389  40.0137711   9.1609460  22.8111148  39.8044872
   8.5099065  21.9484138  40.8641481  34.4687748  37.0246506  23.8438582
  34.0191245  36.2809467  23.4426737  35.3586078  36.9839311  23.4934664
  98.8126476  34.3049026  28.9617038  99.4656320  34.6611714  28.3592796
  99.2592938  34.2733216  29.8077202 113.2476653 107.2914736  53.2657051
 113.1658495 108.2168923  53.0351925 112.6507700 107.1750913  54.0048981
   8.7393618  43.8233852  67.3750925   9.2168295  43.1737757  66.8590879
   9.0260458  44.6662712  67.0235395   2.3731896  50.8811426  30.5777287
   2.8917903  50.7058287  31.3629365   2.9511711  50.6466389  29.8516607
 111.5131910  34.6523666  54.4456387 112.2802462  35.2095389  54.5776129
 111.6889246  33.8738036  54.9740219   2.7978471  19.6561790  33.7189150
   2.2438183  19.1995108  34.3519545   2.1808134  20.0946021  33.1330109
 117.5161414  68.3784294  87.6311302 116.6628241  68.7135553  87.9063988
 117.3871637  67.4335432  87.5487995  39.5920444   0.4429115  70.9070158
  40.0548220   0.4978837  70.0709248  39.8592472   1.2304829  71.3809013
  90.9290548  32.1702003  11.0305619  90.0362225  32.5148535  11.0133648
  91.4195652  32.8019261  11.5564430  94.7167988  27.8901029  50.9317446
  94.5192881  28.8144803  50.7809210  94.6097989  27.4792480  50.0738478
   2.9309770  41.3914871  43.7015104   3.5264319  42.0432377  44.0714931
   3.4016436  41.0382748  42.9465580  76.3115327 106.8454827   5.4367435
  75.7826547 107.2774441   4.7659761  76.7253190 106.1128105   4.9804491
   6.4127612  59.5917606   9.6403325   6.8424016  58.8209677  10.0111651
   6.3821405  59.4193840   8.6992800 100.7751072  97.1726937  52.4304914
 100.6674469  97.9700405  52.9490280 101.0651792  96.5139694  53.0615044
  27.7359504  71.3622504  91.4788863  28.1021268  70.4839354  91.3754001
  27.4169964  71.5930968  90.6064126  22.5122929  37.2202420  64.4755316
  22.1881533  36.6627860  65.1829243  21.8055153  37.8471446  64.3216085
   7.1380049  14.8556948  23.4460020   6.5930241  15.6379020  23.3600950
   6.5629542  14.2064250  23.8509655  79.8214503  39.1281295  48.0213165
  79.2913242  38.8750458  47.2655773  80.3586335  39.8543501  47.7046633
 113.3152915  39.7806048  69.9360275 112.6557447  40.4696512  70.0163126
 113.6201687  39.6353555  70.8316755   4.8147422   5.3006411  37.2262144
   5.1281893   6.1357778  36.8790412   5.6035107   4.8634624  37.5470757
   7.3343837  12.4439752  36.3597894   7.1801949  12.3086464  37.2947454
   6.7123902  13.1276727  36.1109614  54.1390909 105.8497192   4.1111559
  54.9696196 105.9475697   4.5768574  54.2465914 105.0508006   3.5950127
 114.0098183  21.1542416  33.6193943 114.9076162  20.9074640  33.8414097
 113.4977047  20.9151673  34.3919325 116.8167193  26.8869042  51.0010910
 117.6817560  26.5296865  50.8002472 116.9356127  27.3505425  51.8300295
  93.6182733  11.4215350   0.5569539  92.7008791  11.1923897   0.7056631
  94.0532084  10.5824244   0.4054422  84.4348593  29.7984600  12.8964531
  85.2305885  30.0511503  12.4282730  84.7383447  29.5567703  13.7715042
 111.2833328   6.8913996  60.4738712 111.7890741   7.4306458  61.0818768
 111.7171265   7.0118380  59.6291542 109.3155457  20.9083056  51.4079571
 108.8187934  21.3418102  52.1018887 110.0291003  20.4640555  51.8659019
  77.4424551 105.2790017  33.9861178  77.8993245 105.0947500  34.8068213
  77.5768126 104.4936390  33.4556603  11.0441935  14.9913502  42.9087973
  10.7459319  15.4905427  42.1484852  11.8701541  14.5975828  42.6277876
  12.3938894  26.0838223  56.0439825  11.8438005  25.5100060  56.5772438
  11.8178046  26.8079233  55.7989645  30.7610512  28.5310197  42.1333885
  31.5875101  28.1231689  41.8748188  30.2427053  28.5527492  41.3289785
  14.9658918  58.6917067  69.8153305  15.8277941  59.1080141  69.8221207
  14.6320283  58.8466406  68.9317226 113.5420848  12.6714218  51.3696527
 113.3944420  11.7865181  51.7033863 113.3008389  12.6219058  50.4446745
 110.2442844  53.3008909  34.2672563 110.8557041  53.7513542  33.6846089
 109.7626682  54.0057182  34.7002625 100.3513904  54.2467356  33.9438939
 100.1750036  55.1855135  33.8821673  99.6237989  53.8997555  34.4600797
  24.7053695  11.4774942  43.6031199  24.3208861  11.6806364  42.7503967
  25.3867650  10.8331978  43.4112549  28.4097528  16.4609480  60.8072758
  28.0590177  15.7750869  61.3754416  28.7361765  17.1282995  61.4108658
  39.0444064  51.8631554  34.4766164  39.0561604  52.5568342  35.1360869
  39.7415519  51.2649965  34.7457337   0.0228750  35.4374409  48.3931589
   0.3945581  36.1437225  47.8647184   0.1144491  35.7405162  49.2964840
  11.1559832  20.8528638  62.5112629  10.6673574  21.5735149  62.9089308
  11.0098243  20.9546065  61.5707779  42.4722624  50.3920937  59.0029526
  43.2040501  49.9624252  58.5601187  42.8545809  50.7519150  59.8033237
  28.8496256  32.6131678  54.7951078  29.5035005  32.5049305  54.1044855
  29.2096376  32.1359777  55.5427122  20.7818961  39.3184996  27.4735594
  19.9389422  38.8848019  27.3410130  21.4210033  38.6059260  27.4702835
  10.2255893   8.8379717   8.3496469  10.5805767   8.5351998   9.1854370
  10.8769953   8.5698783   7.7015507  23.2711005  25.2020311  24.0109634
  22.3965263  24.9180174  23.7450910  23.8639045  24.7350073  23.4221482
  55.6745768  32.0662498   2.9337952  56.1866760  31.2890673   3.1573504
  54.8091221  31.7258120   2.7072516  46.9476175  10.3709435  37.3135138
  46.3916111  10.0106168  38.0043483  47.8267050  10.3767467  37.6921964
  84.0130587  29.2745709  30.9665370  84.1877671  29.8561072  30.2265882
  83.5159607  28.5490179  30.5887794  20.9195089  18.9832473  37.1987605
  21.7817044  19.1257572  37.5893259  20.9938145  18.1377387  36.7562389
  96.4406009  26.8979120  57.0312977  97.3069878  26.4910030  57.0368481
  96.5573950  27.7031350  56.5271091  18.8987172   4.9024346  78.0077171
  18.1933498   5.0844336  77.3867750  19.5003128   4.3339717  77.5269222
   9.3082458  29.7977352  35.8014965   9.4185841  28.9103556  36.1429834
   8.4417641  30.0660062  36.1072278  30.8439755  37.8691483  33.0573916
  30.4851127  38.6942816  33.3838916  31.7877388  38.0212188  33.0082178
  16.2116814  66.1674213  26.5239358  15.5514061  66.8457127  26.3818455
  15.7066190  65.3812742  26.7315745  20.3267360  18.0760121  46.7613506
  20.0365901  17.1652627  46.8121815  20.3890991  18.2555091  45.8232021
 107.9009147  30.9785199  56.0995483 108.1493981  31.0516119  55.1780558
 107.0112879  30.6257725  56.0804701  14.5164526  51.2616158  84.6138573
  14.5969379  50.4381895  84.1324806  14.0465045  51.0264015  85.4138851
 112.0250119  23.9481235  49.6533394 112.1118458  24.6546054  50.2933216
 112.3896702  23.1802249  50.0933266  10.9191132  48.0814505  49.7370768
  11.0351050  48.9487505  49.3490458  10.1081121  47.7522278  49.3496227
  37.9912663  55.4247999  36.4201522  38.7465858  54.8394585  36.3644814
  38.2368994  56.1837530  35.8911085 105.3769024   0.0666571  59.0334129
 104.6729107   0.0098789  59.6794844 105.8886476   0.8292594  59.3032026
  57.5880718  24.5851350  61.1056376  57.7465057  25.1110053  61.8895960
  58.4617329  24.3387675  60.8019018 112.1791889  13.3764303  56.8482113
 112.7859099  13.5616875  57.5650120 112.1834345  14.1738176  56.3186932
   1.8429221  37.3585248  55.4732418   1.3651165  37.4743080  56.2945414
   2.7639356  37.3365283  55.7330179  31.3625836  32.8763843   2.5363210
  32.1504426  32.7449226   2.0088460  31.6879106  33.2009959   3.3759767
 113.6119287  22.0037150  40.3956652 113.7713568  22.9442382  40.3167343
 113.1048323  21.7804122  39.6151400 105.6262250  14.3510878  44.0693092
 104.8545857  14.1299224  44.5907402 106.2526722  14.6986783  44.7041130
   5.2285624  39.6982479  12.0993662   4.8086646  38.8891554  11.8073261
   5.2635181  40.2464151  11.3154507   9.0931159  48.8439703  29.8356080
   9.6914500  48.1787491  29.4954538   9.6655351  49.5500565  30.1356292
  78.1241031  43.5998154  21.7035675  77.2406669  43.5577393  22.0696330
  78.2047553  44.4951725  21.3748407 108.2193275  20.5476570  62.0313931
 107.3700900  20.1728392  62.2649288 108.8397302  19.8287725  62.1519709
 110.4635568  30.5524087  23.0883288 110.9695454  30.5342054  23.9006567
 110.8655198  31.2505555  22.5713682 116.5424028  44.2978716  66.5879154
 115.7061492  44.4930029  66.1650276 116.5441427  44.8400354  67.3767662
   8.1268591  42.1892262  41.1816645   7.3067963  41.6963768  41.1529112
   8.4251010  42.1053123  42.0873356   1.9799121  19.1418648  63.9082146
   1.9874130  19.0574515  62.9547739   2.5734329  19.8708034  64.0888071
 102.4747260  49.8375559   6.6162646 101.5612073  50.1216507   6.5845472
 102.6055367  49.5521450   7.5205112   5.0768024  14.9709570  55.1318407
   4.8845500  14.3806624  55.8604193   4.8713231  15.8428025  55.4693270
   3.8805130  47.4569607  81.5056992   3.7219638  47.9401207  80.6947422
   3.0916312  47.6008654  82.0283699  27.4164224  49.1545391  29.8037171
  26.9767570  49.9306440  30.1509643  26.8262291  48.8288546  29.1241336
  13.8420475   8.1885034  81.8140793  13.1549406   7.9665273  82.4424458
  13.8539517   9.1455305  81.8003273 100.0061984  49.4063520  31.4908195
  99.2642434  49.8744202  31.8737698 100.7757194  49.7995615  31.9024730
 116.5110318  41.3400984  58.9415693 115.7949965  41.0448360  58.3791256
 116.4465418  42.2950554  58.9299631  29.9765062  22.4948311  57.1545362
  30.0552654  21.6879487  57.6634264  30.7356739  22.4854183  56.5716076
 110.3135021  51.4563370  52.4056864 109.9043335  50.8063221  52.9769039
 111.1676396  51.6220379  52.8047132  53.6387820   2.0883827  41.1796093
  53.4848781   1.8109635  40.2765131  54.4900413   1.7124872  41.4038658
  17.1383017 109.6623529   8.8223225  17.4741953 109.2427753   9.6143842
  16.9415110 110.5595660   9.0916073 106.0441978   9.8463571  10.6676924
 106.1436851  10.4445064   9.9270499 105.7061918   9.0391332  10.2799118
  46.3995695  39.0493560  64.4621658  47.1728516  39.0491915  63.8980198
  45.8733845  38.3142662  64.1475153  85.8257962 111.6701580  31.7590570
  86.5225715 111.6045863  32.4120784  85.8968622 110.8620331  31.2510061
  21.5192056  39.7304106  36.6388941  21.4322257  40.3102827  35.8823156
  20.6358409  39.6787834  37.0039058  34.0954137  50.0430536  38.0420542
  33.3409429  49.7935486  38.5756803  34.7166944  49.3236017  38.1544447
  13.5663021  51.6510534   5.4791993  13.4894717  52.4115849   4.9030745
  14.4531918  51.7084789   5.8346701  18.2857466  23.0584717  14.5871127
  18.0115128  22.5401402  13.8305688  18.2637143  22.4429607  15.3198433
  21.0605049  32.9218626  58.8756037  20.3813267  33.4048891  58.4048223
  20.8005738  32.9779530  59.7951269 102.5088163  49.3732452  26.9803762
 103.3817322  49.1351223  26.6680527 102.3145135  48.7298346  27.6619196
  83.1933544   9.1064928  78.9220789  82.3127694   9.2871712  78.5932043
  83.6577646   9.9387215  78.8328996 114.6954106   8.3857554  31.1044121
 113.8736220   8.8076520  30.8536172 114.7744791   7.6415861  30.5075932
  16.8144023  53.9115667  50.1477337  17.2547925  53.1060934  49.8766279
  17.5259912  54.5017290  50.3958845  47.9862309  16.7179525  45.4429626
  47.1995544  16.8870294  44.9245262  48.6319017  16.4124012  44.8057938
  29.2020750  29.5792317  43.9434004  29.8336697  29.1495180  43.3666277
  28.4338140  29.0085649  43.9247704  34.1219592   6.2521952  51.2875557
  35.0310302   6.0015279  51.1232805  33.9028096   5.8282554  52.1173000
  25.5022454  46.0786867  32.0472646  25.3467369  46.2753248  31.1234784
  26.4116979  46.3367939  32.1972847  74.4454284   6.3418162  50.2253866
  75.1335759   6.8912375  50.6006479  74.1427274   5.8039534  50.9570360
  12.5364649   6.1746413  30.9039521  13.4521234   6.3248390  31.1389875
  12.3485768   6.8359351  30.2379036   0.9277850  40.7263899  11.9901752
   0.1128927  40.7501364  12.4917912   0.7290851  41.2085485  11.1875105
  17.5113392   9.2100304  42.3416281  18.0393422   8.7395406  41.6965818
  17.7733779   8.8372743  43.1834221   4.9499536  53.7617350  48.9992523
   4.6044922  54.4401789  49.5794296   5.7266551  54.1574669  48.6038256
  10.1027203  38.2459068  43.9017200   9.2080712  37.9078555  43.9411879
  10.5730772  37.6155925  43.3560991  17.9082561  38.6781883  68.7196064
  17.6914299  39.5742869  68.4622622  18.8133538  38.7295794  69.0268326
  13.7913430   8.4521055  20.2169943  13.2564592   9.2369276  20.0978923
  14.2891395   8.3757222  19.4029939   3.0784681  33.0068159  25.2386451
   3.3739766  32.2946119  25.8058071   3.8165060  33.6158776  25.2147007
  87.4986083 105.0151421  33.4624529  87.8712512 104.1793175  33.7431073
  86.5518261 104.8867817  33.5204053  33.9153075   8.1059539  63.8815737
  33.5270429   8.7133414  63.2518435  34.6442246   7.7042532  63.4087706
   4.5996055  20.7954907  13.6929953   4.1340205  20.0446415  13.3246374
   4.0883395  21.5549374  13.4135664 103.8444050  22.8351045  53.5195732
 103.1615098  22.9783177  52.8643036 103.8552888  21.8870163  53.6508894
 107.5390060  37.0338154  75.3446579 107.0494838  37.0622778  76.1667204
 108.3604927  36.5972567  75.5700636  16.3067079  53.1194782  45.0915766
  15.6885421  52.4522352  45.3897190  15.7543302  53.8180065  44.7406244
 106.8639119  62.8784657  31.5286827 105.9112318  62.7987432  31.4809799
 107.0297892  63.2547808  32.3930335   4.6008351  28.1820488  29.6107483
   4.5291245  27.2315550  29.6982145   4.2917904  28.5237718  30.4497647
  88.1062551  29.5035839  29.1362262  88.9800472  29.7292113  28.8171458
  88.2299323  29.3275404  30.0689340  22.3464179  46.3374710  29.9647403
  22.7899265  46.7638779  29.2314529  21.4432621  46.6503096  29.9130583
 103.2633407  10.9057474  58.4800720 104.1210385  10.7004666  58.1079912
 103.2401760  11.8620205  58.5152483  35.1050973  50.7444715  31.7038798
  36.0286784  50.5647659  31.8797636  34.8347306  51.3261127  32.4143934
  38.5463047  60.7631731  66.1161280  38.6848164  61.1925888  66.9603109
  37.6183295  60.9014606  65.9264660 101.2103136  15.1305699  72.2872305
 101.4404948  15.9873176  72.6467180 101.9173939  14.9303603  71.6738892
  13.9412367  44.9893856  34.3824434  13.1972563  44.9833393  33.7802076
  14.4337535  45.7755995  34.1467977 102.1038933  46.3356972  35.0574183
 101.5494127  46.9323397  35.5602074 102.2466810  45.5914116  35.6421304
   6.0705394  33.8327956  75.9628820   6.9711083  34.1571546  75.9631872
   5.6470549  34.3024492  75.2443314  41.5182972  26.5037560  52.5948668
  40.5677795  26.4946103  52.7073956  41.7947483  27.3438597  52.9609728
   6.9991338  52.2431326  39.0078759   7.2932988  51.8775368  38.1735873
   6.2987858  51.6562033  39.2929339  94.1772433  36.7278409  57.8025818
  93.5587902  36.1117435  58.1952286  94.0578480  37.5368524  58.3000517
  80.9794089 106.7599366  24.4453454  81.1993657 107.5767417  23.9973736
  80.7363140 106.1586316  23.7413788  88.5788102  46.5801239  29.5412540
  87.8168793  46.5270376  30.1182079  88.4934278  45.8232737  28.9614940
  78.5791836 110.9270392  12.3423100  77.9259943 111.6118473  12.4858844
  79.4109497 111.3974005  12.2861207   7.9172182  16.1521149  46.5769720
   7.3584330  16.8974948  46.7969704   7.3099428  15.4191852  46.4756727
  95.3568859  27.3776150  79.0190363  95.2488966  26.4597631  79.2682743
  94.9900980  27.8699636  79.7533989   4.0539929  30.1914859  56.8835545
   4.8643869  30.6912160  56.9823551   4.3046525  29.4294858  56.3612938
  17.5185490  29.4952679  92.8489971  17.7696538  28.5725570  92.8912067
  18.2729852  29.9309015  92.4524117  43.3932543   3.5290080   8.8531291
  42.9076815   4.3467885   8.9612192  44.1628265   3.7735495   8.3391315
  22.6117229  43.4769773  45.8808804  21.8282819  43.7969255  46.3281870
  22.3055792  43.2313204  45.0078630  28.6797833  56.7294264  52.2038555
  28.2121587  55.9368038  52.4671125  29.5510459  56.6322947  52.5881720
  16.3956666  36.8549681  61.9717503  15.6171858  37.0520329  61.4508247
  16.3029540  37.3967886  62.7553749  78.4759966 111.0099972  21.0390902
  77.8904992 111.3032791  20.3409433  79.2745588 111.5224863  20.9130549
   8.2535249  56.3375807  27.3838186   8.0215305  55.4091501  27.4046683
   8.2021517  56.5765667  26.4583564  30.6479883  40.3660774  81.0303020
  30.7261443  39.5252299  80.5796432  29.7081447  40.5473852  81.0377502
  98.1532140  46.5235949  47.2263527  97.8488512  47.2319746  46.6590786
  98.6018546  45.9191895  46.6350412   1.3982539  40.0476694  54.7244978
   1.3690156  40.4780912  55.5789614   1.5016301  39.1180778  54.9279881
   9.2589998  30.1217365  26.7372942  10.1269972  29.8377633  26.4506364
   9.1698521  29.7646236  27.6208973  18.0602109  46.3037968  18.0550158
  17.9095602  45.4645395  17.6200616  17.2341454  46.4950705  18.4991598
   1.7025350  16.5564179  55.3790998   2.5138655  17.0476437  55.2499819
   1.8049571  16.1462796  56.2378931  33.0546761  23.4726048  87.0558739
  32.9539919  24.4236088  87.0147896  32.2334123  23.1293774  86.7038059
  14.2448783  35.6817913  54.1212797  14.6472061  36.5233827  54.3359613
  13.5203087  35.5976582  54.7410774   5.1307476  85.5970573  57.2341681
   5.3170317  86.3354301  56.6542196   5.3092360  84.8225689  56.7007542
  23.5744309  94.1517258  47.2971630  23.8356471  93.7160873  48.1084728
  23.2897735  95.0227070  47.5739098   0.2565200  28.9164281  35.0256324
   1.1923221  29.1104484  35.0791335  -0.0545275  28.9861631  35.9281945
   4.8974726   9.3860096  78.0173779   4.9887830   8.5079581  77.6473522
   4.5923921   9.2381531  78.9125299  29.9457610  91.1297371   1.3345882
  30.5318732  90.4178669   1.0777924  30.4282058  91.9273950   1.1172936
 105.2198549  41.3091278  59.2886496 104.4308658  40.9156942  58.9159012
 105.9390803  40.9233093  58.7885571   2.8656283  22.5812054  38.3274317
   2.1856062  21.9464707  38.5530710   3.6749804  22.0703387  38.3134747
  21.2640476  29.3250799  12.7097845  20.8625770  29.7536325  13.4656930
  21.4848113  28.4473467  13.0213594  24.0287662  28.2247186  48.7481833
  24.3633199  28.3304071  49.6387625  23.4918165  27.4332285  48.7863922
   4.2561212  49.2511368  51.7019510   3.4745833  49.7798347  51.5409899
   4.9855435  49.8229170  51.4627075 103.4712680  36.6679049   0.9665583
 103.0672784  37.0700502   0.1975967 102.8358789  36.0131717   1.2561084
  96.5874405  44.4302845  55.5948067  97.3788448  43.9802170  55.8903599
  96.1882062  44.7649813  56.3978148  19.1054261  13.8427413  33.0624723
  19.5720732  13.0097628  32.9945135  18.1985605  13.5952103  33.2429028
  24.1617703  67.6595211  67.1403503  24.7290182  67.3763752  67.8574944
  24.3940330  68.5773420  66.9993305  48.4438038  41.8700218  65.6634331
  48.6376715  42.8064299  65.6211615  49.1605616  41.4551306  65.1834822
  25.2830768  40.6702948  66.5492868  25.7862258  40.6073856  67.3611450
  25.7655263  41.3027906  66.0169125 100.4444595  27.1587920  14.4615054
 100.5875857  26.4027739  15.0308764 101.1469717  27.1069479  13.8134158
 116.1456078  44.8522520  12.9612112 115.8459757  44.1514730  13.5403192
 116.5525456  45.4900169  13.5476315 116.7402817  41.8543386  54.6467113
 117.1227165  42.2415209  53.8592672 116.0849433  41.2393665  54.3172026
  21.2730789  19.0385199  52.7285194  21.3945246  19.7823656  52.1384525
  20.5416417  18.5500956  52.3507929  14.4116294  49.7074795  25.7506442
  14.0931630  50.3763962  26.3567495  15.2950060  49.9946833  25.5195785
  29.6340013  76.8223763  22.1333742  29.5021415  76.6657972  21.1983204
  30.4629087  77.2985983  22.1819210  12.5260341  16.5093458  84.7047329
  12.1226108  15.7509780  84.2824078  11.8806064  17.2094202  84.6070004
  78.2905514 109.2895604  24.7418427  78.4731413 109.4757483  23.8208508
  77.9003872 108.4155024  24.7367191   8.5430980  22.3621464  84.2772770
   8.5834545  23.0017066  83.5662460   7.6260573  22.3665166  84.5515919
   0.1684067  42.4322319  43.7341356   1.0320212  42.0387745  43.8590097
   0.2482845  43.3092690  44.1091776 103.2845457  42.1966600  41.0340643
 102.3859985  41.8694878  40.9916115 103.2067938  43.1339931  40.8563328
  99.9189432  50.2465200  46.3650084  99.0543063  50.4409170  46.7267370
 100.0640745  49.3237591  46.5740252  54.3888664  52.0690966  14.0717268
  53.6777973  52.1934605  14.7003305  55.1795626  52.0277500  14.6096194
   2.0400141  45.7385874  71.4557886   2.8127289  45.4266930  71.9268131
   1.7936373  45.0075245  70.8891535 114.0529735  24.7771096  40.1933956
 113.5805406  25.1978493  40.9117365 113.6308829  25.1102662  39.4015121
  10.8027947  74.8535442  50.9934282  10.7028067  75.2868700  51.8410492
  11.3925433  74.1199827  51.1675358 110.8696349  42.7812767  31.9798756
 109.9544181  43.0569363  31.9286799 110.8693935  41.8859339  31.6413593
  87.7430506  30.9748983  50.7007122  88.4984036  31.1462641  50.1383018
  87.1481939  30.4623795  50.1532650  41.4643288  33.1516242  57.8642941
  42.2850752  33.0038905  58.3341646  41.3464689  34.1013956  57.8808546
  34.8654509  40.2387047  27.2350216  35.2941132  40.2276230  28.0908012
  34.7002339  39.3166995  27.0379400  16.1408556  30.1062965  24.3330240
  15.8923638  30.5025196  25.1681828  15.3539073  29.6447515  24.0433359
 108.0193050  17.7958345  30.1028013 107.5861223  18.6382973  29.9655342
 108.9163567  17.9355299  29.7994614  24.1239476  18.8244486  33.9886260
  23.1934237  18.6285996  34.0981841  24.4869208  18.0402040  33.5769916
 102.7294309  38.2592034  89.5234680 102.7420624  39.0701938  89.0151691
 102.9898043  38.5251760  90.4053402  14.3047178  10.7933486  60.6000137
  15.0881958  11.3431621  60.6099319  13.7124145  11.2314188  59.9888659
  18.6283898  56.3338757  86.0844231  18.4317791  56.9478512  85.3768826
  19.1357470  55.6391811  85.6646347 105.4635532  50.3454018  47.4073887
 105.1781519  50.6874037  48.2546282 106.0667927  51.0087299  47.0722342
  68.3682973  72.6782888  82.4574366  68.8531477  72.0068162  82.9373076
  67.4694306  72.3504596  82.4291530  97.8573938  46.7573929  58.0896568
  97.6677556  47.4481201  57.4547005  97.1964474  46.0865450  57.9183531
 101.8613274  40.6078768  23.6041307 101.7697795  39.6968389  23.3250928
 101.6330428  41.1200666  22.8283858  21.2230539  26.0972786  84.3694496
  20.6472516  25.5841064  84.9363136  21.8294120  26.5286922  84.9714851
   0.2450905  45.6606150  28.0888772   0.7065207  45.7501984  28.9227176
  -0.6617016  45.4783297  28.3353162 112.9683627   5.3270638  19.4623327
 112.2556646   5.4241049  18.8307667 113.7078874   5.7833576  19.0609229
   6.3796932  14.8477054  12.0546067   7.0149350  14.9411595  12.7645123
   5.8411533  14.0994263  12.3120666   5.5720234  52.6932192  24.5714855
   5.0867617  53.2814789  23.9929485   5.9728378  52.0543957  23.9820123
  29.0575337  57.1785450  39.2050934  29.3186235  57.1404552  40.1252079
  29.6658850  56.5894270  38.7589145  21.0267210  20.6413937  71.2312269
  21.9029284  20.7587409  70.8641815  20.4728007  20.4536462  70.4734945
  17.6654685  63.3454704  18.6437154  17.0761335  63.0146742  17.9658580
  17.1877921  63.2119417  19.4623888  28.4236121  30.8668208  32.8763461
  27.6409745  30.7957196  33.4228373  28.1718254  30.4664612  32.0441532
  53.2391930   1.9023861  14.1348040  52.9386330   1.0103462  13.9611363
  53.1314707   2.0117471  15.0796151  14.1876423  55.3046608  49.3542957
  14.9097967  54.6846628  49.4559288  13.4289157  54.8508358  49.7211885
   5.8312958  19.3216705  26.2411165   5.9507525  18.6336374  26.8957710
   5.5679935  20.0904608  26.7469478 115.0670244  33.2741714  30.2705669
 115.3827362  34.1303110  29.9814606 115.0623704  32.7399087  29.4763517
  58.0593157  35.6001854  48.1660938  57.2062826  35.5142522  48.5917473
  58.5953951  34.9138045  48.5632467  19.8272264  11.9372356  47.5135517
  18.9950252  11.6106510  47.1714783  19.5867527  12.4305975  48.2977724
  13.3568025  76.9400883  72.7762318  12.7018034  77.3060179  72.1818399
  13.6982405  76.1744022  72.3143053 110.8788778  17.7356303  19.4330263
 111.2619640  16.8585634  19.4178116 110.0543435  17.6451695  18.9553320
  39.7513509  12.6942849  33.2073784  39.1076159  12.1775877  32.7227521
  39.5109296  13.6037004  33.0302048   5.4815912  55.2398396  80.8077526
   6.0140997  54.6040010  81.2856388   5.9690112  55.4014921  79.9999666
  19.3629897  25.4786301  24.5050025  18.7583745  25.7781935  23.8260818
  19.9230123  26.2354136  24.6778774 109.1204049  57.4085379  34.0814543
 108.6189182  58.1964779  34.2909503 108.5658462  56.9280577  33.4667683
  22.6927280  29.0170383  21.9138694  22.5194955  29.9515700  22.0273280
  22.6625347  28.8810921  20.9668541   0.6123899  33.2555962  51.7722654
  -0.2378730  33.6947513  51.7929554   0.7221513  32.9890585  50.8594990
 100.8341701  55.7640028  59.6350813 100.0969119  56.3374090  59.8445797
 101.6081269  56.2659693  59.8905230  18.6111951  50.2326632  37.6854920
  18.9525557  50.9639788  38.2001591  19.3857789  49.7194910  37.4554729
   0.7430838  67.9097319  39.1977286   0.0731925  67.2358990  39.0818453
   0.3455660  68.5422373  39.7961831  15.3391755  69.7693968  28.2651567
  14.8859167  68.9849710  27.9561782  14.9034095  70.4916573  27.8127456
  72.0308096 106.4108534  34.0041065  71.6482450 105.7446564  33.4330916
  72.1796984 107.1618829  33.4296322  85.0486155  31.7389894  40.3370762
  84.4774742  31.7737389  39.5697308  85.8631106  31.3551855  40.0122356
  24.4523954  19.5137370  66.9380474  24.3159199  20.4153395  67.2291088
  25.2937508  19.2635596  67.3198318  75.5793519  55.4458189  54.9845171
  75.7090230  56.1793947  55.5855846  76.3434644  55.4701757  54.4085217
  31.3529325  41.6282701  44.2998648  32.0870042  41.0502005  44.0919971
  31.2042594  41.4992285  45.2366018  -0.0939518   4.4490448  38.8248110
   0.6711347   4.7764447  38.3518600   0.0624785   4.6988142  39.7355127
  95.1368470  14.3054366  17.1005237  95.0175019  13.3619642  16.9916666
  94.8454304  14.4820905  17.9950082   4.0867588  45.8898783  36.3434601
   3.8042447  46.7099476  36.7483091   3.2769310  45.3974819  36.2094641
 102.1068115  31.4384627  55.4827070 102.2136123  32.2090507  54.9250174
 101.2424274  31.5476465  55.8791304 110.1593502  60.8599615  12.4153996
 110.4734351  61.7347765  12.6440418 110.6191684  60.2753353  13.0179036
   4.3421039  45.7675982  18.8145816   3.4203354  46.0195827  18.7590981
   4.6099618  46.0314322  19.6948504  29.5154142  60.6482315  80.3374004
  29.4989872  59.9869394  79.6455479  30.4451299  60.7714701  80.5288982
  29.7243023  48.9140844  34.2265821  29.2296171  49.6501780  34.5866966
  29.7431660  48.2693195  34.9337983  96.0783119  24.6984148  49.5964003
  95.3275128  25.2444506  49.3632174  96.7837711  25.3220606  49.7685242
 103.3894963  20.5099154  50.2714348 103.6280961  20.7493329  49.3759012
 104.1713841  20.0830126  50.6216335   3.0279490  36.2324762  24.7096562
   3.7035665  35.7133508  25.1458669   2.6011214  35.6174207  24.1132021
  94.5728231 107.9229556  71.8250227  93.9258266 107.3262004  71.4488411
  94.9813605 107.4200581  72.5295925 116.3769548  16.8906975  70.9352350
 115.5361594  16.6210425  71.3048029 116.7023115  16.1106348  70.4859257
  35.9631419  16.3749802  78.3712196  35.8466649  15.6833005  79.0225601
  35.6758952  15.9797156  77.5481224  23.0088472  14.6086156  47.3696136
  23.2193255  14.4299054  48.2861233  23.3020949  15.5086577  47.2276211
  24.0756917  25.8777690  38.1454539  23.7404466  25.1239276  37.6601028
  23.4033370  26.0578561  38.8025212  17.3173141  51.1551809  28.8986373
  16.4739072  50.9184408  28.5128260  17.5883567  50.3734875  29.3800139
  17.8721309  68.2889223  40.5897665  16.9620144  68.2813787  40.2933502
  17.8484523  68.7577105  41.4239788  22.8519344  61.0207796  37.2204041
  22.2257590  61.2610960  36.5374804  22.9387069  61.8104219  37.7544165
  12.6177144  62.7771664  64.4627810  12.6644695  62.7924490  65.4187155
  11.8168902  63.2583141  64.2544317   1.0640174  56.5389109  18.5403979
   1.4947394  57.3517799  18.8048983   1.6694427  56.1392689  17.9159153
 117.8705700  26.9441795  75.2383947 117.7501588  26.0825276  74.8392868
 116.9964345  27.1934700  75.5383492 116.7189735  39.2120099  22.8095293
 117.1535966  40.0375128  23.0237246 116.5278478  39.2776823  21.8739057
   4.6987945  29.4243908  24.3786240   4.2699152  29.0472484  23.6104703
   5.3008866  28.7422061  24.6758485  35.4154921  51.4206314  40.3915167
  36.2546468  51.6020966  39.9682832  35.0951695  50.6292057  39.9587631
  45.5498457  37.8452373  39.6231842  46.3528728  37.4425673  39.2926836
  44.8654842  37.2023153  39.4373536   2.7748719  36.5985274  30.3891826
   2.7237803  36.8365979  29.4634700   3.4892249  35.9629774  30.4339671
  22.4693489  40.2836990  66.4614153  22.4292755  39.8506331  67.3141098
  23.3400464  40.6804562  66.4349747  28.4399605  67.6292562  21.3711309
  27.8372073  68.1485176  20.8388805  27.8708553  67.0937252  21.9238973
  18.0208373  74.4250488  50.3786993  18.6291850  74.2034245  49.6736956
  17.2021079  73.9944267  50.1327801  20.0671029  65.7882261  41.1600828
  20.9573150  66.0550356  41.3893604  19.5168805  66.5160179  41.4495802
   8.6414677  34.8224211  75.7952595   9.3197072  34.2108631  75.5085135
   8.6501497  35.5161405  75.1357841  12.8929901  45.6589508  91.6868305
  13.5901439  45.5702925  92.3367119  12.9860508  44.8867655  91.1288834
  26.8484497  54.6996546   5.9626663  25.9795713  54.3782949   5.7218152
  27.2291255  55.0018406   5.1380438  15.2083313  46.1973047  39.6130013
  16.0584199  45.8136368  39.8283625  15.0077116  45.8602285  38.7398648
  21.5570569  34.0460563  41.7296171  20.7218623  34.4591045  41.9488668
  22.1968913  34.4888568  42.2870827  12.0336401  21.1272693  53.9754772
  12.8653085  21.1572599  54.4484043  11.4205301  21.5993023  54.5389605
  19.0043831  61.2805319  32.5268936  18.7646842  62.1955013  32.6738834
  18.1715310  60.8380985  32.3630548  16.1810029  16.4645362  73.4611368
  15.6740606  17.1121025  72.9713392  15.9511387  15.6266868  73.0593872
   2.2343484  51.0063362  50.6255817   1.9692360  51.9022417  50.4174948
   1.7149475  50.4597759  50.0358963   0.7004920  20.7373357  38.4601283
   0.3897134  21.0293674  39.3170786   0.8063232  19.7906077  38.5536027
  12.8750014  52.1547651  56.2919855  13.6231244  52.7263117  56.1191416
  12.1465445  52.5666046  55.8272600   9.2163002  64.7993374  38.9770031
   9.1642040  64.7327471  38.0235457   8.5149950  65.4064035  39.2133760
  25.9817791  40.7499123  22.7271795  26.3905096  39.8959446  22.8682756
  25.3125143  40.8106709  23.4088159  16.0172832  30.7844567  66.4607668
  15.8953702  29.8526478  66.6427088  15.1661897  31.1790013  66.6510439
 117.4013945  56.2575150  51.4922571 118.1823114  56.7382956  51.7665768
 116.8231635  56.2849045  52.2545719 101.8418641  59.8969555  21.3688183
 102.1772750  60.7751703  21.5490174 102.1719940  59.3617439  22.0904803
  12.4747479  22.6478720  57.1048784  12.5414813  23.3720899  57.7272034
  13.1499469  22.0293856  57.3838329  92.6208372  66.4651012  47.3797655
  93.2700629  65.8037424  47.1403074  93.0550761  67.3005009  47.2072077
  16.0475826  74.9281549  32.2430038  16.2252438  75.8661747  32.1738625
  15.0956643  74.8586941  32.1704888  24.1380334  72.2704172  32.6924109
  24.0827060  72.6333857  33.5763931  25.0256634  72.4806213  32.4023056
  20.4831362  47.9006863  63.8741875  20.2817559  47.0189762  63.5607052
  20.7506013  47.7758789  64.7847462 113.9579336  68.2000399  60.6865406
 114.9039052  68.0563164  60.6598425 113.6907630  67.8768730  61.5470123
  37.0780492  59.2164660  32.4484372  37.8703904  58.6857510  32.5306940
  36.7139173  58.9729071  31.5973663  18.1246984  54.8537874  72.3624897
  17.4780011  54.5365572  72.9928684  18.1769884  54.1611481  71.7038870
  10.2263641  72.3614311  58.1848001  10.7600272  73.0610800  58.5615349
  10.5348837  71.5653706  58.6176205  11.8996465  60.7552528  59.8744678
  12.0812213  61.4426422  59.2335606  11.2484562  60.1972580  59.4492340
  21.0521388  43.9982653  36.6728783  21.8513751  43.5167551  36.8864274
  20.9411907  43.8722992  35.7305121  52.6577330  28.9201427  50.0259781
  53.1896782  29.1932273  50.7734299  53.2033873  28.2842302  49.5632553
   8.2580072  52.9139280  61.2616730   7.3204023  53.0846405  61.1722994
   8.3107752  52.1833944  61.8779230 105.2531166  60.7417917  62.6030874
 104.4998784  60.8874083  63.1755066 105.6226750  59.9103594  62.9003811
  34.7987771  25.1002336   2.7004844  34.7773075  24.4055724   3.3586746
  34.8689580  24.6371484   1.8657051  27.7927464 105.3041125  31.8153381
  27.5026959 106.1824233  32.0616579  27.9305714 105.3538824  30.8694220
  59.2881030  68.9985889  91.7008942  60.1440794  68.8505250  92.1029052
  58.9014644  68.1256383  91.6323399  26.0852671   0.0194118  52.6812696
  26.4263201  -0.6100436  52.0458937  25.8846998   0.7985064  52.1625996
  27.5812578  38.4626913  58.2427979  26.9592500  37.8010988  57.9400873
  27.6917076  39.0481615  57.4936247 118.1500793  60.9059095  51.4059305
 117.4721168  60.6457615  50.7822943 118.9394994  61.0054779  50.8738279
  46.5182877  53.2971096  21.3395476  45.8844709  52.8464794  20.7814765
  47.3379564  52.8219700  21.2031054 103.5624702  39.6037269  15.2306831
 103.6700840  40.1054764  16.0387039 102.8427322  39.0008712  15.4171574
  22.7280140  55.4770231  58.5576248  21.9296861  55.1660728  58.9844942
  22.4557161  56.2628317  58.0837154 105.3568275  18.3282518  50.3062677
 105.8867855  19.1182375  50.4125690 105.9934802  17.6336217  50.1377583
  46.1770201  58.4627867  45.8465099  45.7243729  57.7352142  45.4199123
  45.5535889  59.1881180  45.8083534  11.3645351  91.7452908  66.6605330
  11.9964135  92.0787716  67.2975206  11.7328763  91.9844532  65.8100271
  73.1234694  16.3582253  47.5678349  73.4602737  16.1424613  46.6982174
  73.4177923  17.2557771  47.7227688  18.2809424  61.3443565  36.0464859
  17.7292681  61.6886377  35.3440928  17.7897644  60.5997610  36.3936973
  62.5530249  84.7427242  96.3226080  62.9075200  84.0428990  95.7741494
  61.6688616  84.8867601  95.9853527   9.6400177  39.7876501  82.4174213
   9.8114455  40.6973505  82.1739292   9.7827995  39.7619700  83.3635616
  22.1792221  48.5460520  59.4954062  21.2400103  48.5067654  59.6758890
  22.2375631  48.6065722  58.5419035  19.3670487  24.0485024  28.3240128
  18.6569536  23.6577725  28.8332558  19.1246402  23.8873506  27.4121475
  26.9505262  59.3628407  35.1484895  27.0461297  59.0999651  36.0639095
  27.8082871  59.1921616  34.7594523  65.6205320  39.7661471  28.0129647
  65.5941057  40.6874323  28.2713556  64.7153282  39.5556045  27.7838063
 112.7597029  38.9000797  39.5128012 111.9978119  39.3276572  39.9038649
 113.3330066  38.7069964  40.2546072  17.9125619  65.7190943  24.4264269
  18.8326001  65.7702255  24.6855545  17.4269807  65.9264278  25.2248359
  20.3883553  31.4240265  88.0459023  21.1378980  31.0853314  88.5354900
  20.1895952  32.2627544  88.4621429  25.3360891  29.7553277  55.1889420
  24.6389723  30.3916383  55.0296640  26.1374497  30.2065158  54.9234533
  27.8567100  58.9653063  27.1740413  27.9641080  59.0137672  28.1239629
  27.1693802  59.6019745  26.9779229  30.5493593  64.1216278  55.4258585
  30.4627705  63.1817865  55.5853462  30.7060075  64.1913223  54.4841433
   5.5018228  44.5886040  30.4223037   5.1254231  44.4835806  31.2961006
   5.9272581  45.4457331  30.4462099  32.1194601  44.9061871  29.8657084
  31.8122959  44.8441410  28.9612579  31.3198352  44.9914217  30.3849053
  10.1250911  33.5898590  27.4373293  10.4762936  34.4566727  27.2335553
  10.8620870  32.9945946  27.3004770   6.1052191  20.5750704  56.6759062
   6.0058266  20.8767962  57.5788546   5.2415007  20.7037878  56.2839174
  14.1315520  73.3662605  54.1593599  15.0265872  73.3046675  53.8256693
  13.8481843  72.4568987  54.2541933 107.7405949  48.7215900  47.3682547
 106.8498893  49.0599680  47.2767258 107.8799315  48.1974888  46.5794992
  39.3178034  47.4973965  51.7405319  39.0178657  47.4975681  50.8315372
  38.5159087  47.4191618  52.2573280  16.3099468  62.9412794  70.3499365
  16.8141747  62.1286488  70.3096581  15.8935726  62.9223347  71.2116241
  35.6939626  81.1608505  21.0762620  35.9932232  80.2776814  20.8601880
  35.2005649  81.4417934  20.3056383  92.7441055  82.0077985  87.1890190
  93.5523922  82.4942320  87.0269051  92.7410776  81.8565148  88.1341836
   7.5926125  78.8426018  18.7523746   7.0764828  79.5933914  18.4588528
   8.0133516  78.5156107  17.9572105 103.4989531  21.9010043  20.0880766
 103.1909747  21.5415597  19.2561030 103.7722416  22.7937007  19.8767936
  26.6249585  62.4904203  29.1714787  27.5026822  62.1154356  29.2437148
  26.6490078  63.0023623  28.3630419  26.5700793  52.0175695  39.9288702
  27.4072266  51.9735765  40.3909111  26.6775632  51.4287758  39.1818762
   9.4208193  39.0685868  36.3222671  10.1946628  39.4597387  35.9168077
   9.1330647  39.7174406  36.9644642  30.4328752  19.9194837  74.0507984
  30.0535417  20.6003714  74.6064329  30.1128840  19.0988088  74.4254065
 107.7572901  70.1920938  46.1323786 107.8335054  70.7616806  46.8978786
 108.3592231  69.4694996  46.3106155  34.6956229   9.9200290  56.2876225
  34.2324758   9.4250041  55.6118441  35.2419543   9.2696160  56.7288923
  13.9787197  51.9426966  46.5159464  14.3722272  51.1927032  46.0699701
  14.1227531  51.7706299  47.4464703  21.6647363  49.4040728  36.5203881
  21.6760588  48.4694386  36.7266822  21.8909478  49.4470406  35.5912948
  35.6742620  35.7980990  47.3232031  36.1850095  36.4541721  46.8489313
  35.7880211  36.0269380  48.2456589  22.8466225  56.6610909  44.9473572
  22.4865103  57.3099661  44.3427849  22.0985198  56.3867807  45.4777622
  18.0395341  40.9388685  56.6802645  18.6540079  41.6602802  56.8152428
  17.1755612  41.3482904  56.7266798  47.5608635  45.2205706  28.0647182
  47.1120596  45.3550863  27.2300267  48.2912064  44.6391916  27.8529954
  54.4033623  18.6768079  12.0469451  54.1369009  19.4638312  12.5221539
  53.6471176  18.0931151  12.1071470  27.6506925  57.0384598  45.5577660
  26.8191457  57.3482227  45.9166670  28.3162403  57.5424719  46.0260057
  26.5259576  56.7070675  27.4986458  26.9964385  57.3988390  27.0335269
  26.8510675  55.8942556  27.1115160 112.9195250  24.9205017  77.9949856
 112.4856110  24.2378473  78.5067844 113.2022579  24.4770288  77.1952200
  38.7218595  46.9689083  17.3320615  39.5447564  47.4192095  17.1415389
  38.0851221  47.6736593  17.4509001  25.3079867  50.9144449  21.1146307
  25.9657240  50.8871460  20.4197454  25.7023311  50.4257011  21.8370247
   7.0987099  41.7131329  33.0051947   7.7081078  41.8740416  32.2847962
   7.0112193  40.7604599  33.0366349   4.3509918  33.6840725  53.0245018
   5.1406795  33.1455708  53.0759048   4.4023755  34.1031647  52.1654606
  12.0995569  48.6172390  43.8391209  11.8005288  48.8791561  42.9683685
  11.3582015  48.1417227  44.2139673   6.3235825  85.1576805  61.6008043
   5.5541217  85.3627872  61.0696793   6.0462368  85.3296280  62.5006628
  20.6895900  28.4498477  76.3615942  21.1975026  28.2699919  75.5704498
  20.3272009  27.6000023  76.6119289  20.2509689  78.6780834  46.1805677
  19.4683039  78.2482910  46.5254593  20.9219956  78.5229826  46.8453217
  19.3024504  38.6503935  18.5252059  19.8652947  38.3947539  17.7943945
  18.4226787  38.3899307  18.2524550  21.3171744  37.9688287  16.5897107
  20.6226516  37.3645568  16.3275588  22.0912194  37.4148297  16.6905546
   9.8905414  33.5631943  49.7476864  10.7020104  33.5437512  50.2550077
  10.1526034  33.2969427  48.8664007  23.1182432  38.1412983  45.5399847
  22.6764560  38.7006354  46.1788893  22.5659943  37.3616338  45.4818535
  19.4239020  48.9795923  53.9969349  19.3660867  49.6519375  53.3180809
  19.5831943  48.1671810  53.5164738  12.6301688   9.7031592  96.4861382
  12.5164669  10.5981158  96.1662103  13.4734791   9.4260882  96.1279560
  49.5987225  23.1230807   9.8762226  50.3874063  22.9665494  10.3955567
  48.9306021  23.3579302  10.5201912 111.0827441  46.3278866  57.4059391
 110.1823468  46.5157700  57.1409559 111.6218556  46.7340851  56.7272711
  11.7102730  50.4396677  48.7914085  11.3961065  50.8685303  47.9954100
  12.6642954  50.4767990  48.7228918  41.1076880  48.0926132  67.4931622
  40.3149033  48.1872749  66.9651842  41.1980200  47.1484995  67.6224852
  22.6657081  63.8299990  37.4505472  22.1087337  64.3257284  36.8503261
  22.2376251  63.9177036  38.3021832  21.3604093  43.0685520   4.0665483
  20.5645943  43.4151030   4.4700518  21.3507366  42.1356297   4.2805377
  12.0515895   6.1797279  56.9554996  12.1392858   6.4993244  56.0575056
  12.9267967   6.2767047  57.3307896  37.7711201  47.5761700  32.0534754
  37.5334644  48.5010052  32.1200752  38.3275318  47.5272369  31.2761426
   9.2558384  65.5293894  27.2395039   9.6761698  65.7309389  26.4034820
   8.8769102  64.6594667  27.1134925  22.0948219  41.2783003  42.7241516
  22.2872281  40.3746510  42.4738979  21.3437891  41.2088776  43.3135271
  24.7036839  60.0464058  52.0273781  25.5127048  59.5780468  51.8215656
  24.5507193  60.6061888  51.2661409  31.3243294  61.4648819  25.3972077
  31.2010884  62.1414948  26.0629702  31.4295149  60.6545973  25.8958077
  55.5645132  29.4477677  44.8823309  55.8282614  30.1658511  44.3069792
  56.1814785  29.4874001  45.6130934 117.6312992 105.1037216  42.3283863
 118.1178262 104.3009281  42.5156021 116.7885850 104.7999096  41.9910908
  13.7215018  24.2556453  49.2445278  14.2324209  23.4743309  49.0330029
  12.9428101  24.1895080  48.6918116 113.4561871  76.5838432  41.6193676
 113.4376188  75.6350660  41.4940262 113.0273159  76.7223120  42.4638367
   5.8415002  28.0510521  40.8688831   5.0378156  28.5438681  40.7031870
   6.0146058  28.1816220  41.8012047  54.6341228  35.0844336  25.2156329
  54.7642660  34.8056674  24.3092203  54.4685507  34.2723608  25.6945467
  29.9303508  61.9164371  75.8920288  30.4866576  62.1875525  76.6222715
  30.5388498  61.7762709  75.1665545  20.4740977  57.2942400   7.4402535
  20.0477505  56.4807320   7.7098137  21.4015031  57.1530819   7.6305830
  26.2250447  58.6001444  16.1087930  26.2286711  58.4217691  15.1683664
  25.6875753  57.9020166  16.4829230  26.6604328  25.6592369  45.1005983
  26.0121441  25.1757050  44.5885944  27.2834373  24.9923563  45.3893328
  15.4831624  49.2699099  75.8659601  16.3387060  49.6982431  75.8375645
  15.3047025  49.1529894  76.7990828  38.0917573  37.2236776  42.0583439
  38.6390972  37.8137040  42.5765276  37.4921846  37.8036237  41.5888691
   3.0535510  54.9914789  42.0915318   2.8985885  54.8801327  43.0295181
   3.3779010  55.8880854  42.0071316  16.4178419  84.1508198  74.5588732
  16.2113941  84.0035152  73.6358833  17.0317078  83.4509850  74.7816467
 115.4650520  28.0853462  59.9588299 115.3489800  28.5905457  60.7635260
 115.0838379  28.6347938  59.2739868   4.5833021  65.8535957  36.9504333
   3.8898528  66.2354326  36.4123249   4.2084730  65.8123159  37.8302217
  12.2352254  47.6453972  32.1504068  11.9844234  48.2872200  31.4860320
  13.1675267  47.4928713  31.9961905  51.9949532  27.5573206  42.2675562
  52.5011969  27.6642323  43.0728626  52.0844889  28.3961344  41.8152189
 110.2452017  72.4367571  69.9630594 110.6284363  71.5885067  69.7398138
 110.8260943  73.0774498  69.5528078  13.6754644  25.2490807  45.3002357
  12.7510989  25.0249195  45.1928616  14.1137850  24.4066930  45.4206038
 105.1587863  62.9498863  52.9136610 105.2752705  62.7413464  53.8405800
 105.4892678  63.8439322  52.8259420  21.5952730  46.4777374  37.4061489
  21.2904668  45.6106091  37.1389198  21.4451575  46.5036678  38.3511496
   2.9574385  58.3073235  48.7380981   3.2813275  59.0568590  49.2376184
   2.7056992  57.6668406  49.4034100 101.1726971  66.4089775  55.9751034
 101.1710675  65.5911016  55.4778004 100.9560485  67.0820332  55.3298950
  47.0994711  49.0982628  71.4599037  46.9904470  48.7492752  72.3445225
  47.9269123  49.5784044  71.4921331  25.9290171  38.8210917  45.3574467
  26.6308212  38.2629466  45.6923771  25.1341271  38.2997823  45.4697990
  39.0614605  85.6964970  62.3153877  38.4648538  85.0293541  62.6548100
  38.9318252  86.4494419  62.8920174  32.6541638  27.2794008  45.8422709
  33.3306336  27.0640898  45.2001905  32.9731965  28.0747390  46.2687492
   2.1090606  88.4486389  46.5467310   1.3379125  88.6574459  46.0195065
   2.3531200  89.2798805  46.9538069 116.5026590  73.9763212  32.6449180
 115.8345117  74.4318771  32.1327853 116.3223515  74.2271280  33.5509086
  23.4734774  33.8262248  58.1189394  22.6489139  33.3963418  58.3459330
  24.1184998  33.1190205  58.1127071  32.3285031  58.9705944  35.0800872
  31.8813825  59.4765472  35.7585621  31.6210890  58.5716009  34.5735312
   4.3253902  29.9973369  72.1857548   5.1548868  30.4745460  72.1648121
   3.6582142  30.6708026  72.0532799  16.2999272  81.4879513  81.6516209
  15.4191506  81.4885712  81.2768364  16.4428020  80.5821419  81.9260693
  40.3152418  58.8840008  12.1978164  41.2227297  58.8466024  12.4999702
  39.7959495  58.6655331  12.9716647  41.3193560  76.8974924  22.4387813
  41.7008305  76.0517216  22.2034502  41.8260431  77.5365305  21.9376493
  14.0611303  25.4050016  10.7769060  13.3879483  25.8445430  10.2574241
  14.8587716  25.9068847  10.6092417 112.1588202  63.8477659  50.3537083
 111.9770731  63.4120607  51.1863899 113.0581917  63.5966110  50.1432657
  27.1138644  17.2896326  50.0138617  26.1868119  17.2528601  50.2493477
  27.4374294  16.4034367  50.1757050  70.5605013  98.2350065   4.8592159
  69.6310622  98.4582521   4.9095509  70.6477029  97.7570678   4.0344784
  99.9896438  79.7513628  58.2500124 100.2394481  80.6010818  57.8869677
  99.8329587  79.9242496  59.1783428  51.6863632  25.0725842  12.0326316
  52.3177862  24.3534064  12.0146823  51.8529034  25.5577564  11.2244844
  43.7955475  41.0250950  56.0634279  43.2692862  41.7520475  55.7305336
  43.7491703  40.3611279  55.3755140  13.8425660  67.5187254  39.2409992
  14.1084313  67.4680471  40.1591396  12.9817212  67.9366541  39.2636395
  21.7495561  59.8338699  43.0574894  21.8513489  60.5232573  43.7137032
  21.0805583  59.2538834  43.4212017  28.4048510  33.6273456  32.8635621
  27.6521635  33.5473847  32.2776437  28.7464786  32.7362561  32.9375887
  47.7643442  57.8157377  42.9438829  47.3503017  56.9795799  43.1575298
  48.3304644  58.0010414  43.6931467 106.4671679  72.2115088  37.7101159
 106.0048766  71.5726185  37.1675920 107.0848806  71.6890144  38.2216454
  11.6658366  74.5220041  48.4084845  12.2127986  75.2884769  48.2364893
  11.3069022  74.6751595  49.2825174  11.6274178  60.6155348  86.0551167
  11.3544965  59.7252464  86.2767982  12.1927524  60.8804035  86.7807007
  10.7374418  60.4113150  62.3888969  11.2329042  59.5925903  62.4098110
  10.9881580  60.8219242  61.5613842 104.5860703  83.7270927  46.6971445
 104.8921485  82.8345108  46.5363598 105.3011949  84.1423225  47.1792316
  91.5269184  79.2864466  78.3029509  91.8914509  78.4542608  78.6043167
  92.2459316  79.9111795  78.3976221  32.0854855  74.8132229  56.8833923
  32.1386409  74.6886158  55.9358263  32.9839468  75.0077248  57.1501637
  50.4432392 101.2989998  62.5112200  50.7254505 102.2135925  62.5004053
  51.0268021 100.8609390  61.8917131 112.5357468  75.4029369  51.2867928
 112.4502386  75.6282949  52.2131491 111.6885580  75.6328630  50.9051704
  42.8067732  72.8019238  61.3919640  43.7191582  72.8590250  61.6757298
  42.5624514  73.7046480  61.1879444  43.2176542  98.1534100  75.4947996
  44.0320873  97.9992199  75.0161028  42.7305126  98.7686825  74.9467421
  54.3782616  94.1384125  56.3502312  54.6796274  95.0261974  56.1572313
  54.9990988  93.8109016  57.0010233  76.7008359   9.2578941  64.0049314
  77.4008471   8.8534503  64.5174217  76.6924555  10.1715903  64.2900848
  55.5266476 105.2048969  54.2860603  54.6282482 105.5199528  54.3852949
  56.0407686 105.7579708  54.8742914  23.5470676 100.7379818  32.8767776
  22.8689504 101.2272644  32.4109602  23.2831907  99.8218918  32.7908397
  43.0255842  97.5699139  37.8840733  43.2651520  97.9681587  37.0472717
  43.5300493  96.7570496  37.9156089  47.6123619  85.3388596  48.4088135
  47.4593973  85.8044147  49.2310619  46.9039154  84.6968937  48.3616734
  31.9798493  74.5038176  62.3989439  32.3093915  75.1550007  61.7795944
  31.0950470  74.3069744  62.0913649  13.3974624  75.3570175  55.8628464
  14.1305065  75.6051588  56.4261436  13.7150085  74.5950603  55.3782654
  29.9010062 105.6992149  76.0381937  30.7183838 105.7669258  75.5446911
  29.9031925 106.4657021  76.6115379  87.6023674  90.0839043  65.2037001
  88.2721329  89.4491863  64.9491930  87.7777863  90.8495522  64.6566629
   7.5465602  95.6842136  29.1543102   6.9846684  95.6330013  29.9275422
   8.3761179  95.2978802  29.4350529  72.8039700  11.8495708  72.4496460
  73.4888727  12.3036819  71.9588089  72.6943166  11.0158401  71.9923639
  37.1913981  82.4573898  72.2426176  37.5360918  82.6163101  73.1213427
  37.6685905  81.6872120  71.9338179  48.1395864  88.3709621  42.0828962
  48.5933018  88.0546188  41.3016748  47.3346233  88.7666225  41.7486382
  57.7211094  72.2471428  68.2009649  58.2997465  71.6038227  67.7916384
  57.7926731  73.0222893  67.6439619  45.2955294  93.0928516  72.7838469
  44.6570492  93.7641525  72.5431538  45.4883957  93.2652092  73.7054348
  63.9271832  80.8545780  56.0459661  64.7214937  80.3205204  56.0370588
  64.1083336  81.5635872  55.4289293   0.6816231  42.6946120  21.8718910
   0.3538357  42.3885017  22.7175188   1.3579690  43.3343177  22.0945144
  40.4157925  96.5556622  36.1361122  40.3825521  96.2904453  35.2169919
  41.2092400  97.0868111  36.2035894  89.9610901 108.9759922  88.3966160
  90.0171471 109.8553562  88.7705231  90.1494694 108.3911705  89.1305923
  97.6978571  13.1918578  53.2107162  98.6312181  13.2506709  53.4147024
  97.4376852  14.0925365  53.0175447  58.7266541  86.8284702  66.6547394
  59.2462254  86.0245514  66.6540909  59.2739344  87.4669838  67.1119165
  72.0256788   8.7783294  43.4278679  71.4195282   8.9353232  44.1518593
  72.5708515   9.5645099  43.3971691  28.8708329  96.1439228  22.2918916
  29.6727443  96.6012192  22.0388174  28.6610961  96.4903545  23.1592011
   2.8747498   2.4377875  51.0862446   2.6262795   3.3617835  51.1130142
   2.1529709   1.9829993  51.5203285  37.8934503  94.3825150  30.4973054
  37.6997805  95.1634312  31.0158587  37.0361829  93.9984798  30.3133535
  22.7137637 110.9273338  32.1192789  23.3636165 111.4884567  31.6961241
  23.2017922 110.1432514  32.3708200  49.6533585 101.7712498  33.6196136
  49.6161461 102.0392227  34.5377851  49.3575954 102.5408459  33.1333232
  53.6099011  13.6040359  65.6655169  53.7864668  14.3757491  65.1274538
  52.9542226  13.1122451  65.1710892  90.1189596  17.8864150  29.9396896
  89.9128134  17.6184325  29.0441918  89.4596750  18.5478931  30.1495218
  67.9264212  78.2632828  49.0203047  68.3698320  77.6109600  48.4779930
  66.9944382  78.1120443  48.8629484  65.3233624 103.7288284  65.3250265
  64.4742870 103.6969280  64.8842430  65.1335144 103.4778500  66.2290144
  43.8726044  87.9825592  84.1449642  44.6513844  87.6002502  83.7405109
  43.1515980  87.7177811  83.5737610  65.1551342 103.5915470  40.2713299
  65.1299477 104.5329857  40.4425192  64.5407867 103.2168198  40.9025049
  44.6458244  79.6349144  55.8371067  44.2199183  80.4017067  55.4538727
  45.4138899  79.9872589  56.2867260  92.7589035  91.0899734  70.5002069
  92.3252583  91.9399452  70.5759287  92.2273254  90.6052971  69.8687506
  61.2805271 102.8487301  29.6126986  60.9836578 103.5982513  29.0966415
  60.8242512 102.0990467  29.2305803  56.1129457   1.0329394  20.2226329
  55.7511622   1.8126445  19.8014462  55.5404717   0.3201156  19.9390996
  39.6883440 102.9250431  33.2119203  38.9728856 102.4869156  32.7510595
  39.4350910 103.8480377  33.2250667  78.6044645 109.5309258  30.7195210
  78.1793737 109.5876598  31.5752745  78.2594967 110.2781200  30.2307177
  92.4272186   0.9059959  29.3326735  92.6259023   0.8643108  30.2680969
  92.8086502   1.7349296  29.0435171  87.2558004  26.6328197  63.6089849
  86.6835624  26.0034518  63.1700420  87.3149854  27.3684268  62.9993916
  83.9829046   8.7704806  63.8115931  84.1848070   9.2030864  64.6412468
  83.0293447   8.8175540  63.7427664  79.7921610 105.3812981  18.2629204
  80.4593468 105.8933544  17.8058696  80.2886391 104.7363663  18.7667120
  83.3424122  19.6868377  31.4935446  83.7092048  19.9895530  30.6628442
  82.5242168  19.2536311  31.2504005  48.9063168  90.0422478  47.7072430
  48.7005281  90.2954197  48.6071253  49.5455837  90.6923294  47.4157667
  75.0425536  28.9237075  33.9329672  75.4044205  28.0898051  33.6331248
  75.2927572  28.9755206  34.8554349  55.4364204  98.8885880  42.1317816
  56.0218906  99.5489311  42.5024796  54.5866013  99.3256569  42.0769358
  90.7653332  74.9527979  51.1743593  90.2452564  75.5629730  50.6514406
  91.5869045  74.8634100  50.6913805  35.0201702  98.9434528  32.0522809
  34.5841551  98.1108761  31.8708158  34.5455122  99.3041706  32.8011584
  71.0421419  71.0198164  50.1090956  70.1361847  71.3211679  50.0408316
  71.3661337  71.4162731  50.9178495  54.6944332 110.2395344  84.6934223
  53.9225006 109.7692966  84.3784332  55.1287508 110.5470657  83.8977909
  51.8483686 108.4425926  68.4446716  51.4418173 108.5969353  69.2973900
  52.0845795 109.3153477  68.1304598  59.7813702  81.1355782  56.2918568
  60.4518604  80.5547047  55.9323168  59.8256254  81.9198799  55.7449198
  38.7866783 104.2753696  35.9206533  38.7781405 103.4568214  35.4245257
  37.9840374 104.2481422  36.4414787  38.5336375 100.7828331  45.3967142
  38.7870479 100.0036335  45.8915377  39.2564821 100.9238625  44.7852898
  55.2608728 103.4799480  17.9834747  56.1890554 103.2826614  17.8578258
  55.2496862 104.3772411  18.3166027  82.3181152  97.3964882   9.9307114
  83.1856155  96.9954967   9.8770249  81.7919922  96.9155312   9.2918849
  77.2811794  74.1046953  20.9992123  77.8473425  73.4056473  20.6720638
  77.8579283  74.8650074  21.0734868  62.1710587 102.5183105  72.0684195
  61.8893957 103.0610752  72.8048277  62.2764063 101.6434288  72.4422169
  44.2078447  89.3418789  14.3909609  43.8661432  90.0211048  13.8094771
  43.5021734  89.1868687  15.0188410  76.6856295  15.8836036  60.2113152
  76.5367467  16.8240886  60.1136065  75.8081848  15.5010848  60.2127981
  56.0107946 104.9954796  24.0901637  55.8892775 105.8221340  23.6231470
  56.1097193 104.3416882  23.3980632  65.7225513  61.9982243  30.6373239
  65.2747202  62.3576355  31.4031601  65.2044439  62.3024940  29.8921967
  56.2538624 111.1156368  32.2998691  56.4138317 110.2184486  32.5926137
  56.2329292 111.6306210  33.1064582  53.5692930  93.4847450  33.8592601
  52.8743839  94.1410351  33.8081408  53.7946796  93.4464645  34.7887588
  95.1107597 100.1696587  71.9447231  95.3269672 100.7353020  71.2034178
  95.6358910  99.3815136  71.8057632  53.3934641 101.4453316  44.9537992
  52.8904438 101.2414742  45.7422447  53.8041687 102.2889423  45.1431751
  62.4782944  91.1368942  33.3926129  61.9081688  91.6500568  32.8200245
  62.1336889  91.2891197  34.2725587  84.2301208   6.0802226  59.6001291
  84.5134861   6.9938140  59.6359777  85.0050241   5.6004005  59.3076563
 101.3600761  30.0146442  36.4853549 100.6745178  30.0039439  37.1532869
 101.6886837  29.1158443  36.4649940  46.5596390  76.5801573  55.8830166
  46.3553619  77.2464800  55.2268791  46.4939737  77.0400715  56.7199183
  44.7877121  86.6427898  40.4711676  44.4910479  87.4489307  40.0488329
  44.7623682  86.8396473  41.4075613  85.6342220  81.8060207  25.1196671
  85.7736397  81.4859295  26.0109234  85.6813526  82.7589035  25.1972818
  59.5769596  99.0144825  59.4464779  59.4914007  98.0715179  59.5869732
  60.0920010  99.0912151  58.6433077 115.8896190   2.3616080  25.4429102
 116.1661798   3.0711608  24.8630142 116.2316257   1.5683036  25.0306869
  49.2688894 104.8101807  35.0157595  48.5896969 105.3092003  35.4695320
  48.9079809 104.6529293  34.1432643 103.1824857   3.3310561  43.5163927
 102.5462991   4.0206008  43.3266163 103.4566719   3.0146365  42.6556206
  76.2845087  91.6983986  51.8653917  76.9672680  91.8820572  52.5106335
  76.2828779  92.4658680  51.2933588  21.3033139   7.2108131  29.1510677
  21.7641961   7.4577384  29.9528432  21.4934765   6.2789588  29.0428090
  61.6997147  87.7364445  77.6881313  61.5202951  88.3733368  76.9964552
  61.0804653  87.0249748  77.5251007  70.4393918   2.2170596  37.8195810
  70.2783996   2.9062324  38.4640622  70.6238014   1.4375072  38.3435297
  75.2531481  86.0121632  29.1930771  75.8081293  86.5075970  28.5907674
  75.5473995  86.2786770  30.0640655  86.3136989   7.6265674  42.0401812
  86.8104822   7.0155578  42.5843334  86.1663563   7.1529155  41.2215376
  59.9688578 100.5440998  48.7653685  59.4430733  99.9813557  48.1969404
  60.2213383  99.9784660  49.4951248  78.6111576  -0.2599187  57.2844601
  78.0748636   0.2293258  57.9083633  78.7776620   0.3597694  56.5741825
  48.8736677 111.0028934  75.1657915  48.6045122 111.8871403  75.4145718
  48.6535835 110.9380817  74.2364931  98.8430119  91.0830021  47.1080399
  99.4468403  90.4896164  46.6613626  98.5735607  91.7043591  46.4316225
  57.5208616 108.1750202  53.7724257  56.6901064 108.2027149  54.2470932
  57.9643679 107.3972797  54.1110182  31.0110188  96.3119698  78.9693403
  31.3135076  95.5646992  79.4854069  30.0593591  96.3043785  79.0719175
  34.3847942  60.3339338  16.0272563  35.1236486  60.4728794  15.4347873
  34.1185284  61.2153482  16.2888682  20.9077692  62.0380640  35.6521273
  20.9400272  62.5253010  34.8288465  20.0357461  61.6434860  35.6629109
 102.4773103  21.6710525  45.2906084 101.5877134  21.4428001  45.5603218
 102.5109274  22.6252132  45.3589630  97.2374756   5.2697616  32.6798081
  97.8855211   4.9748378  32.0400500  96.6938764   5.8943610  32.1995902
  57.4130344  75.5022001  60.7482100  58.3701992  75.4952812  60.7527399
  57.1660614  74.5978832  60.9417248  63.0605507  90.9925365  21.5262222
  63.8820076  91.4839077  21.5271854  62.9502296  90.7121754  20.6176782
  53.8856411 105.6499958  43.0215406  53.2646513 105.5141068  43.7371778
  53.3383846 105.8739948  42.2688341  73.5707045  97.4810410  40.6362057
  73.9536142  97.4001408  41.5097427  73.3737803  96.5809822  40.3767157
  36.9554472  96.3065434  32.1668577  36.9727445  97.1374130  31.6919017
  36.0478139  96.0103321  32.0983267  61.1618471  88.3631325  67.6643276
  61.3770294  88.2096767  66.7443371  61.6382694  89.1615772  67.8917789
  63.5966778  88.8672829  61.7225933  63.8223791  88.0144405  61.3511992
  63.5310125  88.7086487  62.6642704  95.2100975   4.3087440  24.7485280
  94.8209316   4.3891292  23.8777113  94.7940380   3.5338359  25.1262021
  52.8020144  64.3511438  71.2357187  52.7893829  64.1932011  72.1797132
  52.0462894  63.8677692  70.9018660  74.5012045  92.3567104  41.5485191
  75.2040052  92.2218037  42.1842098  73.6999273  92.3489666  42.0720863
  55.5772400 110.2845955  38.1362748  55.0636721 109.5407581  38.4512019
  55.3589344 110.3499222  37.2065926  74.4639618   8.1104236  12.5110853
  74.2112762   7.5089889  11.8106127  75.3130538   7.7857547  12.8108537
  45.3054476 110.1541996  77.3586035  46.2355137 110.0740051  77.1470070
  45.2686024 110.0714207  78.3115053  44.8078728  84.2480373  70.7141113
  44.5013571  83.3664799  70.9265900  44.0323687  84.6964455  70.3768396
  50.3740501 101.5201092  47.3945427  51.3282442 101.5956974  47.3894358
  50.0984192 101.9105530  46.5651989  10.9725796   3.4169059  59.4349813
  11.7355477   3.8960796  59.7582436  11.0683190   3.4284835  58.4826517
  98.0590421   4.6249347  29.6886659  98.9871055   4.7068648  29.4690776
  97.6516515   5.3988700  29.2996979  22.0136499  99.9913120  11.9102609
  21.9316220  99.4578457  11.1197472  22.8447294 100.4537201  11.8019903
  67.7609498   4.6250301   7.6788676  67.2754580   5.1199966   7.0189160
  67.6423699   3.7092929   7.4266845  48.2351923  85.8536911  66.6774893
  48.1256104  86.7841244  66.4812231  48.5934353  85.8366966  67.5649643
  56.0983801  90.1040649  70.3543901  56.0602522  89.2314148  69.9629211
  55.4339504  90.0868225  71.0432053  69.8965502  72.0650530  62.8045416
  69.9700737  71.2665462  63.3272457  69.7391748  72.7576971  63.4461880
  96.0926944   4.7598605  53.0048466  97.0020754   5.0273471  53.1379223
  95.5830223   5.3707461  53.5370922  22.8098106  99.1749668  16.6256142
  22.5156045  99.2856598  15.7215011  22.6863265  98.2429123  16.8052566
  47.2641420  93.0961037  50.9334707  46.8863010  93.6043644  50.2157354
  46.5561867  92.5168228  51.2153673  96.1763412  16.1379390  64.8089170
  96.6637165  15.7261901  64.0953684  95.2572090  16.0319572  64.5635748
  46.9035625 103.6887646  38.1966424  46.7676687 104.4071198  37.5788021
  46.3886833 103.9335346  38.9655495  65.6175041  94.2436314  66.9280386
  66.2923145  93.5986233  67.1397781  64.9403572  94.1082191  67.5908852
  63.0710936 100.7013416  51.2911224  63.5079861 100.7591057  50.4414034
  63.6971998 100.2431107  51.8516970  91.8620903  15.4107432  52.3366690
  91.2886268  14.9100547  51.7564249  91.6872818  16.3254314  52.1152735
  84.7992611  89.6445370  49.9693060  85.2707767  90.3914165  50.3381872
  85.4658604  88.9644241  49.8727608  98.0288393  23.5980754  47.8591108
  97.4202377  24.2145972  48.2662106  97.6560861  22.7360683  48.0441523
  75.0233889 110.8786488  23.6042404  75.3412437 110.2852154  22.9237628
  75.1691198 111.7541313  23.2457376  14.5080149 111.1366177  44.0572882
  14.0116823 110.5543709  44.6325064  14.2086959 110.9145069  43.1756353
  66.9295216  97.9971313  24.3991661  67.5551271  97.2861385  24.5382190
  66.2126303  97.8071404  25.0043130   7.3742759  68.7189722  17.4384367
   8.1849259  68.2556725  17.6492202   6.7652601  68.4634161  18.1312740
  36.3619685 108.6326885  45.7673883  35.5089664 108.5869789  45.3354979
  36.7502832 107.7698612  45.6226015  73.2675266 110.0045872  33.8852501
  73.9293051 110.1026058  34.5698452  73.6356306 109.3536663  33.2877278
  81.9382381 106.9295692  66.7756271  82.4481010 107.6573658  66.4198303
  81.0486889 107.2747993  66.8514347  81.1260206   1.5418487  36.7906952
  81.7622978   1.2591128  37.4475384  80.2760917   1.3109260  37.1655774
  78.8746405 108.6679935  73.9536333  78.7144709 107.8768539  74.4681072
  78.0121660 108.9157486  73.6204910  63.1326580  82.2553539  44.7266293
  63.1693172  82.4161625  43.7837458  64.0289593  82.0176888  44.9640942
  84.7713089  90.6622124  70.7434034  84.2401028  90.2785587  70.0456476
  84.3903828  90.3179646  71.5512514  72.4540186  69.0732193  68.3285952
  71.7387486  69.1144371  68.9633560  72.2277641  68.3369732  67.7602768
  40.7982349  91.0765076  30.9917641  41.4298105  91.1353016  30.2749062
  40.5093145  90.1640034  30.9821892  33.3874249 101.5555668  59.5542526
  33.0002117 100.9889889  60.2215528  34.0034008 100.9902763  59.0881538
  93.7680608  11.9190936  60.4606152  93.6991770  10.9938388  60.6959963
  93.6211330  12.3869376  61.2826633 109.2588789   0.9851222  54.9498224
 108.4230549   0.7953410  54.5236635 109.2365915   1.9283157  55.1114607
  81.8080139 100.0211430  80.4450226  81.1222267 100.0427055  79.7775888
  81.3576221  99.7422981  81.2422848  63.4556246  73.7707043  57.4242306
  62.5679255  73.6152792  57.7468300  63.9775038  73.0675697  57.8108549
 103.5028106   8.0067210  54.5200443 102.9555685   7.2322230  54.6500969
 102.8914530   8.7419753  54.5633268  55.5673695  88.9238548  85.0468826
  56.4972401  89.0126419  84.8378658  55.3639317  88.0094242  84.8502541
  60.6544590  86.5062904  71.8366194  60.4333401  85.7743454  71.2607718
  60.5977821  87.2789192  71.2744331  47.1904230 106.2706947  36.4820719
  47.0484304 107.1637440  36.7959952  46.5264988 106.1468506  35.8037686
  70.4058790  86.1356068  24.5526671  70.1929379  85.5549240  25.2832103
  71.1934471  85.7539177  24.1650128  48.1138849  88.3135891  83.6869335
  47.8582525  88.4984493  84.5906544  47.8591824  89.0978241  83.2007885
  45.5748320  89.1626740  53.7652826  45.2821016  88.2624340  53.6234474
  44.8627329  89.5713711  54.2573261  79.3573904  76.5357113  28.9382315
  78.9675570  76.1109877  28.1741166  79.9049139  75.8584261  29.3353939
  74.4387627 100.9429932  47.0604658  74.6732807 101.5779781  46.3836956
  74.5629835 101.4141655  47.8843546  48.1064796  99.1163063  49.6533203
  47.4160290  98.8735676  50.2702427  48.5941505  98.3054924  49.5084620
  55.0403833 102.3832798  65.0183725  54.4531012 102.0229149  65.6828022
  54.8916721 103.3281708  65.0543547  35.8558226 110.5503464  27.7955222
  36.6265416 111.0760117  28.0097818  35.1136756 111.0980225  28.0514598
  37.7775121 109.5629311  67.4076223  38.3333850 109.7611904  68.1612349
  37.3784733 110.4018784  67.1770382  87.9440290   6.3211112  37.7269411
  88.5258562   5.5922561  37.9425406  87.8363401   6.2687736  36.7772603
  85.9477901 103.8582134  21.7596889  86.7152214 103.5589981  22.2472858
  85.7978344 103.1750011  21.1062551  95.0288040   8.0355220  45.2431965
  95.2312261   8.0644279  46.1783028  95.3651315   8.8632255  44.8996401
  66.5179682  84.1813946  40.0075483  66.9010067  84.7928047  40.6365871
  66.8263960  84.4898129  39.1555023  74.1420633  12.6656203  63.0536890
  74.6627671  13.4650855  62.9764938  74.3112356  12.3545318  63.9429808
  19.2638981  87.8801727  46.4648771  19.7301316  87.9277802  47.2994995
  18.5604298  88.5241508  46.5464258  65.9731776   6.8052726  57.4255562
  65.7821328   7.5834708  57.9491472  66.0934431   6.1071067  58.0692434
  66.2225819 101.6890335  23.3783650  66.4673901 102.0220280  22.5149894
  65.2809238 101.5292549  23.3152771  36.3359332  71.6701698  67.2988701
  35.4706359  71.7485380  66.8971872  36.8007302  72.4599743  67.0224571
 102.7000141 100.3160572  76.9207430 103.0556870 101.1410332  76.5903807
 102.5815582 100.4648876  77.8588486  97.0679600  10.5766826  54.5092916
  97.4953157  11.4007621  54.2758608  97.6577884   9.8990302  54.1789579
  60.0940132 108.0156612  45.1507807  59.5260668 108.7714386  45.3006983
  60.1473618 107.9414177  44.1979551  96.8061954  14.6063762  57.3092365
  96.1042244  14.4074874  56.6896296  96.7114240  13.9483028  57.9978514
 116.8920786   2.8361755  44.7240877 117.6239998   3.2528453  44.2692089
 117.1231682   2.8922324  45.6512785   6.8556344   6.9914107  39.5469832
   5.9802567   6.6782527  39.3191957   6.9369160   7.8286128  39.0901303
  88.6626941  22.0229201  16.0572731  88.2112486  22.8669028  16.0676301
  89.1713363  22.0133929  16.8680906 102.3104555   4.8978858  54.0565491
 101.7963011   5.5663447  54.5093632 102.8685266   4.5227199  54.7377491
  92.6030540  85.1903915  61.7388296  92.2843456  85.8920479  62.3065805
  92.6832771  85.5979061  60.8764315   3.5369526  52.8062492  10.7347202
   3.9098774  52.9454856   9.8642230   3.3440148  51.8692069  10.7655525
  84.3851757 101.5033245  38.6273623  85.2404881 101.8988800  38.7953162
  83.8113976 101.8814850  39.2936945  59.8089552  92.6484108  50.7241535
  60.7395792  92.7825928  50.9035015  59.4906187  93.5095596  50.4533815
  71.3432700   9.1093783  50.1125717  72.2034246   8.7045722  50.2243233
  70.7340056   8.4935527  50.5197287  49.1318941 110.7043457  68.1928968
  49.3922281 111.6121769  68.3487606  49.3550158 110.2484894  69.0044689
 109.0218765  13.6981635  87.7153397 109.1264278  12.8560405  88.1582165
 109.8082763  13.7846713  87.1765327 108.2152063  26.8558650  60.1470327
 107.9267341  27.7470737  59.9501562 108.8640959  26.9623141  60.8426189
  85.0131035 110.3987026  38.1069660  85.4798698 109.8355675  38.7244153
  84.9825001 111.2528896  38.5378432  23.5307633  22.4254947  27.1222782
  22.7793538  22.1830230  27.6634049  23.9460598  21.5917640  26.9017005
  61.1901236 106.4013004  21.5381598  60.6438494 106.7110252  22.2605777
  61.2579870 105.4566765  21.6771126 100.0889189  14.6120219  53.7590313
 100.9543926  14.3502956  54.0731764 100.1718313  15.5489402  53.5814142
  54.3907482  19.5054965  43.2498932  55.1566190  19.8993831  43.6676598
  54.5540113  18.5631900  43.2902575 108.1619674  11.8323093  82.3166847
 108.2457096  12.5097804  82.9876900 107.2367937  11.5876536  82.3374939
   5.9945523  42.9703956  38.6089325   6.2280880  43.8232188  38.9755034
   5.6488263  43.1701713  37.7389932 102.9244041  99.5524025  66.6518307
 102.5687122  99.7085571  67.5266647 102.2981358  99.9700737  66.0605860
  73.8468409 104.2650318  73.1439400  74.4525814 104.5475864  73.8291216
  73.5960007 105.0737858  72.6975918  14.8460232   3.7425380  58.1113243
  15.3272950   4.5652061  58.0228281  15.4354512   3.1721072  58.6046839
  81.7630482 102.8866005  28.3699584  82.6782322 102.7614117  28.1189728
  81.6972351 103.8184452  28.5786510  76.8858767  97.4505711  71.0616016
  76.4913988  97.5777531  71.9244146  77.5572109  96.7827129  71.2012672
  15.1909005   7.7445369  54.4861984  15.4773175   6.8315749  54.4597435
  14.7614991   7.8362899  55.3367424  20.9116112  11.8725448  63.1168079
  19.9946629  11.7997508  63.3816576  20.9610306  12.7077537  62.6518250
  73.5818624 100.4501915  40.9724140  74.4865513 100.4978371  41.2814426
  73.5165596  99.5917320  40.5540657   3.6452042   6.4374976  56.3417530
   3.8714348   5.6689983  56.8656349   3.5969960   7.1534686  56.9752312
  62.3517323  78.0807543  57.9237413  62.6471043  78.6660862  58.6211491
  61.5932894  77.6297903  58.2947254  43.8834524  82.5232601  61.8901348
  44.6581745  82.0201206  61.6393709  43.9665651  83.3466339  61.4091158
  90.3170139   3.1479125  81.6462803  90.1838571   2.2191005  81.4570427
  89.4329244   3.5115485  81.6950512  80.8889848  16.8900066  13.6128604
  80.4771501  16.1169391  13.9988661  80.5525381  16.9185786  12.7171934
  70.3329880  10.3135734  61.5562439  69.9497802  10.7490687  62.3176432
  71.2552339  10.5693297  61.5730190  88.8035900  14.6500640  74.5064926
  89.4064934  14.1360335  73.9693546  89.2956859  15.4402213  74.7294950
 109.0116626   1.8407397  50.9780884 108.9083463   0.9862094  51.3968039
 109.9219019   2.0826678  51.1488819  82.3222351  88.2788658  74.3896198
  82.7043629  87.9871750  75.2173424  81.9417286  89.1341019  74.5896912
  47.2646904  71.9073296  68.4326601  46.4251089  71.4528418  68.3635283
  47.5971365  71.9341135  67.5354433  82.0862484  95.6904125  77.6029730
  82.4577045  96.5484619  77.8079462  81.1752987  95.8726788  77.3723459
  92.5621223  73.0821371  72.8652906  92.6552582  74.0299129  72.9616547
  93.2828808  72.7172184  73.3786917  68.9060783 111.1779308  39.2358255
  68.9496994 111.6709232  38.4165049  67.9790926 110.9613895  39.3360019
 105.0945265   4.0827708  47.0091915 104.9131138   5.0131278  46.8759680
 105.4766161   3.7922626  46.1810350  35.7137656 102.0382690  19.2453337
  36.3528013 101.7220592  18.6066782  36.1399031 102.7889252  19.6590376
  80.0770218  18.7275939  60.9397173  80.7712299  18.7950950  61.5952730
  79.5987207  17.9335170  61.1782598 110.3665525  19.9350219   6.9807774
 110.9767420  20.1510196   7.6859307 110.8033020  20.2382712   6.1848342
  90.6046230  21.1506991  67.6912498  90.1541740  21.0545783  68.5303497
  91.3811571  20.5968051  67.7714348 101.2725288  24.5823245  78.9111042
 100.7916719  23.9785915  79.4772530 101.3804085  25.3725200  79.4404316
  90.6037599   9.7913985  75.9831047  89.8768074   9.3055396  75.5936003
  90.3827554   9.8487048  76.9126797  70.3077412 110.9217453  78.9893150
  69.5281219 110.4314804  79.2502165  70.0083971 111.4859962  78.2764006
  94.4918997  39.8760657  55.5148983  93.6290819  40.2087836  55.2677631
  95.0968868  40.5782085  55.2756977 104.2649729  17.1373515  39.5746660
 103.4229118  17.4548774  39.2485571 104.3381101  17.5111632  40.4528141
  80.7815075  98.7198448  50.8351564  81.6208363  98.7004566  51.2949228
  80.6361008  99.6457958  50.6410074  72.8054857 107.7483749  61.8084955
  72.9538155 108.3656788  62.5248528  73.4748077 107.9681683  61.1604738
  29.7953749  91.8093300  22.0881963  30.5789518  91.8026829  21.5384722
  29.2917371  92.5619984  21.7782545  88.2012272 105.8312607  88.3402157
  88.6023712 105.7415962  89.2046738  88.9355564 105.7770443  87.7286243
  71.6150266  17.2977691  56.3994980  70.7028991  17.5726085  56.3061190
  71.7620737  16.7020183  55.6648636  64.3214417  88.9889526  53.0215883
  64.7018576  88.1637287  52.7207088  64.8604202  89.2419720  53.7710667
 118.0827886  59.0790420  60.5405951 117.6104767  58.3993583  60.0597906
 117.8908569  59.8867469  60.0641537 112.6147110  14.7687678  52.6878214
 112.9975206  15.6380706  52.5694656 113.1808168  14.1867213  52.1808910
  69.0424967  70.8673143  53.6851215  69.7285843  70.8345222  53.0184555
  69.3836594  70.3381872  54.4061375  69.3536043 101.7854214  63.9477777
  70.0537682 101.1621189  63.7541246  69.0307760 102.0575047  63.0887175
  69.6840000  82.2841072  29.2275286  69.0908337  81.7102623  28.7426662
  70.5578470  81.9466114  29.0307546   1.1363112   0.3932243  60.1317739
   0.4416930   1.0411601  60.2497816   1.5781628   0.6599097  59.3256235
  52.7747869  97.6444626  21.9776154  52.3760700  97.5347710  22.8408813
  53.2036591  98.4992218  22.0187330  42.8318548  91.3187218  50.9536457
  42.2333717  91.9229317  51.3929605  42.7364779  91.5214539  50.0230360
  73.2175827  72.4149418  24.6943498  73.1685352  73.1431723  25.3136277
  72.3062611  72.2354841  24.4630027 116.3870174  18.4688716  42.3952532
 115.5597002  18.9477687  42.4445581 116.1349088  17.5805717  42.1430635
  97.7630789   2.8452830  26.0024071  98.6320144   3.2386356  26.0827756
  97.9193479   2.0055060  25.5704451  51.2382793  94.5569611  43.2769537
  51.9897556  93.9641666  43.2878590  50.8978653  94.4957447  42.3844290
  75.1490719  38.8252406  12.8405380  75.5241567  38.5418944  13.6743581
  75.6148154  38.3107905  12.1812546  84.4615108  10.0886970  57.3835278
  85.2536184  10.5328708  57.0810270  83.9545185  10.7736163  57.8195143
  20.1968323   5.8293395  23.6172652  20.7765233   6.4829593  23.2261562
  20.7338082   5.0393539  23.6791015  73.8133574  99.6294975  28.9793110
  74.2746019  99.8999500  28.1853700  73.6631680  98.6915493  28.8613224
  48.1491661 107.9863262  54.2366409  47.7294683 108.8183308  54.4554138
  48.0096388 107.4374771  55.0083447  92.4543268   7.5626235   0.1946268
  93.2289058   7.2593169   0.6681980  92.0281727   6.7601352  -0.1064275
  91.7966730  19.1040473  60.7811165  90.8484298  19.2292838  60.8183527
  91.9921476  18.5326533  61.5237665  78.2815170  63.7360907  49.9759817
  78.5949039  63.0211401  50.5299377  78.9983511  63.8951921  49.3619251
  76.6852760  87.1829700  72.4056101  76.1695337  87.9069328  72.0504856
  76.4241791  87.1313095  73.3250618  57.8917074  99.8696518  52.0129442
  58.8390636  99.9382114  52.1314573  57.7326632 100.2308559  51.1408949
  50.8476353  92.1974850  53.2620335  51.4751101  92.8341484  53.6043406
  50.5117798  92.5992107  52.4607563  13.2820069  15.7313304  47.9201841
  13.0755555  16.4181285  48.5541487  12.7599370  15.9524684  47.1489716
  92.3098881   8.0244403  33.2754803  91.7166931   7.6742511  32.6108575
  91.7312795   8.3563285  33.9619827   2.8374421   6.4007239  78.5916853
   2.7108895   6.8445830  77.7531147   2.5275933   5.5079703  78.4392977
  29.1180444 103.9584351  60.9090090  28.5748076 104.5864677  61.3851404
  28.4911108 103.3944035  60.4561806 106.5754778  21.5561633  32.8934050
 105.6582243  21.5873866  33.1652546 106.6039068  20.8719878  32.2245765
  86.9349081  21.9717651  43.4118319  86.1864168  22.3737102  42.9708815
  86.7238790  21.0385184  43.4392786  79.3163776 100.1392651  34.1414547
  78.8466978 100.9054089  34.4710827  79.7138071 100.4359150  33.3227444
 100.4558164   3.4989791  69.0547228  99.9351389   2.7238708  68.8441706
 101.2111789   3.1573730  69.5332146  21.8345486   7.7343135  64.6139812
  22.6086937   7.3242908  64.2282152  21.2700306   7.0000892  64.8557997
  12.0460831  22.1502547  51.4812946  12.6585232  22.8575473  51.2790680
  12.2192227  21.9384627  52.3985767 111.5336162   9.6537833  55.0126123
 111.2074596   9.1589313  54.2609644 110.9529382  10.4125648  55.0700426
  81.3206321   9.1476207  64.0522337  80.8920986   9.7185569  63.4145594
  80.9925062   9.4468646  64.9001884  68.0518341 103.7487888  57.2495937
  67.8392839 102.8599739  57.5343084  67.2721720 104.2614937  57.4628687
   6.0069691   9.6292071  37.8966999   6.5591370   9.1410785  37.2859073
   5.6847703  10.3724628  37.3867941  99.2420370  10.0213962  66.9890928
  99.5001632   9.2332606  66.5111351  98.9260322   9.6973090  67.8325033
 110.8409769  13.5204558  85.3343296 111.0296995  13.5601764  84.3967628
 111.3592941  12.7810340  85.6518650  78.2033140  31.8988376  49.8561430
  77.4711186  32.2302871  49.3362713  78.0802471  32.2911124  50.7205582
  68.3350086  88.2728004  51.9795227  67.8761005  88.7315083  52.6832390
  69.0226793  87.7777958  52.4248409  88.1841308   8.0790858  34.5295739
  88.7233049   7.3132377  34.3321061  87.7166063   8.2595687  33.7140489
 104.8654205  17.7527099  77.7278090 105.5041486  17.0469813  77.6267862
 104.6000416  17.9654555  76.8330765  51.8357867  69.4935988  89.4993511
  52.2626990  68.7420653  89.9106619  52.2267741  70.2551459  89.9276027
  63.6362362  96.8576908  50.3254557  63.8563967  96.5284443  49.4540405
  64.4727182  97.1454144  50.6911659  63.2540894 109.7907352  64.7135544
  62.6938677 109.8974037  65.4823208  63.9482021 110.4392815  64.8311758
  41.5445852 102.7176952  56.1065960  40.6492138 102.5534344  55.8106995
  41.4864588 103.5330486  56.6046524  94.0497572   4.2709212   3.3559954
  93.8394243   3.6686473   4.0696111  94.7387487   4.8322635   3.7115642
  20.6085795  98.3571909  90.7967052  19.7356194  98.1482313  90.4642781
  20.4473799  98.8996790  91.5686855  58.8601208 100.6929016  33.7479877
  58.2888794 100.1907253  33.1668377  59.4717360 100.0462341  34.1000915
  43.8739491 101.2039661  43.4238529  43.6335468 100.4788685  44.0006351
  44.3724108 101.7997646  43.9831305  99.3965561  25.2149921  39.4006848
  98.5549909  25.6633716  39.4840908  99.2047722  24.3030505  39.6193600
 103.4064228  20.7967334  29.8331404 102.7154905  20.4071765  29.2973351
 103.3112365  21.7395930  29.6982574 104.1606695  11.0994392  63.5161781
 103.2518036  11.3963084  63.5615969 104.5737964  11.6885524  62.8849030
  89.7494411  89.7665691  45.1574850  90.2864933  90.3621864  44.6349478
  89.6544838  88.9870739  44.6101236 116.2481195  12.8500037  64.6971989
 116.4522583  12.7767234  65.6295013 115.9648306  11.9713645  64.4442606
  53.8057566  98.0404377  46.7629814  53.1621790  98.0999851  46.0569429
  53.8371325  97.1088123  46.9805241  89.8088819  45.7941108  50.3242302
  90.4508621  46.1953883  49.7385073  88.9823610  46.2238078  50.1041222
  43.5310221 103.9151001  29.7278571  43.4056187 103.0966949  30.2081895
  43.0293083 103.7985802  28.9210486   2.0087468   6.9099097  34.4296932
   2.3842942   6.5690665  33.6178875   1.1086880   7.1400313  34.1991115
  49.6269274  92.8357124   8.2615042  49.4916058  93.7760925   8.1448883
  50.4592466  92.6573944   7.8236896  34.6351910  96.1986637  65.6440353
  33.9917755  96.5295410  66.2707520  34.1171002  95.7107639  65.0039101
 101.2120849  12.0675044  43.6571217 100.6956989  11.5829806  43.0130625
 100.6635076  12.0828395  44.4413805  51.4219666 103.7153912  63.4072065
  51.2051916 104.5388222  62.9699564  52.2376394 103.8991356  63.8731909
  75.9431362 101.9189072  33.2015777  75.6267881 102.1022797  32.3169684
  75.3576231 102.4156570  33.7731028  83.1922913 108.7974834  65.0866270
  83.7281799 109.3155098  64.4860315  82.7309227 109.4471359  65.6170273
  59.5187664  95.3887367  73.3487511  59.6147966  95.7697105  74.2215967
  59.7509527  96.0989857  72.7505350  63.8926649 106.0841560  41.0669088
  63.3081627 106.6210365  40.5318022  63.4838247 106.0746098  41.9323540
 103.0037910  11.3065772  32.8374839 103.6739284  11.7008357  33.3957911
 103.0430872  10.3718238  33.0397725  69.1634083  92.7283192  43.9269352
  69.7779942  92.9413033  43.2246876  69.0591669  93.5476875  44.4106770
 112.6841957  36.3244681  36.8689227 113.2096893  36.5855270  36.1126542
 112.4198181  37.1506744  37.2735620  64.0969706  83.0165386  67.8720808
  63.4603739  82.4995899  68.3657742  64.3568993  82.4478149  67.1473551
   3.1606518   1.6129069  35.4545283   2.8177868   1.3312297  36.3026667
   2.6935708   1.0736899  34.8163199  33.9286351 106.1192036  42.7336979
  34.5409203 105.7016182  43.3394670  34.4283438 106.8372059  42.3451138
  36.5958691  80.1331329   9.7473556  37.4819708  80.4477119   9.9265206
  36.6851902  79.1814470   9.6969682  57.4149377  14.2558246  52.0715237
  56.7092282  13.8434844  52.5697088  58.0834109  13.5750251  51.9947910
 106.7914135   1.7207389  46.9810867 107.6876194   1.4400725  47.1662235
 106.7261631   2.5900226  47.3764658  60.4822922  97.4918365  72.1975470
  61.1914444  97.6586056  72.8184509  60.2633715  98.3550167  71.8465042
 103.4489280  10.7860236  48.9728069 103.2454330  11.7203765  49.0152740
 104.3578226  10.7252460  49.2668343 102.3163444  15.3783660  60.4081249
 102.9166490  16.1151843  60.2942610 101.4890177  15.6837421  60.0359631
  63.3351946 106.7946720  35.4413533  64.2820024 106.7635155  35.5785394
  62.9839516 106.1409283  36.0459089  83.9156229   9.3214469  37.0154691
  84.5625335   9.5817237  37.6712060  84.1030342   8.3979182  36.8475223
  82.8136141   1.4574771  30.5911446  82.9350454   1.7944675  31.4787960
  82.2541982   2.1057277  30.1632953  56.4661980  99.2534256  58.2358456
  56.8087721  98.4404182  57.8644991  56.2929440  99.0432835  59.1534805
  47.6719189 106.6523933  59.2993641  48.4810972 107.1637249  59.2982197
  47.6264095 106.2780190  60.1791382 113.9780742  12.6121478  20.2270985
 113.6857254  12.3206859  21.0907030 113.9264995  13.5671477  20.2664828
  60.2896738 110.7165623  22.1026421  60.1758671 110.3761101  21.2153029
  61.2096596 110.5492115  22.3072219   4.1855275  20.0449329  38.2141232
   5.0647389  19.7345405  38.4306431   3.7092625  19.2553382  37.9573393
  53.8776064  96.2505054  62.2629881  53.2015514  96.6973591  62.7724028
  53.7675333  95.3245449  62.4791050  56.6817951 108.7846470  33.5558438
  56.4610243 108.2478333  34.3169761  57.6387930 108.7988281  33.5422206
 106.5113479  20.7261138  46.2891483 106.3413698  21.6114383  45.9673738
 107.3991234  20.5290179  45.9904051   5.1314848  22.9442651   0.1840279
   4.9014872  23.0389602   1.1083481   6.0666245  23.1453902   0.1480839
  80.0801945 103.0701160  46.8413925  79.5175695 103.8365555  46.9521046
  79.6868277 102.5872326  46.1145353  94.2543108  11.6791682  35.1808953
  95.0540334  12.1240478  35.4615283  94.2059023  11.8447738  34.2393732
 117.8526193   6.0014968  60.2653551 118.6087114   5.6401115  59.8028040
 117.1310932   5.9254890  59.6409702  37.8645008  51.2483023  92.5202128
  37.6557129  51.9827174  93.0975124  37.7588385  51.6007136  91.6365445
  96.0594351   9.9478583  32.4483514  96.8372232  10.1457648  31.9267130
  95.5154211  10.7319408  32.3741746  88.8692171  26.2378554  60.1825714
  89.2552168  27.0032840  60.6084347  89.6196253  25.7427268  59.8539972
  85.2346069   1.3761096  71.6003180  85.5871660   1.4267974  72.4887800
  85.9958059   1.1892467  71.0508776  82.8209496 106.9020939  92.8019428
  83.4258842 106.6134357  92.1185970  82.3037910 107.5929356  92.3878002
 105.5779440  20.8271937  39.1107750 106.4490158  20.9303718  38.7276125
 105.0867635  21.5864520  38.7969351  60.7645273  75.6790781  13.7600994
  60.4717445  76.5209675  13.4111965  60.6892443  75.0745869  13.0217528
  59.9195719 105.1860332  43.4123564  60.8563709 105.3384781  43.5364294
  59.6534538 105.8419132  42.7679682  90.0108988  28.8819175  60.5156279
  90.5682880  29.6254115  60.2859211  89.4168741  28.7887912  59.7708511
  10.2447449  11.5289168  40.2082157  10.0084721  11.9825130  39.3991113
  11.1950718  11.4266543  40.1567221  11.0069310  37.6870303  30.0680304
  10.7193696  36.8296485  30.3817987  11.8204056  37.8556018  30.5434990
  16.2624775  42.7855735  54.4626093  16.3630234  41.8779807  54.1755342
  16.9650685  42.9144721  55.0997734   3.3526057  59.8539255  93.9151111
   3.8612383  60.6297682  93.6793521   3.9959925  59.2486666  94.2838260
  88.8718987 103.9512062  43.1873751  89.4258785 103.5615253  43.8637543
  88.4142876 103.2077122  42.7948809  30.0373667  53.0627821  90.7200929
  30.4570359  53.9210223  90.7795742  29.3444412  53.1795309  90.0701305
  49.0224886  93.3355713  22.4471021  48.8621664  92.9554558  23.3108401
  48.6083603  92.7257919  21.8364525 114.4083387  16.2797980  44.4597960
 114.3825514  17.2354751  44.5073366 114.7534115  16.0926395  43.5867929
 101.0722715  10.1736503  47.5114632 100.6966573  10.3888660  48.3651781
 102.0186598  10.2040153  47.6516485  76.0900831 106.0161686  52.5061131
  76.1289692 105.1247120  52.1596718  75.2597475 106.0525990  52.9809237
  96.0835630  27.4425750  53.3058262  95.4042370  26.8839316  53.6835384
  95.6863434  27.7986198  52.5110435  99.7817690  15.8314281  59.1604424
  99.5741779  15.8752303  58.2270527  99.2843897  16.5502887  59.5504189
  99.1239912   9.8544841  58.1061459  98.8934452  10.5955939  57.5459337
  99.3215019  10.2487712  58.9557076 111.9906837   2.0753722  22.2019291
 111.8605692   1.2223678  22.6162744 112.0188219   1.8844466  21.2643862
  72.4894762 100.8196640  54.7614861  72.6051855 101.7671204  54.6896458
  72.7325392 100.4826260  53.8991880   8.2499730   0.1601653  51.9351816
   7.5317513  -0.4542012  51.7837095   7.8178536   0.9994750  52.0934725
  18.5895287  15.9604220  41.7171144  17.8573071  15.4875045  41.3216019
  18.1928002  16.4664416  42.4261904  94.3155956  90.2909088  60.2745342
  94.6876431  90.2568722  59.3932533  93.8199139  91.1095428  60.2938080
 105.8798200  10.0878863  49.6932268 106.8085272  10.3172736  49.7266436
 105.8604795   9.2279296  49.2733002  58.4731627  86.3785267  73.7809420
  58.7823057  85.4813099  73.6557770  58.9452934  86.8885422  73.1227493
  77.7684027  11.0848289  60.6003714  78.2782919  10.7558971  61.3406754
  77.3319608  10.3097110  60.2468967  97.6781303  10.5126338  17.0735753
  98.1415159  11.0499625  17.7160656  97.6293213   9.6458964  17.4768162
  46.0557508  88.3141041  29.3244457  46.5450859  89.0895462  29.0497041
  46.6155338  87.5778484  29.0778756  57.4353886  80.1029873  58.0975294
  58.3667183  79.8846912  58.1322241  57.0453882  79.6033144  58.8147879
  63.7443066  82.9135323  77.7277851  64.2944860  82.1497917  77.5539112
  63.2684946  82.6889038  78.5273981  42.1737528 109.1105556  33.0072808
  42.6920700 109.7830582  32.5653291  41.7163897 109.5804310  33.7046123
  37.2415733  94.9397945  38.9614010  36.3359976  95.1334667  38.7192082
  37.7361488  95.0536728  38.1498241   8.6782395   1.4086585  39.5825338
   9.1015183   1.8958907  40.2894020   7.7431141   1.4657741  39.7787929
  75.6930590  60.3915453  30.8026195  76.4537382  59.8116446  30.8388805
  75.6111288  60.7350492  31.6922975  74.3726349  84.4882011  51.6192389
  75.3205156  84.3924046  51.7118502  74.1419029  85.1885223  52.2295952
  33.2522035 108.7771130  69.5437574  33.9045119 108.0826664  69.4517374
  33.1310582 108.8682175  70.4888773  33.4646320 111.0626125  49.0273809
  33.7767100 111.4076138  49.8639297  34.1446948 110.4472446  48.7534094
  90.8620674  14.7925525  45.7094336  90.1882869  15.3245311  46.1328077
  90.8396942  15.0636249  44.7916937 111.9206363  42.7230888  34.9077415
 112.2105057  43.5664420  35.2555490 111.7426903  42.8938441  33.9828563
 117.7376396  -0.1167340  62.9297829 117.5343973   0.5094104  62.2348928
 117.8435976   0.4218249  63.7139845  77.4489260  83.8999557  49.4965696
  77.0674801  83.1939507  50.0183868  77.4486017  84.6574116  50.0817966
  55.7065720   0.7555156  39.8259377  54.8348898   0.3628783  39.7785950
  56.1361069   0.2986102  40.5491066 114.0598423  27.5203185  46.7540646
 114.5992262  27.9995875  47.3830366 113.5597593  26.9034248  47.2884750
  73.3302927  92.3138332  68.5848236  73.6905193  91.4393425  68.7322617
  73.1973028  92.3616028  67.6381111  50.6354844  21.0399680  68.2291555
  49.9657189  20.6153922  68.7652397  51.4256608  21.0148196  68.7688065
 103.5596752 100.4140663  58.9670420 103.2179451 101.3073540  58.9285040
 103.8293552 100.2218342  58.0689573  10.9985672  18.3008914  61.2965727
  11.1757790  18.9344173  61.9919014  11.2376534  18.7574439  60.4899549
  25.3819895 104.1685772  23.4360600  25.6881285 103.5480404  22.7746654
  25.2367878 103.6342239  24.2168331  80.3609020  26.2345462  75.3234720
  81.1546308  25.7038360  75.3911638  79.7950441  25.9095531  76.0237694
  63.8491106 102.6928520  42.4197340  63.9742899 103.2692432  43.1736135
  64.1291046 101.8310070  42.7280664 104.2684108  30.6452994  22.4978876
 104.3428737  29.8152499  22.9687428 105.0001461  30.6371265  21.8808556
  96.7319996  29.2198234  55.8883476  96.3880760  30.0717692  56.1569118
  96.7132742  29.2447429  54.9316549  80.1329231 100.0077534  57.4377012
  81.0277653  99.9337959  57.7693939  79.5819521  99.9375343  58.2172680
  94.1479570   9.4389014  61.6686630  95.0248415   9.2111640  61.3597250
  93.5636026   8.8605647  61.1784744 109.8432190  22.4102836  55.3225899
 110.0434667  21.5147166  55.5947924 110.6548483  22.7273326  54.9264050
 109.9937422  30.8874850  37.6888466 110.9444458  30.8022266  37.7604342
 109.8119575  30.7668643  36.7568398  92.0303947  23.2904296  69.1699982
  91.1528856  22.9081969  69.1596317  91.9576008  24.0721946  68.6224794
  94.5417434  22.8469138  26.1844230  93.6415846  22.5275569  26.2473273
  94.5383293  23.6705070  26.6721916  93.4178066 104.4080830  51.5179157
  94.1351795 103.8432884  51.2304878  92.8446388 103.8298512  52.0212555
 114.9284822  22.8866534  18.1355882 115.3489382  22.0645099  18.3876312
 114.3558914  22.6490932  17.4062490  12.6265465   9.5765929  39.2220783
  12.9782712  10.4135280  39.5254850  13.4003865   9.0508037  39.0197396
 103.8408852 100.9580326  55.9145403 103.4431648 101.8091011  55.7308769
 104.7719860 101.0843658  55.7319593  93.1697304   2.6534515  51.9154835
  93.3398515   2.8658157  50.9977722  93.7672645   1.9311195  52.1089268
  90.4837925   4.1521602  49.2480898  89.9097807   4.1986041  48.4835100
  89.8982794   3.9384322  49.9745369  87.5912380  96.8477917  31.4037704
  86.6383076  96.7984581  31.3281727  87.7423668  97.3973560  32.1727777
  88.7256462  33.3591132  63.6424637  88.5697920  32.7485995  64.3630314
  88.7503130  32.8064113  62.8613472 108.0309231  22.3059421  39.3120599
 108.4916097  21.7143397  38.7170744 108.6690981  22.4999671  39.9985862
 100.6252861 111.5631294  55.9314585 100.4885769 110.7832336  55.3935862
 101.5122986 111.8507004  55.7152748  24.5773446  14.6494250  56.7007446
  24.5725094  14.2441707  55.8335781  24.6312939  13.9124827  57.3092175
 116.3099939  23.8603931  83.8018513 115.6614048  23.4180122  84.3494511
 117.0553381  24.0068488  84.3843079  72.7534866 110.6829453  21.5141940
  71.9518900 110.7526302  22.0326757  72.6174212 111.2830639  20.7809997
  54.8797798  99.7651196  21.8363333  54.7453880 100.1022434  20.9506035
  54.2985487 100.2926540  22.3841524  78.2527596  14.9254851  68.4680271
  78.8711888  15.5447536  68.0803680  77.5121671  15.4664378  68.7421179
  25.9143656  76.1904866   6.2756893  25.7394570  75.5131585   5.6223366
  25.5925673  75.8195264   7.0973084 106.5366012   7.9188018  33.6368871
 107.2225363   8.5598903  33.8232517 106.5772087   7.3046451  34.3699551
  87.9422855  89.6163750  61.6007471  87.2787285  88.9569569  61.8034220
  87.4441147  90.3633881  61.2690210 102.8038502 109.1428280  24.3813729
 102.5850296 109.2930984  25.3010273 102.9128647 108.1943130  24.3130112
  69.3854141 111.0126305  52.2090054  69.9059105 110.7558250  52.9701710
  69.5661449 110.3364182  51.5560865  79.6440601  94.2222881  53.1154966
  79.5824957  95.1536179  53.3277750  79.5232821  93.7769890  53.9541578
  73.7887335 105.3954411  54.1013002  74.0165186 104.4657707  54.0939474
  73.4156704 105.5437660  54.9702358 106.9954855  14.0334945  13.7171113
 106.2594730  14.3545871  13.1961322 107.7677614  14.2282825  13.1861949
 111.5983946  28.2806163  36.6214657 111.9998533  28.9974456  37.1126151
 112.3391992  27.7860980  36.2709022  69.5813847 108.5753632  67.1602297
  69.7302008 107.6370811  67.0431423  69.0714788 108.8346004  66.3927507
  79.8037798  11.3938956  64.2043304  79.0200621  11.9404464  64.2617941
  79.9776632  11.1288028  65.1075029 109.8186380  25.5175548  65.8052921
 109.7908622  26.4740424  65.8297729 110.5369217  25.2836757  66.3931656
  55.4247808 105.7879162  46.5017366  56.3211060 106.1238194  46.5012550
  55.4716778 104.9795341  45.9912872  91.6201765   1.4300494  36.8420053
  91.5565616   2.2337012  37.3580766  91.8737966   0.7583480  37.4750304
 110.5676824   1.0525279  30.3332829 111.1326391   1.4987617  29.7024560
 109.7442228   0.9181266  29.8641610  67.2708464 108.6427975  13.8729501
  66.4960766 108.5410118  13.3201385  67.2135067 107.9224396  14.5006633
 106.8641168  25.8298640  49.2967463 107.4900657  25.1217322  49.4482803
 106.2355882  25.7516151  50.0144243  60.6999874  84.8592567  66.9537306
  61.5114737  85.3318501  66.7683077  60.5657244  84.3034935  66.1860561
  43.4207964  91.9281292  13.2532811  42.4905109  92.0691395  13.0774605
  43.8451672  92.7336597  12.9578900  18.5312211  20.8984141  86.5444088
  19.0221917  21.4081817  85.8999634  19.1562783  20.7413726  87.2521400
  95.6383640  20.4218059  59.3800354  96.4653808  20.5491786  58.9152193
  94.9949104  20.2720885  58.6873722 108.7245941 104.1648006  78.4890223
 108.3944893 103.5462093  77.8374052 109.1997147 104.8201084  77.9780674
 103.4925968  23.8795142  50.0208473 103.1868774  24.7794967  50.1339674
 102.6955587  23.3502822  50.0505781 100.4600698  28.7121158  44.6281624
 100.1876051  28.3009296  43.8078451 101.2162048  28.1992488  44.9135685
  43.3744383 110.3617859  45.3077602  43.9260006 109.8687077  45.9151173
  42.7999830 109.7031784  44.9172831   2.3923050  38.7222724  58.9490223
   1.7945992  38.0359416  58.6524916   1.8182885  39.4146495  59.2766619
  58.8510227  97.5395966  43.3793926  58.0518436  97.3870850  42.8751278
  58.5785055  98.1194115  44.0905762  10.0171601  44.9508720  30.9069967
   9.7342717  44.2078738  30.3739285   9.2486321  45.1758056  31.4314032
 104.7289211   6.8167358  58.5604763 104.6383650   7.6371532  59.0451956
 103.9915449   6.2820296  58.8547516  33.9127588 102.2220612  25.6890249
  34.2158723 101.5581322  25.0697064  34.0532160 103.0537128  25.2363992
   1.4180886  18.6468749  35.8814192   1.6098534  17.7097373  35.9165692
   0.6390273  18.7525802  36.4274263 110.5760652   4.9893050  12.8904641
 111.3772661   5.4351001  12.6155555 110.6394607   4.1187816  12.4975204
 100.8247692   7.1391063  54.8499537 100.2359182   7.1942668  55.6025791
 100.7607490   7.9979949  54.4322968 111.7762548  33.1180053  51.2425470
 112.4085886  32.8280120  51.9000340 112.3062641  33.3107238  50.4691219
 107.1127302  14.2568164  64.3119144 106.7475921  15.0345855  64.7338057
 107.6154262  13.8238006  65.0018597 113.4147960   1.6400771  42.5407410
 112.9611999   0.8858924  42.9171515 114.2816335   1.6251998  42.9464579
  94.9583721  99.1515064  44.0596056  94.5908737  99.8621655  43.5341167
  94.2890644  98.4675217  44.0389681  13.2567154  32.7900939  49.7717571
  13.4937226  33.6691623  50.0671959  13.4263932  32.2291808  50.5286074
  75.2910519 108.8397694  42.8606796  75.7305193 108.2000446  43.4209108
  74.9768209 108.3289528  42.1146536  99.7964126  14.6670680  38.0484366
 100.5650980  14.2900519  37.6203966  99.2366773  14.9533897  37.3266697
  21.9949185  44.5063548  88.4074402  22.8837716  44.4366126  88.7557316
  21.6860615  43.6017947  88.3562851  65.9993553 102.0404339  75.5347633
  66.8830442 101.8577480  75.8540678  65.5600977 101.1900520  75.5458832
 114.0117723  20.2975135  24.1219640 114.1127187  20.9092956  23.3927441
 113.4410745  20.7538848  24.7402334   4.8852097  39.8918586  31.1275220
   5.5232178  40.5393844  30.8276987   5.4026066  39.1030078  31.2895298
   1.4500081  21.5901523  50.3570223   1.0362135  20.7378821  50.2204561
   2.2150361  21.4006667  50.9002209  96.8681270   7.1708350  47.5856447
  97.4821884   7.1255832  48.3185291  97.3736698   6.8697505  46.8306589
  63.8353634 105.4640198  47.8165579  64.2371750 104.7090816  48.2464981
  64.1159534 106.2149429  48.3396387  98.5932142   1.2967830  53.4950590
  98.6484272   0.3412490  53.4833193  99.4356901   1.5810351  53.8495541
  38.1269013  20.8873229  16.0333109  37.5101983  20.1684432  16.1716282
  37.5862252  21.6077380  15.7094204  20.4897725  40.8252101  30.2271175
  21.0724007  40.4511790  29.5661569  21.0116040  41.5090518  30.6469870
  74.5833206  86.6677380  42.7650404  74.3256330  85.7490635  42.6883936
  74.2065382  87.0874977  41.9916964  70.3591299  95.4369640  18.2157302
  70.9446526  96.1226845  18.5369623  70.1703501  95.6874752  17.3113859
  13.6052834  31.3339572  36.6739273  13.7750851  30.5503230  37.1967292
  14.3239342  31.9275432  36.8917155  29.2652356  36.7588573  39.1685605
  29.5587574  36.8052058  38.2586527  30.0623166  36.8825011  39.6839404
   8.4178673  18.0436950  44.2537022   7.8704297  17.7633815  43.5202408
   8.3246743  17.3460822  44.9024487  11.4492547  10.6102042  49.3053675
  11.1224877  10.7073360  48.4109306  11.0839974  11.3591342  49.7764540
 108.8150597 107.6900101  24.0984750 108.0817032 107.7702141  24.7083807
 109.5047379 108.2328129  24.4804835  71.8201310  23.3920055  62.6422691
  71.0725242  23.9628463  62.4648857  72.5507194  23.8038497  62.1809006
 113.8118917   9.4990115  34.6569109 114.1571314   8.8854747  34.0083623
 113.7424165  10.3301292  34.1871762  72.5442607   5.2543883  40.0187302
  73.2237941   5.0231319  40.6519651  73.0255777   5.4815726  39.2231464
   4.0179383  42.9806857  67.7419853   3.7367474  43.8453250  67.4427176
   3.2073342  42.4766784  67.8135204   2.9169308  28.9737659  34.7132111
   3.3728348  29.6103339  35.2638054   3.5081994  28.2219081  34.6764994
  65.9267998  92.3864746  44.5991755  65.7418537  92.4857044  45.5330849
  66.6815948  92.9539967  44.4428682 104.7859031  30.2447276  59.7876549
 104.2276651  29.7772746  59.1662884 104.2437774  30.3419452  60.5705261
 113.1606770  91.6519547  91.3032341 112.9913235  92.1862698  90.5273056
 113.8515949  92.1211052  91.7709637   9.4641339  54.6721511  80.9388256
   8.8306462  54.5890098  80.2260685   9.4178616  55.5935149  81.1941338
  23.5232674  35.0621085  32.2474480  23.3726727  35.8970218  32.6906943
  22.7101552  34.5733314  32.3746490  93.1961996  37.4027019  61.1402225
  93.7340910  37.8858047  60.5129099  92.5281650  38.0302577  61.4161587
  86.6590023  99.7479630  40.1516008  85.9112835  99.4769478  39.6189761
  86.8156052 100.6579113  39.8991847  54.6511381  75.0103623   5.7719013
  54.5071905  75.8013017   5.2523586  55.5955046  74.9944836   5.9273502
  93.5990793   7.9195266  27.7698493  93.0792028   8.4647994  27.1793890
  93.7057573   7.0922809  27.3002648  23.4170662   6.7165237  42.5132608
  22.6662766   6.3819175  43.0037403  23.0300938   7.2157340  41.7940426
  91.8948650  93.7503719  69.8631096  91.0602665  93.5279751  69.4505262
  92.5412941  93.6522865  69.1640091  73.5160255 106.6547871  29.1159225
  73.5419655 107.5698090  28.8361096  74.3695641 106.3027954  28.8633227
  19.7774445   6.6233115  36.7562580  19.5779072   5.9396129  36.1167502
  20.0197255   6.1457973  37.5496721   1.8346344   8.2965331  76.5504169
   1.0997235   8.4503322  75.9567213   2.6043355   8.2875495  75.9814596
 115.3947241  61.5298705   3.4575596 115.5655462  62.2740798   2.8803071
 115.4540331  60.7646041   2.8856644  53.1560326 102.5932312  71.2820768
  53.8865232 102.4652958  70.6768894  52.5447893 101.8870831  71.0723829
 115.0218946  16.7996268  39.6111155 114.9216968  17.7191215  39.3646836
 115.7766468  16.4971690  39.1060376  74.3111355   3.4671645  92.3025417
  73.6140377   3.6052089  91.6612720  74.0829713   4.0432983  93.0321026
  65.1556969  79.5491552  28.3903599  65.3230524  78.6201715  28.5491562
  64.6139145  79.5634747  27.6013732   5.1453530  50.7337051  62.2479391
   4.8232972  50.8664374  63.1395102   4.4177567  50.3120093  61.7907524
  23.7364613  29.1279845  33.7523699  23.2108723  28.5303168  34.2841434
  24.3676316  29.5029979  34.3665552 105.6944127   8.9198971  13.3957911
 105.6692012   9.4605571  12.6063085 105.2787514   9.4590420  14.0686798
  56.9266891  16.0149610   9.1586328  56.8633509  15.6415558  10.0377166
  56.7293978  16.9439423   9.2782235  93.6659826 103.8031478  41.6809130
  93.9020778 103.4724225  40.8142471  93.5828794 103.0181832  42.2223520
  79.7929159 105.0060720  22.3934436  78.8945564 105.1118590  22.0804095
  79.8953437 104.0618820  22.5127935  48.7269605 107.0644201  26.7833304
  47.8215183 107.0425389  27.0930481  49.0367735 107.9410736  27.0107651
  97.8797043  87.2628112  51.7447567  97.9843307  86.3750930  51.4023542
  97.9902602  87.8287811  50.9807634  28.7308741  11.4310873  57.0344448
  28.4581614  11.2229586  56.1408329  27.9553008  11.8222415  57.4365854
  75.8327995  81.9810386  26.9617081  76.4695557  81.7672009  27.6436520
  75.9857319  82.9069180  26.7730546 114.2072745  18.9250064   9.3710703
 113.7586869  19.2383802  10.1564348 114.1673119  17.9709184   9.4370246
  84.4102461 109.7651474  13.6098206  84.3760098 110.2921371  12.8114831
  83.5617293 109.3232941  13.6417103  46.5912294  13.5045421  21.8925929
  45.7023144  13.2896590  22.1752286  46.9792175  12.6608992  21.6602898
  30.1147246  14.0290415   6.9812638  30.6990409  14.0733933   6.2244016
  29.4949508  14.7461724   6.8477166  88.5062964  95.1909096  37.9828596
  88.2038052  95.9775717  37.5291038  87.7096725  94.8004646  38.3422685
   9.4788694  15.8368039  80.8968735   8.9545250  16.4096725  80.3373051
  10.1502383  16.4110219  81.2653446 109.1225655  42.0950222  42.1856403
 109.5253922  42.0407391  43.0522537 108.2128127  41.8334246  42.3275852
  74.7278289  80.9565539  18.1943059  75.5770949  80.7301326  17.8152120
  74.2311148  81.3272829  17.4648774  63.8449086  89.1670508  16.4088333
  63.1846453  89.5908065  15.8604586  63.4518875  89.1426797  17.2812843
  86.9296331 102.5312234  25.9984779  87.1092100 101.9194944  25.2844954
  87.6344473 102.3783399  26.6278386 111.8050297  25.0320649  29.6662951
 110.8483507  25.0307822  29.6347404 112.0517488  24.1244340  29.4886231
  68.9570297  98.3674831  38.8357949  68.0118395  98.4423823  38.9670849
  69.2548270  99.2696292  38.7188268  47.0443535   6.4920723  29.1445732
  46.5058422   6.1138386  29.8396850  47.7203703   6.9868118  29.6076775
 100.4945154  22.0188546  12.8693879 101.2900586  21.4866781  12.8807735
 100.6562073  22.7052116  13.5166919   8.7355488  77.2563310  56.4921188
   9.2980927  76.4829821  56.4507771   7.9359597  76.9483418  56.9187641
 114.9467279  22.5925326  11.5282333 115.6726508  22.0390654  11.8162310
 115.2080719  22.8974032  10.6593347  18.5540128   1.9384131  16.1913264
  19.2732382   2.1338114  16.7919636  18.1318629   2.7840659  16.0400212
  33.6237359   2.0143408  24.8974276  33.4564328   2.5164902  24.0998769
  34.2433596   1.3363190  24.6280122 100.1559694  40.7142019  54.8534012
 100.3629370  40.1280022  55.5812502  99.3547328  41.1611938  55.1262522
  64.4348808  19.9535453  38.9088869  64.2234607  20.8539224  38.6621952
  63.7300058  19.4292533  38.5287571  51.1774015   2.1983986  36.9333553
  50.6725979   1.7231478  36.2734032  50.6255388   2.9454318  37.1649146
  52.4633265  13.3606350  30.1368856  53.0007267  13.5400677  30.9084034
  52.2145939  14.2258823  29.8117542  50.7009042 104.6553666  10.4967892
  49.9695695 105.1010842  10.9242427  51.4336813 104.7615821  11.1034107
  75.4839236  67.0700784  46.1178732  76.1800716  66.7361827  46.6836691
  75.9334005  67.6463408  45.4997158  91.1289687  17.2098136  62.8531218
  90.7890172  17.6042259  63.6563063  91.9300194  16.7626858  63.1263018
 105.0419510 103.6620088   7.6723808 105.9682621 103.4286739   7.6112980
 104.8110713 103.4890551   8.5850763  25.7690573  21.9156814  14.8702037
  25.1017427  21.9308853  14.1841340  25.3104830  21.5861988  15.6431079
   5.2820259  16.9655192  10.9175217   6.0033143  17.5928247  10.9671426
   5.5850565  16.2115979  11.4234936  49.8613262  50.2215052  17.0753551
  49.5039463  50.5718756  16.2594187  50.4242086  49.4982195  16.7992079
  72.5825782  87.3087854  27.6188874  73.2712776  87.8047938  28.0614948
  72.2967465  87.8797717  26.9057894   1.7032580   2.0518768  43.9866543
   2.6334184   2.2724433  44.0354729   1.6818102   1.0955022  44.0201139
  24.6374106  46.0869217  23.7087035  23.7307191  46.2188721  23.9857125
  24.8732734  46.9016171  23.2650065   5.7483244  40.2178335  52.8913546
   5.6923240  39.2785144  53.0667830   4.8407790  40.4909563  52.7572012
  91.1715258 106.8781744  54.8579788  91.2395788 107.7996496  55.1079464
  91.8487812 106.4396490  55.3730059  69.0414638 110.8937127  43.6070204
  68.5965789 110.1563181  43.1892204  69.3352074 111.4403315  42.8782177
  17.4039209  39.1725850  44.0926409  16.8253803  39.7578526  43.6037827
  18.0858207  38.9312840  43.4657288  69.8058362  21.7938900  60.6667566
  69.4322295  21.6079760  61.5282011  69.0984674  21.5994930  60.0518847
  87.3365397 109.9950228  25.2281332  86.4900894 109.5584450  25.1324606
  87.9456563 109.2906428  25.4496241   7.6422364  38.8664103  33.1548977
   7.0464015  38.4433508  32.5366473   8.2347941  38.1678677  33.4326482
  19.3500340  32.1101236  21.0179520  20.2761149  32.1244574  21.2596154
  19.2831075  32.7270603  20.2891564   4.9880838   9.9282622  40.3434801
   5.6167495   9.6624333  39.6724010   5.2632606  10.8103049  40.5935001
 117.6779784   6.1577392  12.1295857 118.1457054   6.9451922  11.8514121
 117.0733778   6.4644271  12.8053319  87.0975824   5.9595782  31.3237786
  86.4931889   6.0673243  30.5893874  87.7704807   6.6249388  31.1797881
   0.7025498  69.0584416  57.2368336   0.2872341  68.8222356  58.0662584
  -0.0026733  69.0043206  56.5918827  92.5056715   2.0072238  44.4923973
  91.6677137   2.0682244  44.0337753  92.5104065   1.1261468  44.8664474
 115.1278664   4.6524516  12.8587568 115.5158411   5.4837155  13.1320834
 115.4539741   4.0154317  13.4944379  13.1466043  60.0321198  47.6240587
  13.4526443  59.3549538  48.2273960  13.4205341  59.7246075  46.7599821
   3.5216403  34.1570091  32.0788145   2.9966471  33.4172988  31.7731333
   4.2334718  34.2247057  31.4424610  25.5517912  10.7517672  55.9805012
  25.4355955   9.8047245  55.9040833  26.3928628  10.9247839  55.5575418
  80.5470403 109.1846367  26.4414859  79.8253153 109.0123753  25.8367777
  80.4169815 108.5589225  27.1540856 103.7965591   7.2497320  12.5770545
 104.3134589   7.8091508  13.1567931 104.4029803   6.5605414  12.3059428
 100.7899816   5.7654387   2.0763598 101.2044866   5.3493536   1.3205220
 100.5066009   6.6207910   1.7534055 101.6343243  36.7211890  45.7580709
 101.1984213  36.6598701  46.6080475 101.3924904  35.9128618  45.3060102
 115.3069226  15.6894934  41.9201374 115.1756902  16.1367631  41.0840988
 115.6485952  14.8282135  41.6799545  82.5434957  96.7517586  46.9137383
  82.3705743  97.1593852  46.0651112  82.4412558  95.8135254  46.7540598
  18.2008588   2.8044429  37.1700001  17.6351893   2.3161823  36.5717912
  18.6123192   2.1320522  37.7129745  29.3419933   2.7561426  60.3960276
  29.1214490   1.8325034  60.2756882  30.2367616   2.8338373  60.0649929
  69.7456289  83.2707114  18.8658011  69.9879892  83.9411564  18.2270551
  69.8747689  83.6917610  19.7156680 106.2843717 108.3237020  24.8010874
 105.9081949 109.0355338  25.3187919 106.1167825 108.5738773  23.8924861
  57.3306465   3.0197605  32.5486207  57.4036598   2.4755366  33.3326626
  56.6745043   3.6789411  32.7748728  24.7668695  30.3511691  39.8614359
  25.3044486  29.8494887  40.4742670  25.1244259  31.2382483  39.8998737
 105.0413550  94.4749851  45.8399343 105.6367386  94.9175711  46.4448071
 104.8658670  93.6292584  46.2524652  20.9809113   4.4389838  31.5652585
  20.9976363   4.7850841  30.6729770  21.8680167   4.1104701  31.7113996
  95.1929541  13.5206008  24.9797487  95.5633660  12.6770604  25.2394915
  94.6689601  13.7941229  25.7326412  58.3405102  92.5210554  27.1306491
  58.4681262  93.2646258  27.7197576  58.0192007  91.8193145  27.6968217
  24.9646813  54.0780027  83.5928634  25.3321344  53.8449621  84.4454482
  25.4894025  54.8237182  83.3016446  87.1404822 108.1634081  50.0711298
  86.8532253 108.9856162  49.6740294  87.3961915 108.4039874  50.9616184
  78.0966524  87.3411746  38.1770086  78.3845638  87.9563947  37.5025868
  78.9076074  87.0293493  38.5786915   2.2061062  62.0709705  39.6635771
   2.1479876  62.9474449  40.0438976   1.4004806  61.6352797  39.9417353
  43.3308411  28.4467459  27.8210473  44.1252518  28.7365723  28.2695389
  43.2732677  29.0089774  27.0485115 110.3475512 102.9678495  14.1569996
 110.5415929 102.5202025  13.3334756 110.9371270 102.5640089  14.7938240
  11.3476675 108.1645371  22.8828669  10.7941502 107.4777631  22.5111246
  10.9015482 108.9805518  22.6563025 102.0309938  76.8660493  24.5167708
 102.3441828  77.4329443  23.8119483 102.4864210  76.0358710  24.3766952
  15.8854628   7.9144716  24.5429134  15.0177205   8.3184874  24.5479918
  16.3655972   8.3867949  23.8627553  36.2485862  20.0427294  67.6454782
  36.4192247  19.1023445  67.6983070  36.9123054  20.4386878  68.2102156
 102.5735057 102.6957179  43.7741518 102.8733910 102.0263178  44.3891335
 102.9486145 103.5113425  44.1062403  30.1983571  40.5047512  33.6381960
  30.7154441  40.8603382  34.3609762  29.2917204  40.7043743  33.8714194
  56.1238432   5.2243823  35.0875282  55.5783701   5.3362316  35.8661056
  56.9074583   4.7766060  35.4063988  35.1614499  22.1142769  57.7572489
  34.9852586  21.7432380  56.8926573  34.3418217  22.0003223  58.2383490
  78.3953855  83.3736915  40.8829498  78.0167411  84.1990228  40.5801487
  78.8823350  83.6090655  41.6727066 106.5162857   7.5854826   0.1323297
 106.6122468   6.8684065  -0.4944277 107.2806223   7.5083774   0.7033601
 112.9315872  19.9494708  12.9182315 112.1873577  19.4362175  13.2327580
 112.6343425  20.8579588  12.9684830  50.2111734  97.5939388  47.8011656
  50.0488556  98.5363061  47.8439188  49.8440255  97.3256309  46.9588804
  37.7347159  29.8292160  19.3105352  38.6844325  29.7761083  19.2035234
  37.5973129  30.6109643  19.8455298  21.7073185  51.6229283  95.0060828
  21.1391277  51.0736051  94.4660503  22.4138743  51.0387960  95.2813998
 112.6814254   9.4730765  45.5223465 112.7856733   8.5530376  45.2796650
 112.8586157   9.9553627  44.7147322  30.4642302  84.9163192  80.8125761
  29.9654788  84.1663354  80.4885331  30.2196885  84.9859160  81.7353907
   9.9440920  23.2740808  31.7518187  10.0766945  23.0069709  30.8422565
  10.2585781  24.1775560  31.7843986  90.8963413  45.8842611   8.1589484
  90.0591560  45.4451227   8.0089021  91.4068337  45.7027340   7.3698497
   9.9848497  44.7366381  35.6629419  10.1846325  45.0505972  34.7810411
   9.3376797  44.0440607  35.5297351 115.4239233  48.0395603  64.2205143
 114.6351065  47.7405357  63.7682009 115.2769788  47.8070688  65.1373482
  51.9233847   8.4846795  22.5772381  51.3524866   8.5572350  23.3421159
  52.3343611   7.6247466  22.6658225 110.3373707  98.7169118  39.0440130
 110.5130518  97.7789874  38.9687324 111.0020889  99.1300828  38.4929490
  23.2575631  43.5238791  21.7128754  22.9729199  43.4128952  22.6200104
  22.9558110  42.7315807  21.2685275  29.0799522  25.2340937  36.5502882
  29.0803266  24.7724175  35.7117867  28.4713674  25.9618235  36.4227486
  34.1700721  38.1818891  34.2500496  34.8349810  38.6859250  33.7809277
  34.1615725  38.5576081  35.1303887  23.1353784  35.9749007  14.9272633
  23.5827088  35.1356316  15.0356781  22.5184584  35.8266687  14.2105556
   5.0330812  20.4205990  29.8896599   4.4604659  19.6765459  29.7033072
   5.8794528  20.0251341  30.0982094  11.4484072  32.8046250  47.3610115
  12.0359707  32.8452229  48.1155634  11.9447541  32.3269963  46.6963720
  14.4584453  22.5709510  19.4925570  15.3648806  22.7748251  19.7228634
  14.3116021  23.0321670  18.6667550 113.3023394 106.9010387  40.2501631
 112.4395574 106.8847601  40.6643820 113.2364501 106.2686981  39.5345974
  35.4981065   1.6053866  27.1650791  35.0715423   1.9911572  26.3999295
  36.4326763   1.6398272  26.9610572  63.5391855  20.3136396  31.8743634
  64.1094780  20.0743723  32.6049447  63.5493517  19.5468569  31.3014984
   7.1978438  11.0803473  16.3596284   7.8102857  10.9234011  15.6409395
   6.4844197  11.5792716  15.9617162   6.8305796  47.6339912  38.1391644
   6.2818491  46.8604803  38.2688117   7.4567288  47.3729992  37.4638486
 109.6096457 100.9626896  21.6813469 109.2277325 100.9119899  20.8051038
 110.5291642 101.1810501  21.5295768   3.8530546   6.3351887  31.7776799
   3.9542526   5.4198951  32.0388865   4.7492865   6.6578239  31.6833043
   4.9393651  61.0161972  13.6198914   4.8932439  60.0606489  13.6521423
   5.1819021  61.2138844  12.7152777  56.8626785  11.6443956  24.0982032
  56.0053635  11.9941771  23.8555241  56.7654705  10.6954765  24.0186191
  41.0849762  64.5213413  28.6277890  40.4103708  64.1913748  29.2213058
  41.6263056  63.7566614  28.4316778  23.9544749   6.1409456  35.5264735
  23.4006405   6.2286341  34.7507095  23.9618301   5.2016467  35.7105803
  21.3529181  34.0313959   5.0557405  20.4901338  34.4172072   4.9041256
  21.1682343  33.1378412   5.3450251  63.7169487 102.3838943  83.9059761
  63.9306838 102.5455087  82.9870465  63.2344920 103.1637424  84.1803995
 101.3369049  99.3857510  57.0593500 102.0113767  99.4051440  56.3804197
 101.0322083 100.2911193  57.1201944  36.5591621   8.9030033  79.8906565
  35.7095218   8.7203187  80.2918625  36.5194225   8.4700131  79.0379143
  37.3903894  24.9253941  12.9127502  36.6362238  24.9413252  13.5019982
  38.1325006  24.7141242  13.4792006  39.7968316   3.6775851  25.6599617
  40.4131174   3.7648231  24.9327683  39.9817634   4.4298577  26.2222052
   6.9725603  29.7387791  55.6386757   7.6266205  29.0600586  55.8053350
   7.1038973  29.9778271  54.7211552  83.5777901 109.0352147  36.4122915
  83.8082410 109.7499221  37.0058560  83.6449108 109.4189401  35.5379462
  25.5235434   6.0863858  26.4920187  26.0890341   5.6133592  25.8815289
  25.7243466   5.7069510  27.3475528 111.8355049  72.3890848  59.7287178
 111.0122360  72.4360175  59.2426586 111.9242252  71.4647097  59.9608660
  31.3234687  21.8978143  31.6322970  31.6269922  22.3475146  30.8437061
  30.5329418  22.3723793  31.8893719  31.4007759  30.8331156  58.5331774
  31.7364287  29.9526405  58.3648491  32.1705294  31.3361025  58.7990999
  94.1467447  33.6268830  34.0875530  93.6036034  32.9377031  34.4699907
  94.0043445  33.5483217  33.1442690  25.6744409  25.8188558  30.7728958
  25.4822063  26.0627031  31.6783333  25.7709813  26.6540146  30.3152704
  14.8124254  24.6038651  38.3355451  15.5048251  24.0564775  37.9651666
  14.0164351  24.0810442  38.2391691  43.0383492  14.5179439  40.5833483
  43.1025648  14.2282593  41.4934015  43.0759764  15.4731226  40.6328249
  34.1282725  55.1856279  36.6355681  34.7695994  55.7185173  36.1655068
  34.4857407  54.2982054  36.6049647  79.9512287 102.2512765  22.6532078
  80.2650836 101.9869871  23.5180068  79.3296983 101.5670873  22.4045777
   1.6745691  23.6828208  68.0207443   1.3558578  22.8305364  68.3178329
   1.8167095  24.1795468  68.8265276  10.7834446  31.8105865  36.6273093
  11.7154527  31.6303277  36.7501926  10.4137921  30.9755659  36.3403749
   6.6024333   5.6110549  80.3569126   5.9898061   5.9896153  80.9874725
   7.4288708   6.0640615  80.5242920  67.0635963 107.7126200  19.6797764
  66.4098443 107.6630209  18.9823663  67.3864866 108.6129154  19.6418023
  78.9265812 102.4974449  27.8827929  78.5996156 103.0817277  28.5668516
  79.8696133 102.6598848  27.8596473  24.7298765  12.5856924  39.1155338
  24.6296883  11.7138851  38.7332439  24.1361094  12.5876796  39.8663139
  17.9706013  29.8670530  37.0969296  18.2465136  29.0772629  37.5620484
  17.1632063  29.6122766  36.6503501   7.5359207  30.7471037  22.4198651
   7.8397357  31.0298347  23.2824135   6.6585368  31.1214256  22.3404145
  48.3222878  47.2353392  87.8702256  48.4344322  47.0433813  88.8012507
  48.7511784  48.0821442  87.7469125  20.0864291  27.2709656  72.3510885
  20.3681660  26.4853930  72.8198433  20.1703906  27.9759836  72.9930639
   9.9650067   0.9766892  36.9876051   9.3049937   1.1426029  37.6607227
   9.4611430   0.7099872  36.2186933  42.3481417  17.3339140  72.8556776
  42.2385979  18.1242454  72.3268986  41.5191507  16.8650007  72.7601242
  34.8063755  44.5567751  10.7327437  34.3581510  43.8738537  11.2316895
  35.7274866  44.2966938  10.7447481  41.4378881  46.0202122  26.5651059
  41.6278410  46.8029451  26.0479259  40.8850527  45.4851770  25.9955931
  18.2194519  46.4437866   8.9537829  19.0020323  46.3432169   8.4118551
  17.7543128  45.6125450   8.8593972  83.4378428 109.0263716  27.7755642
  83.2114009 108.7712095  28.6699057  82.6455707 108.8498236  27.2682500
 100.9367128  17.3728096  19.6628034 100.4807635  17.6724994  20.4492688
 100.2548559  17.3297668  18.9923930  55.5819654  32.1080804  39.7168422
  55.8522701  33.0254722  39.6773171  54.8541641  32.0459652  39.0982318
  59.2442083  32.9829431  56.4477587  59.6911240  33.5255384  57.0974445
  58.6829996  33.5940981  55.9705114  42.6269627   1.8263330  13.9768422
  42.3687363   1.2299587  13.2740712  43.2701778   1.3327110  14.4856107
  51.3212199  86.5780109  87.6342890  51.1651999  87.0894187  86.8403420
  51.8947453  87.1299976  88.1658986  15.8985770  25.8399582  43.6258841
  15.0731647  25.7725048  44.1058588  15.6907618  25.5242157  42.7464819
 115.6203513  24.4970846  30.1664639 116.0815780  24.0350461  30.8664775
 115.4402874  25.3641152  30.5298710  95.9848774 109.2105592  27.7280569
  95.2701617 109.7740465  28.0245256  96.6467954 109.2813819  28.4158659
  16.6909385  28.2102394  22.0683885  16.6557288  29.0665007  22.4947834
  16.6034544  28.4036827  21.1350298  48.4817279 108.8714186  14.7155356
  48.8442935 109.1108585  15.5684400  48.2252539 107.9544048  14.8131990
  53.8885498  39.4089127  59.7391653  54.3055820  39.6413183  60.5688047
  53.2488060  38.7363291  59.9728155  65.0178243  78.6661405  35.2437210
  64.1990555  78.5086126  35.7138634  65.3686536  77.7918501  35.0741148
  87.1505757  23.8152719  38.2810307  86.2793036  23.4193683  38.3005404
  87.6168080  23.4041810  39.0089464  49.5112991  45.8252144   7.7363473
  49.1745901  45.3762722   6.9609070  49.5403337  46.7483521   7.4849409
  54.8306704  45.5398273  41.9518042  54.7804260  45.0508118  41.1304808
  55.2582216  46.3627815  41.7147923 106.5167964  91.7236264  12.0090616
 107.3040164  91.3623304  11.6016543 106.7554201  92.6224537  12.2357786
  17.1137738  27.8771305   1.8342006  16.4323914  27.9870939   1.1709831
  17.7856433  27.3497176   1.4021617  20.0368047  26.1054063   5.6220424
  20.8441448  26.2521553   5.1291925  19.7711718  26.9781232   5.9119332
  26.0935450  21.2996149  58.6823511  25.4964328  20.9450102  59.3410921
  26.3934469  20.5331874  58.1935978  39.1052055  53.3028889  25.5543876
  38.3644104  53.3269739  24.9486899  39.3220615  54.2230749  25.7042646
  23.0810165  45.3007460  43.1758118  23.7536716  45.4433489  43.8417196
  23.5591769  44.9531889  42.4229527  18.6117762 108.8714690  49.7773361
  18.0765122 108.1418930  49.4651699  18.3947247 109.5959766  49.1906404
  20.5301833  14.6591353  28.1220460  20.3761244  13.8364208  28.5864139
  19.8450124  15.2463377  28.4413671  37.0501065  29.5306087  34.9482989
  36.6419435  28.8286066  35.4550791  36.4941382  29.6218109  34.1744685
 110.7420064  31.0353589  27.5080991 109.8339869  30.9961510  27.2077751
 111.2622960  30.9016442  26.7158556  14.1461444  56.8090677  47.0617819
  14.2280459  56.4509106  47.9456663  13.2079411  56.9638920  46.9520760
  10.3567028  41.8264532  28.7863398  11.2810981  41.8433475  28.5384655
   9.9909323  41.0896015  28.2969594   1.2645175  32.3510981  36.4879632
   0.8889499  33.1776881  36.7911625   1.3936673  31.8394804  37.2865891
 116.9477004   6.0321301  29.0621686 117.3988113   5.4459685  28.4545946
 117.3035788   5.8063275  29.9215841  62.1609354  24.1474533  32.2187448
  62.1882391  23.3928251  31.6305065  63.0332899  24.5355892  32.1510482
  17.0786214  44.2893744  14.2072332  16.4939141  44.8022747  13.6493063
  16.5012372  43.8957500  14.8613870  14.8347872  81.7062898  18.1885481
  15.0251168  81.7773099  17.2531533  14.0213221  81.2035079  18.2299519
  10.6487191  37.2174406  21.9302988   9.8437268  36.8958282  22.3362374
  11.3470531  36.7210078  22.3570490  83.8600392 109.2765432   6.7196989
  84.3151672 109.6403847   7.4791127  83.6870391 110.0328852   6.1591190
 110.3567279 109.9098551  24.7149754 110.2054299 110.3256005  23.8661551
 109.6492017 110.2361615  25.2710009  34.6849084  52.4760675  33.9884543
  34.6614671  52.3181248  34.9322414  35.0662041  53.3497000  33.9012098
 110.1043714 107.8820599  38.2234979 110.1217426 107.8831689  39.1805387
 110.9023727 108.3453251  37.9689240 104.2825926 107.8096662  47.0395660
 104.7877968 108.6164571  46.9391155 103.3697880 108.0876596  46.9638157
  11.3892603  31.3602591  13.0425751  11.3224232  30.5420947  12.5502610
  10.9332681  31.1827016  13.8652396  20.3968096   6.4801842  46.1128521
  19.8291111   5.9446007  46.6670179  21.1742711   6.6382742  46.6483831
  21.7073250  35.6677365  62.2688770  21.8016577  36.3101244  62.9722071
  22.2460866  36.0117817  61.5564156   0.5867520  39.3591142  45.6333828
   0.7908827  40.2176285  46.0042143   0.3246642  39.5439506  44.7315073
  56.4823723  40.2590799  56.5479422  56.4415884  39.5524693  55.9035254
  57.2385597  40.0424623  57.0933676  24.2856884  15.4656577  18.0612648
  25.0976682  15.9360313  17.8723991  24.2241192  14.8068273  17.3696113
   8.0816275  23.7240291  35.9168506   7.6145935  22.8949666  35.8130932
   7.5619441  24.3555522  35.4195189 110.6040813  37.4849272  80.8629799
 110.2229793  38.3383894  81.0693645 111.2862034  37.3612833  81.5230179
  28.9990544  17.8714371  55.5403900  28.5660768  17.4873602  54.7779942
  29.9250269  17.9020154  55.2998161   7.7497250  14.1912806  29.6162438
   7.2818393  14.1934705  30.4512954   7.9314739  15.1146054  29.4411111
   4.0642983  48.4643936   3.5360318   4.6935514  49.0252399   3.9895990
   4.1810429  47.6021004   3.9348501  22.1974206  42.5438452  17.2562838
  22.5097489  41.6500568  17.3970842  22.9930806  43.0551910  17.1090293
  13.9301908  32.2890782  28.6074519  13.3835888  32.7954483  28.0065799
  13.3062410  31.8307781  29.1703725  34.9370885  21.6848683  36.9980764
  34.2142844  21.3614917  36.4602923  35.1689935  20.9440756  37.5581431
  30.8819699  41.1176729  14.2878616  31.7545366  40.7420635  14.4052327
  30.9229660  41.5580082  13.4389484  56.1771631  26.2271976  22.0620966
  56.8997526  26.4217257  21.4652252  56.5486479  26.3494062  22.9357624
  45.3974295  43.1239080  23.1174302  45.5308914  42.5096464  22.3955584
  46.2765837  43.4355211  23.3324027  47.9373598  55.9532499   1.2424892
  48.3407545  55.8575773   2.1052475  47.0617247  55.5803967   1.3448289
  62.1739054  38.0076361  42.4570274  61.7352247  38.2736158  41.6489124
  61.5421772  38.2048821  43.1485796   0.6709715  26.0979772  54.2421246
   0.2351793  26.8253207  53.7979555   0.0447155  25.8142495  54.9081087
  46.9883060   7.3703593  47.7095747  46.8573999   7.4123901  46.7623043
  47.2417355   6.4624995  47.8762960  27.8531957  20.9682941  18.3919418
  27.7862120  20.2389693  17.7756381  28.1591272  20.5671430  19.2054009
  28.6810517   7.4770278  28.6532092  29.5079899   7.1580601  28.2917356
  28.8153362   8.4182507  28.7641072  50.2473402  18.6733913  20.9512615
  50.8049297  19.1072476  20.3054333  50.8257294  18.5108626  21.6964316
  79.9965364  36.9471293  85.2967289  80.1319200  36.4103823  84.5158282
  79.1062958  37.2861129  85.2029756  58.8657808  17.5478458  24.9057460
  59.6953106  17.9412746  25.1765394  58.2544327  18.2831705  24.8635530
  20.6138134  26.9180775  27.9048991  20.5759716  25.9662271  27.8111792
  20.4101062  27.2530150  27.0316577   4.0436015  67.4484968  62.2853422
   4.0897924  66.5475225  62.6052475   3.8147825  67.3626184  61.3598680
  49.8733950  25.5740356  45.6398773  48.9350128  25.4869103  45.4723072
  49.9398041  25.6612921  46.5907764  31.1377716  34.6387196  28.6406898
  30.2381277  34.8413062  28.3841062  31.3866520  35.3538775  29.2262149
  53.2215166  22.0616269  49.1213179  52.8121948  21.9060612  48.2701492
  54.1315699  22.2740793  48.9141989  93.0302234  46.7977810  19.6860611
  93.2581015  47.3891449  18.9687121  93.7527437  46.1707544  19.7182727
  25.8598304  55.7422447   8.3892113  26.4356947  56.5014315   8.2983965
  25.9798717  55.2519226   7.5759423  19.1645074  15.7131863  17.3567772
  19.6092284  15.3320360  18.1138623  18.9533424  16.6066051  17.6277828
  67.9840768 109.7076031  36.6012454  68.8140369 109.8859480  36.1589885
  67.3757983 110.3510060  36.2375689  64.9518538  25.6624222  43.0536985
  65.6658602  25.1271725  43.4000063  64.1589355  25.1693726  43.2644510
  36.9795656   1.4486247  30.8244133  36.5454865   0.8093738  31.3893604
  37.3938799   0.9218985  30.1409411 105.6994791  30.0260615  29.8841691
 104.8555107  30.1698256  30.3122807 106.3442047  30.1340675  30.5833769
   3.1613544  20.8792424  46.8438816   3.0195370  20.0442767  47.2899246
   3.7131780  21.3807225  47.4440813   7.3528534  57.3855114  11.1576998
   8.0948561  57.1097040  11.6958404   7.1116871  56.6024351  10.6628644
  95.8097650 109.5829163  44.2180681  96.7103971 109.8044698  43.9814091
  95.8065380 108.6277486  44.2803288 116.5080613  13.9944994  18.8451147
 115.7489377  14.3703485  19.2908728 116.8425549  13.3368731  19.4549298
  14.7647953  17.5432718  25.2836394  14.1476762  17.1971381  24.6389771
  14.7559774  16.9004750  25.9928417  40.8565187   6.3082355  30.1447439
  40.0803423   5.9410185  30.5677485  40.7473564   6.0956055  29.2178655
  53.2929468  53.5157013  12.0420384  53.6130667  52.9566336  12.7499914
  53.9453459  53.4205866  11.3480902  26.2672114  32.6806927  51.2339544
  26.6881394  32.3791218  50.4289007  26.9603229  33.1384373  51.7096615
  89.0648473  78.6199851  30.4870224  88.4465511  78.2957787  31.1418772
  89.5436574  77.8411717  30.2034330  31.2087655  13.7534237  28.8822722
  31.1299992  13.9312792  27.9450440  31.7003798  12.9335022  28.9299774
  42.6293278  10.7787168  20.5358362  42.8382778  10.1167226  21.1948776
  42.5277853  10.2836788  19.7229040   1.8026794  31.1175156  48.2716560
   1.3051257  30.4023266  47.8752041   1.1355331  31.7235589  48.5939312
  28.3984923  12.9747748   0.7810745  29.3455791  12.8875327   0.6731518
  28.0416656  12.8082764  -0.0913848   7.7139538  98.7549777  41.0920906
   8.1234902  99.5703776  40.8028984   7.5422495  98.2731135  40.2830458
  85.5334949  53.4156322  59.6830463  84.8455524  54.0761471  59.7648478
  86.3358784  53.8731194  59.9342823  27.9203558  13.4451485  44.5554447
  27.1065998  13.9126909  44.3671989  28.4864473  14.1027772  44.9595404
  19.7105098  55.3991747  13.0146480  19.4301152  55.9291077  13.7608290
  20.3698826  54.8067617  13.3759022 101.9737757 108.2339488  33.4997010
 101.6587437 108.0726681  34.3890691 102.8245843 107.7968145  33.4640241
  65.8748341  29.1618347  46.8236685  65.1738453  29.1299939  47.4746990
  66.6643572  29.3506122  47.3308659  23.4900379  35.5857849  48.1840134
  23.7223530  35.1381731  48.9975929  22.5362015  35.5199075  48.1383419
  13.6791730  54.5974350  45.2127361  14.0866947  53.8575268  45.6629562
  13.9775109  55.3667831  45.6978464  55.8597422  36.5533710  35.8324218
  55.7374954  36.6700029  34.8902512  56.6659737  36.0429668  35.9079623
  46.1620092  33.0502129  53.3630657  45.8277941  32.8882575  52.4808502
  46.9403553  33.5909367  53.2288074  14.3078732  58.2609749  49.4406891
  15.2554393  58.1825876  49.5511723  13.9430022  57.5927401  50.0208282
  89.3898226  92.7533300  51.0933161  88.9781989  92.7265723  50.2295542
  88.9170207  93.4405787  51.5627575  18.1110716  19.3567753  10.8601403
  17.7726781  19.6300566  10.0074744  19.0231657  19.6471465  10.8601022
   6.4333206  54.0336990  56.2677574   5.6788206  54.5252275  56.5923500
   7.1891934  54.5710039  56.5048075  14.8071218  37.7416444  66.6112661
  14.3930387  38.4423089  67.1150875  14.0761900  37.2676921  66.2146044
  29.1890049  27.2405100  95.7371902  30.1091099  27.4486756  95.8993816
  28.7262654  27.5918078  96.4979172  20.1402664  52.7471399  31.8754721
  19.3551731  53.0696297  31.4329076  20.4021931  53.4649944  32.4519372
  93.3915158   9.5385927   4.4469395  93.2274695   9.4645715   5.3870678
  92.5298329   9.4310141   4.0442488  23.3115888  24.4858313  76.3235331
  23.5095143  25.4078913  76.1596441  24.1147947  24.1328025  76.7062426
  34.4335341  44.2148447  38.1157470  35.3662539  44.4200754  38.1801438
  34.3387151  43.3830595  38.5798264  43.7740278  24.2147017  40.1733398
  43.6228514  24.6475887  41.0135746  44.7170877  24.0519381  40.1540184
  29.7648907  17.5832975  34.0202999  30.1417398  17.2975898  34.8525190
  30.3721881  18.2495534  33.6985493  13.8422132  21.4504242  44.2159557
  13.1472886  21.9855118  43.8325644  14.1612875  21.9667053  44.9561453
  59.0288514  93.3079594  82.9310122  58.7672550  94.0214294  83.5130420
  58.2758934  93.1815117  82.3536935  14.1124189  25.3385258  64.1039419
  13.8203931  24.9683285  64.9369526  15.0512886  25.1542115  64.0759468
 104.0959509  12.1364951   2.3103608 104.4588323  11.2608230   2.1771388
 103.8445707  12.1536434   3.2338029  26.1530447   2.0566057   0.5270031
  26.2903261   3.0018163   0.4640550  26.2985253   1.8544777   1.4512387
   8.3251655  56.3766146  30.4330802   7.4048465  56.4132500  30.6936622
   8.3046442  56.4066792  29.4765735   8.7796766  13.8318586  44.0453386
   9.6327114  14.2395961  43.8959646   8.1519079  14.4399452  43.6549997
  19.6968925  38.8945818  45.9837627  18.7851155  38.7261796  45.7459879
  19.7957289  38.4984517  46.8495226   8.0876034  26.3103199  51.8448257
   7.9364288  26.8958020  51.1028099   8.7521070  25.6957269  51.5334702
  24.3459177  26.2643719  18.2403958  24.1898918  25.4568791  18.7301338
  24.8414397  25.9855270  17.4703717  34.7311854   5.8668363  46.4428616
  35.0529599   6.6647756  46.0233545  34.3751049   6.1634374  47.2803974
  12.7414799  44.2572165  23.7756252  12.9212284  43.6129284  23.0909252
  13.4097040  44.0924931  24.4408870  56.8974161  21.0843706  44.5673084
  57.7488804  20.6638312  44.6872425  57.0088577  21.6339207  43.7915421
 112.3980845  82.3844452  13.4693146 111.6327084  81.8799419  13.1938028
 112.9417075  82.4432011  12.6836598  56.8586969  19.6240211  25.0611854
  56.7411852  19.1519713  24.2368126  56.0961580  20.1997900  25.1182914
  34.0759659  14.4629884  69.0469694  33.8931179  14.6382380  68.1238842
  34.4419575  13.5785568  69.0549231  43.2443285  46.3357449  45.0901508
  42.3176622  46.3832712  44.8550701  43.2761335  46.6317892  45.9998655
   7.4197102  11.4837646  28.5979176   7.9012406  11.8706870  27.8667188
   7.2924984  12.2078848  29.2108607  30.5433607  26.5108633  30.1408005
  31.4453483  26.3462543  30.4156709  30.5446434  27.4222898  29.8483419
  38.6949110   3.3369246  50.5258274  38.6878896   2.9021394  49.6730995
  38.0060792   3.9985853  50.4629898 110.7918514  82.3849602  45.9912968
 111.2062443  81.7318435  46.5551662 110.4985703  81.8896384  45.2265263
 108.8959511  24.6179795  80.8894539 108.6425181  23.7507915  81.2056637
 109.1864343  24.4693398  79.9895906  26.3328147  31.3439393   4.8369500
  25.5862403  31.9184875   4.6673793  26.8971181  31.4522314   4.0714002
  32.2035480  39.2368531  40.1482487  31.5662146  39.5181108  39.4917965
  31.7665744  39.3877816  40.9864044  17.1950579   8.9251631  21.1983800
  16.6857815   9.6026796  21.6431713  17.6526713   8.4676856  21.9037414
 112.9416860 103.4464837  51.2611151 113.4148611 103.7160386  52.0483112
 112.8377808 102.4997355  51.3565254  18.6368275  50.8064651  21.7071438
  18.6460841  50.9313345  20.7581687  17.9373991  50.1706982  21.8582535
  17.2818756   5.9449440  20.6283021  16.6472602   6.6614485  20.6175637
  17.3246574   5.6766200  21.5461278   9.1592497  21.6204238  46.8873835
   8.6649573  21.5322185  47.7023220   9.4932151  20.7404113  46.7133760
  32.8946161  20.7666826  17.6060855  32.4986720  20.6739187  16.7395675
  32.1700215  21.0295606  18.1736159  99.3927134  93.6876304  56.2145424
  99.9237908  93.5817070  55.4252577  99.7810853  94.4371779  56.6657352
  12.9307199  43.2510376  57.0755720  13.2227373  44.0100813  56.5707779
  13.0968511  42.5033140  56.5015125 115.2958198  43.2033014  14.9484777
 115.1958392  42.2523403  14.9048245 115.9692962  43.3430195  15.6141663
 116.1230279  34.2515731   5.7775134 116.6897993  34.1328096   5.0153470
 116.7268021  34.4182396   6.5013301  70.5052335  91.1291807  72.2623351
  70.5813915  90.1936668  72.4500754  70.4980380  91.1818617  71.3066128
  24.5142865  17.5478923  50.7382393  24.6841264  18.3155978  51.2841511
  23.6900091  17.7472699  50.2943420   4.1022202  26.4696193   2.2041938
   4.8957992  26.9076467   2.5117591   4.0861544  26.6369915   1.2618771
  24.7704196  27.4853420  35.9715581  24.4155049  28.1748247  36.5327024
  24.4687295  26.6705823  36.3732839  49.6497488  36.8769550  31.8598533
  49.0164375  36.3014412  31.4309764  50.4649830  36.3753510  31.8636918
  93.9954586  46.4521027  24.8766470  94.4689412  46.4546347  25.7085371
  93.0792780  46.5808916  25.1221228  21.9345307  24.6774626  36.6134977
  21.3531828  25.2758718  37.0827222  21.4536762  23.8503337  36.5839958
  34.4251633  30.5961847  50.5923033  35.3605890  30.7736969  50.6907892
  34.3840885  29.6889949  50.2897310  95.1414724  23.8572621  38.4601426
  95.8402391  24.2794394  38.9598656  94.7279663  24.5718908  37.9758382
 114.8865987  55.0568056   3.2643154 114.0314425  54.7919941   2.9254743
 114.7583456  55.9580183   3.5602766  45.4262447  57.5742579  33.3022308
  45.8868027  57.8425503  32.5071573  45.2116966  56.6530323  33.1554413
  23.1725454   2.2025451  67.1016407  23.0561447   1.2525511  67.0877123
  24.1187119   2.3268500  67.1761370   7.1720439  48.9705133   7.5634199
   6.9083244  49.8675203   7.3583305   7.8120708  48.7484837   6.8871808
  33.8453627  48.9764452  13.8789809  32.9856086  48.8597965  13.4746957
  34.4099903  48.3501434  13.4260237  46.8914270  53.4574366  45.4801893
  46.4364624  54.1439676  45.9679508  46.8387222  52.6868677  46.0455894
  60.8338785  31.3053203  39.1286755  59.9561596  31.3447666  39.5085263
  60.9461498  32.1520495  38.6966133  60.9484243  17.7200532   1.4742368
  60.5600500  18.5759723   1.6553397  61.2077999  17.3880339   2.3337248
  22.7729154  73.8716173  22.4228907  22.5913978  74.3421507  23.2364511
  22.4887085  74.4697523  21.7317390  58.0309064 103.4478038  92.4610001
  58.8597852 103.5351413  92.9317060  58.2866115 103.3176463  91.5478155
 118.0114919  30.0142026  73.2755947 117.1718459  30.0731325  73.7313986
 117.7792241  29.7964644  72.3728943  29.4338059  61.0808945  15.5551064
  28.5638571  60.7105160  15.7042372  29.7856402  60.5777979  14.8207116
  71.9042141  88.5117953  94.7521730  71.3120801  88.9844483  95.3371590
  72.7219183  89.0081638  94.7869098  22.4428957 108.0417864   5.7468337
  22.2157019 107.3760269   5.0976968  21.6411274 108.1640760   6.2552071
  33.0506182  42.4942064  11.9863021  33.7711048  41.8690729  11.9066942
  32.7195358  42.5930405  11.0936379  33.7258840  61.2069416   5.5332541
  34.0217876  60.7709646   4.7341320  34.5326090  61.4233398   6.0008025
  43.2134676  38.6876559  31.0580301  44.0310001  39.0916920  31.3489389
  43.2880878  37.7730846  31.3304734  79.9353766 105.5665500  29.8025799
  79.1909195 106.1099119  30.0609851  80.0973935 105.8011497  28.8888264
  50.9571218  68.5567284  34.8168325  50.4209280  68.1988382  35.5243969
  51.8047810  68.1232738  34.9159312  58.9579153  38.8945937  32.1702147
  59.3815565  38.4037995  31.4660287  58.4552574  38.2373476  32.6514602
  41.0333681  16.1686206   8.2119542  41.2580776  15.2723074   7.9622352
  40.7793283  16.5895343   7.3906565  30.6187552  51.0513686  88.7710962
  30.2958601  50.1652621  88.9347800  30.6128186  51.4711569  89.6313104
  95.5906010  44.4049883  47.2013378  96.3954353  44.0307713  47.5597048
  94.9344254  44.2589283  47.8827524  22.5766134  34.7034788  52.4914122
  23.1938696  34.6081305  51.7660618  23.0691338  34.4244289  53.2632875
 115.6467516  68.9515274  65.0366166 116.2031490  69.1869324  65.7790688
 114.8715908  69.5047002  65.1333478  76.9123220   4.6191391  24.7200489
  77.6662111   5.2080637  24.6875668  76.4223909   4.8129398  23.9209008
  38.9091134  38.5341311  13.8972986  39.4996953  39.0736175  13.3715630
  39.1916132  38.6797905  14.8001885  27.6191902  29.7816801  53.7640142
  28.3199954  29.1338229  53.6906242  28.0557394  30.5716801  54.0826941
 116.1059257  29.6234250  23.7769318 115.7052724  30.1000547  24.5039344
 116.2428504  30.2877283  23.1015158  48.9487553  47.1954441  35.7825565
  48.5908270  46.9909573  34.9186683  49.7414255  46.6625977  35.8456445
  52.7122974  15.4192150  24.2205954  53.1625319  15.9283650  24.8946047
  52.3512888  14.6670473  24.6897936  31.6095185  48.9727163  39.2395639
  31.2712359  49.0242100  40.1335144  31.0025358  48.3869362  38.7871599
  92.6637388  95.9226091  30.7659960  93.0458821  96.7557783  30.4902673
  91.7867173  96.1515207  31.0736704  22.8560686  65.1162529  43.1129265
  22.5968623  65.6324816  43.8761759  22.3475695  64.3086004  43.1861210
  18.0677187  20.8318329  62.0548582  18.2693982  21.3494587  61.2753582
  17.1593380  21.0526443  62.2605753  42.4531984  22.6713657  72.4463844
  41.6791868  22.9844570  72.9144812  43.1341028  22.6195884  73.1171417
  95.9473038  51.6051102  34.0468740  95.7237720  52.2549057  33.3805132
  95.1112461  51.3872385  34.4589186  32.6316381  58.2613087  24.3603349
  32.2843862  58.3395195  25.2488899  32.3423958  57.3978758  24.0652823
  56.7611408  27.0426083   4.5285970  56.3100433  27.0782399   3.6851081
  57.6810598  27.1986818   4.3150172  23.8514352  42.0165253   1.6709292
  23.7652683  41.1121464   1.9724445  23.2616591  42.5148392   2.2366849
 116.9040907 104.3621094  46.9801807 116.0185398 104.5256807  47.3046398
 116.9897092 104.9352456  46.2183285  84.5729394  81.0278697  69.7919035
  83.6788569  81.3506646  69.6794176  84.5350302  80.1141353  69.5092630
  31.7734456  30.4306102  51.1742830  31.3699079  30.6557393  50.3360081
  32.6841760  30.7112956  51.0847378  28.6418700  94.4047928  16.8515325
  28.7785292  94.4555759  17.7975643  27.8298163  94.8885345  16.7005336
  95.6032783 100.2641910  95.1828267  96.5443165 100.4030841  95.2895140
  95.4213125  99.4657510  95.6784250  26.9226313  40.6128597  38.6940289
  27.4623275  41.0458136  39.3554759  26.0469460  40.9770441  38.8235497
  26.5470076  37.4455953  39.7318912  27.4929714  37.4556398  39.5860124
  26.3752437  38.2357812  40.2440739  62.8237104  72.2128773   7.1080744
  61.9301414  72.4945736   7.3040617  63.0832291  72.7453613   6.3561797
  55.2043629  32.8464532  32.7975607  55.0116682  31.9305229  32.9979897
  54.4656324  33.3323860  33.1641388 112.7688892  71.6102409  53.1854725
 111.8957139  72.0006561  53.2225323 113.0060442  71.4664602  54.1016150
 101.0165579  99.4884151  93.6590415 100.9322054  98.7877887  93.0123293
 101.9606954  99.6135467  93.7548390  46.2695503  60.1592350  28.4519339
  46.2650490  60.4834747  29.3525338  47.1111107  59.7119856  28.3626008
  74.7125149  34.9288201  34.6326852  75.5056524  34.7015381  34.1473913
  75.0305033  35.3902245  35.4087114  15.3202915  42.1330929  27.3205686
  14.3768430  42.0888805  27.1650624  15.4915500  43.0590057  27.4925828
  58.5472536  50.9926939  37.7255630  58.5068989  50.6172323  36.8460011
  58.1582355  51.8623495  37.6328325  23.7061667  35.4029584  24.6046948
  23.8965511  36.3269997  24.4430447  24.5304966  35.0421000  24.9310303
  26.5277624  27.0206952  54.6415091  26.1854315  26.9239521  53.7528706
  26.1236548  27.8247929  54.9676323  22.6726961  55.3845596  36.5926027
  21.9564342  55.9702206  36.8379593  22.9971838  55.7370949  35.7639575
  31.5134287   4.3451172  17.4184084  31.9961143   5.1035595  17.0897579
  30.8634186   4.1625047  16.7399013  31.9197965  46.3829613  14.4719589
  32.3384809  47.0152950  15.0559855  32.6290321  45.7990170  14.2032087
  46.8293905  45.6296158  37.0499587  47.4163008  46.2317753  36.5926051
  47.3693562  44.8603439  37.2313213 112.6507009  37.0876978  89.4822213
 111.7257107  36.8497561  89.5455101 112.6454080  38.0346583  89.3426373
  38.5721493  39.6372819  38.0380869  38.3628631  39.0290523  38.7469506
  39.5112062  39.5218706  37.8928876  47.3718452  54.6233273  35.8680344
  47.2322226  55.2350330  36.5909100  46.4913750  54.3435478  35.6175709
  31.6969705  31.9061875  16.5051401  32.4192810  32.3379707  16.0490024
  30.9953117  31.8627262  15.8555114  55.4204130  51.4199781   0.9584943
  55.4425621  52.2211695   0.4351999  54.8613167  51.6366196   1.7046252
  14.9493253  15.0350726  10.5491817  15.6331050  15.6594062  10.7918429
  14.9119675  15.0801206   9.5937717   1.0301447   0.8984289  31.6832089
   1.5050921   0.3537950  32.3109293   1.3217252   1.7905100  31.8713689
  38.1750536  25.2343869  50.5955458  38.8393903  25.2716637  51.2836599
  37.3438787  25.1837158  51.0675764  37.8362107  46.2199354  12.3197937
  38.2578754  45.7143021  13.0146050  37.7129006  45.5921555  11.6078115
  29.4586277  16.6440511  58.4516525  29.1854501  16.5507901  59.3642902
  29.8571420  15.8015049  58.2336330  31.6925788  34.5608377  58.5931730
  31.4789510  33.8587999  59.2077780  30.9144735  35.1182795  58.5864353
  38.0059266  44.7626734  24.4742298  38.9598441  44.6838999  24.4660020
  37.7574110  44.7601557  23.5498571  10.1554036  38.8205314  25.2804875
  10.1371861  37.8767204  25.1219916  10.4758883  39.1950464  24.4599628
  39.8080587  17.3095369  12.6838017  39.6604156  18.0878758  13.2210362
  40.5633640  16.8806303  13.0860281  43.4799719  36.1455894  32.4617171
  43.7150669  36.1609244  33.3894706  42.7993250  35.4755807  32.3981547
  31.7797589  20.8097148  28.4963679  31.8151307  21.7324018  28.7486124
  30.9061718  20.6971717  28.1216526  36.4002609  54.8654747  61.2714386
  36.9137955  54.0689707  61.1369133  36.3898849  55.2913904  60.4142809
  46.0514450  39.7012758  35.1133084  46.0495949  40.3172064  34.3806028
  46.7780972  39.9887943  35.6660652  84.2573643  56.9479084  45.1543617
  84.8034382  57.7022028  45.3758812  84.8818684  56.2517309  44.9504757
 110.2107944  10.2442908  32.4687123 109.9348016  11.1484265  32.6190424
 109.9157710   9.7712886  33.2468271  39.1810918  20.7790589  12.8094471
  39.9099088  20.6269073  12.2078609  39.3634462  20.2082038  13.5558414
  40.6178904  58.5998106  19.6625876  40.6355286  58.1380844  20.5008769
  40.5048990  59.5205498  19.8986161  26.3413334  37.9685283  32.9331875
  26.4571476  37.1697545  32.4186182  27.0566964  37.9497361  33.5689044
  24.1848755  42.7072144  29.9942231  23.7405109  42.7124643  29.1464329
  24.2501569  41.7804718  30.2246881  49.9476671  57.3634005  20.7876205
  49.5203114  58.0834341  20.3237748  49.2254066  56.8417215  21.1375070
  58.4528732  52.9270172  28.8032937  58.3086395  53.8719130  28.7523770
  59.3180656  52.7955532  28.4154844  14.2941022  79.0453482   9.8963022
  13.8853931  78.3252621   9.4160247  14.7296512  79.5664215   9.2217565
  23.5087395  30.2950525  18.7316287  24.3771625  29.8936248  18.7011409
  23.6421871  31.1193132  19.1996217  21.1259460  60.4213905  62.6883411
  20.9856534  59.4822836  62.8092766  21.3327765  60.7474136  63.5642195
  38.7742591  57.7828407  59.6422958  38.1399393  58.4994745  59.6598339
  39.4722199  58.0662632  60.2328491  70.6041574  14.1647744  16.3594341
  70.2460384  14.5170915  15.5446625  70.3516388  14.8021626  17.0274186
  11.9977558  50.5570459  28.0705857  11.4923525  51.0252333  28.7351179
  12.8940511  50.5580282  28.4065676  44.2701626  42.1104050  38.6134028
  44.1006708  41.2788773  39.0561914  44.6727562  42.6614618  39.2845869
  20.7422423  29.6937847  49.2270565  21.3341069  30.0230169  48.5506439
  20.6761384  28.7551832  49.0512991  59.6443796  49.8749447  17.4518764
  59.6443224  50.5055428  16.7317522  59.2584038  49.0832758  17.0770228
 103.6880512  54.9291515  47.2350025 103.2688971  54.3239069  47.8467369
 103.1400473  54.8949862  46.4509392  39.1583586  40.1403522  -0.2902846
  39.0533423  40.7442713   0.4448920  39.9568963  39.6529794  -0.0877053
  42.7791023  43.0047226  41.8474436  42.0601559  43.2105112  41.2499475
  42.3852634  42.4362755  42.5092554  44.7271395  65.0888443  30.4437923
  43.8745356  65.4572058  30.6753206  45.2106285  65.8232784  30.0655389
   5.8145183  14.3707192  19.8440897   5.4802889  13.6401224  19.3237519
   5.3070438  14.3390810  20.6550765 106.3848992  26.7262602   4.4786534
 106.2505419  26.5286732   5.4055512 107.3057385  26.9806838   4.4190252
  18.8131475  40.6858397  21.4700246  19.7187054  40.6843424  21.7801762
  18.8433731  41.1701202  20.6449246  52.9248381  45.0074053  21.5220165
  52.5358200  45.1402330  20.6575751  53.5343933  44.2793703  21.4010477
  45.4923677  21.5140367  34.3071938  45.6469727  21.8760347  35.1797104
  44.7250795  20.9517503  34.4136786  23.9939928   3.8146424  11.4127231
  24.3573833   4.6722254  11.1919713  23.7232542   3.4456274  10.5720317
  35.0953293  41.0539722  42.7146387  34.5688581  40.6438971  43.4008598
  35.3198671  41.9150209  43.0673647  40.3926468  50.7855415  24.7542953
  40.0168562  51.6422796  24.9568081  40.1045179  50.2218533  25.4722595
  17.3503232  11.1669970  47.0028591  16.7449558  10.6503558  46.4710283
  16.7839599  11.6982424  47.5625372  19.9505293  27.0614505  49.5812893
  20.4176140  27.0430136  50.4165840  19.0394425  26.8803716  49.8122883
 108.0120433 108.6655388  31.4176559 107.9149688 108.9084149  30.4968858
 108.8927806 108.2952447  31.4761162  53.7249136  45.3826332   1.7618532
  53.3874226  45.8572435   1.0021974  53.8778114  46.0610533   2.4195781
  92.9412790  26.0717058  19.5983279  93.2921643  26.3864350  20.4314280
  93.6905451  25.6684422  19.1599071  26.8003249  49.4850302  36.9848800
  26.3168192  48.7810469  37.4171567  26.3894868  50.2886391  37.3037171
  40.5749989  17.1936679  22.2472811  40.7153082  16.2683117  22.0466328
  39.8544979  17.4563742  21.6744828  48.8723993  72.2565269  22.9119039
  48.5131359  72.9962778  22.4220800  48.1381035  71.9373322  23.4364581
  23.8143849  19.4916165  59.1698265  23.4356308  20.3700566  59.1363525
  23.3043242  18.9865768  58.5365772  29.8460889  32.8254604  37.9959154
  29.2877197  33.3464193  38.5730290  30.5351305  32.4891353  38.5689259
  76.3077409 108.2441180  72.9226425  76.1985380 108.7574094  73.7231663
  75.4390866 108.2397073  72.5205853 115.9222999  41.2441874  11.1841154
 116.0871659  40.9876728  12.0914471 116.5269840  41.9692850  11.0265589
  48.6063099  39.2122841  20.0670004  48.1970787  38.3483148  20.0188661
  49.4806719  39.0439153  20.4182482  39.6171355  51.6696644  52.8581524
  40.3218508  51.3621759  53.4282970  39.9862909  51.6257811  51.9760942
  80.7667446  47.9004097  51.4057159  80.9144974  48.3506346  50.5740309
  80.8295631  48.5904694  52.0660925  48.8145971  63.1098127  36.7586684
  49.7052050  63.3042288  36.4666939  48.6433649  62.2261047  36.4331317
  41.3253450  56.0746813  25.4347181  40.4624939  56.4443636  25.2474713
  41.7141676  55.9255171  24.5728612  23.4535909  52.6887655  64.9642611
  24.0741014  52.2996283  65.5805206  22.9363751  51.9489384  64.6458673
   1.4531077  37.2004986  46.8960810   1.3884814  37.8512359  46.1970854
   2.0191500  37.6083541  47.5514317  37.7421784  55.4036903  16.9133282
  38.6228204  55.7784128  16.9303262  37.6635766  55.0161457  16.0416281
  20.4224086  40.6903553  24.9620223  20.5830979  40.0161600  25.6222272
  19.8500288  41.3213491  25.3984427  29.8812509  31.4119673  14.4961691
  29.0580249  31.2721658  14.0282094  30.4955101  30.8019733  14.0877247
  17.7156365  46.6263866  62.0036459  17.7428925  47.2621346  61.2885857
  17.2238016  47.0665693  62.6968765  73.5411787  60.9084320  34.4547606
  73.0514240  61.6470194  34.8165083  74.4107533  61.2642431  34.2718077
  47.1444899  80.1498836  93.4937680  46.8455446  79.6762412  92.7175405
  47.7463323  79.5444577  93.9267549   9.4197071  61.1415005  22.3558235
   9.4110739  61.1111784  21.3991427   8.5122275  61.3263321  22.5977969
  24.8248315  59.0167236  22.9056001  24.5229220  59.4177055  23.7206411
  24.7438312  59.7117043  22.2523952  34.7090960  32.6411772  15.3593838
  35.4659843  32.1639752  15.6994271  35.0694942  33.4716129  15.0483787
 110.2225555 111.4536099  53.3097601 109.8310698 111.3039825  54.1703320
 110.0691999 110.6385404  52.8318739  64.7152758  54.5481777  27.7744985
  63.8567686  54.8535967  28.0676103  64.8346758  54.9562025  26.9168925
   3.3724293  60.1951885  24.1092515   3.8202015  60.3462744  24.9416614
   2.5990894  60.7579517  24.1476870  68.5478306  64.2525053  36.2551904
  68.5378647  63.6517239  37.0003057  68.6892176  65.1152277  36.6450024
  52.5711012  65.4247904  36.9882059  52.3399019  65.7913446  37.8416800
  53.5097980  65.5912590  36.9023728  33.8867331  11.0602915  36.4858866
  33.6535954  11.0894585  37.4138021  34.8400331  11.1460078  36.4756370
  43.9182520  27.4941730  64.0769911  43.4195375  27.9757524  64.7369862
  44.6174288  27.0655990  64.5706558  37.8664732  27.3297787   5.9165108
  37.2540116  27.3856521   5.1830262  37.3418951  26.9893003   6.6411644
  23.7188387  44.4812298  56.0387468  24.0228701  44.4776821  56.9463682
  22.8356004  44.1146612  56.0805798  21.3724399  33.7331724  16.9660020
  22.0147085  33.0243897  17.0027816  21.3136148  34.0500927  17.8672969
 102.3390401 110.6914858  36.5086150 102.6031602 110.0655604  37.1829224
 101.3968552 110.5542193  36.4102483   2.9664165  40.4114342  40.7896137
   2.0662409  40.3456259  41.1083412   2.8766569  40.5821419  39.8520470
   4.3255070  23.3838296  16.4754057   5.2279454  23.4209752  16.1584568
   4.3718815  22.8493667  17.2681427  76.9798183  45.9450102  43.4557724
  77.7562714  46.2381029  42.9788589  76.3463593  45.7279587  42.7717733
  21.9695306  16.7213786   9.2366427  22.3541093  16.1716211   8.5539287
  21.0253644  16.5957928   9.1417211  63.7389851  48.5026503  28.7691283
  63.1013489  47.9428482  28.3261013  63.2620096  48.8643885  29.5160341
  46.4976501  49.8416185  35.8309627  46.8600130  49.1834021  36.4239812
  47.2628403  50.3077745  35.4941964  28.4102511  60.0292397  19.7156656
  28.0011892  60.2675772  18.8837433  28.5888124  60.8667421  20.1433825
  54.0048552  38.0519819  22.4126148  53.8303661  38.1180382  23.3514547
  53.2557154  37.5693989  22.0631385  42.1994066 102.2169590  19.6885622
  41.4616299 102.8133965  19.8157322  42.0854759 101.8812275  18.7994421
  56.4686871  50.2538157  21.5945888  55.8143473  50.7715559  22.0636439
  57.3063374  50.6452465  21.8422985  52.0020103  31.2430549  44.2939472
  52.3130941  30.6862974  45.0077248  52.7429104  31.2946439  43.6900902
  49.4181204  40.3268242  22.9219007  49.6744299  39.4595027  23.2354116
  50.2430868  40.7471657  22.6790500  49.8068190  26.3996077  48.3126831
  50.1267242  26.4602518  49.2127991  48.8611841  26.5289426  48.3853483
  23.9397001  28.5682034  58.0344343  24.0268850  27.8549790  58.6668444
  23.3154774  29.1712427  58.4380722  25.0579619  48.4862804  28.5554194
  24.8798394  47.6537514  28.1179237  24.3608546  48.5688448  29.2061567
  62.4593782  17.1972847  30.1889658  62.5009441  16.4982176  29.5364261
  62.9353714  16.8495727  30.9431267  28.5190487  46.2174749  60.7272959
  27.9144025  45.8544922  60.0800848  29.2612672  46.5324926  60.2114439
  26.7701149  48.5333824  59.2802191  27.6757431  48.8159513  59.1528606
  26.7665362  47.6137877  59.0145826  52.0098877  52.8957176  15.1231992
  52.3435402  53.0727339  16.0027289  51.3917780  53.6067152  14.9539196
  60.7745218  76.3947010  32.5104690  60.2622414  76.9287729  31.9033670
  61.4730549  76.9763756  32.8103733  37.6080585  43.1026745  31.3886285
  37.6568747  44.0215874  31.1251140  37.6339650  43.1261158  32.3451900
  34.2408228  28.2013535  37.7925992  33.8135886  29.0213180  37.5448823
  34.2931628  28.2375622  38.7476802  44.7844362  30.9253025  37.4166226
  45.0180960  30.0994086  36.9929123  44.8304987  30.7352114  38.3536267
  51.0625410  37.1900368  29.2697358  50.1599598  37.5084186  29.2841864
  51.5925264  37.9778981  29.1488171  56.7539215  18.5803902  58.1199408
  57.5527716  18.3859408  58.6101055  56.0435581  18.3291149  58.7102604
  48.8963842  55.8496952  28.5103774  49.1465044  55.1666403  29.1325545
  47.9421711  55.7917690  28.4619021  28.9910531  65.3784847  24.2273784
  28.3373308  65.2903461  23.5337567  28.5448098  65.0732422  25.0172687
  48.2943773  37.4023104  52.5179911  47.9187822  36.5320730  52.3843956
  47.7535439  37.9815912  51.9811869  75.8140177   4.2645310  63.7113646
  76.0929949   4.7161816  64.5078686  76.2722589   4.7197150  63.0049255
  50.8173752  36.5190578  38.8703465  50.1905251  36.2266850  39.5320177
  51.6591930  36.5291476  39.3258333  24.2660832  82.7981853  16.9329309
  24.8352146  82.0572662  17.1411788  23.4866071  82.6601124  17.4710608
  59.5752573   0.0282040  17.5254869  59.5536184  -0.5823017  18.2624042
  59.0639067   0.7807615  17.8228259  17.2632277  26.7301846  50.0937986
  17.2188985  25.8119297  49.8271990  16.4283097  27.1025348  49.8100758
  39.2760420  34.3154287  46.6671228  40.1614857  34.5630360  46.9334078
  39.3150187  34.2779064  45.7114506  44.3288326  62.7660704  32.0150900
  43.6898470  63.0648422  32.6621318  44.5269966  63.5457850  31.4964318
  25.0273538  55.3397131  50.4839087  25.0316310  54.8106146  49.6862459
  24.9720955  56.2429476  50.1719093  25.1967192  65.7412815  25.2977371
  24.5214510  66.3898897  25.0988626  25.4484391  65.3882313  24.4443750
  30.0031376  67.8599405  14.4286919  30.7270885  68.4844112  14.4752312
  30.2581120  67.1530342  15.0215662  44.7989750  15.4639387  60.7327747
  44.1937304  16.1769819  60.9364510  45.2899265  15.7762408  59.9727345
  25.9481025  34.2587113  37.3887420  25.8403945  33.3736348  37.0405054
  26.7226839  34.2032909  37.9483700  23.0604935  33.5478544   1.3337198
  23.2801342  33.6412692   0.4067551  22.2528028  33.0341959   1.3379003
  16.0021555  23.7332702  25.8788276  16.0083079  23.7738681  24.9225092
  16.9271410  23.7424040  26.1248994  16.9598293  42.6937103  49.1469765
  17.7389872  42.1377039  49.1470909  16.4100993  42.3355436  48.4500265
  43.6704206  42.3786592  46.5365553  44.0494585  42.9756784  45.8914757
  44.3480253  42.2884274  47.2065926  13.0492473  22.1293688  30.8996677
  12.2872281  21.9946861  31.4630675  12.9368556  21.4973402  30.1896405
  73.1757975   0.1839462  40.4440355  73.4838295   0.7418562  41.1582375
  73.8387918   0.2818659  39.7605991  26.6499543   9.1928107  38.4120846
  27.5779438   9.1534030  38.1807566  26.1916280   8.9638603  37.6035357
  59.3328142  24.9129725  38.4508276  59.8917341  24.1572714  38.6318111
  59.1936302  24.8866868  37.5041652  53.9151525  21.2473488  28.4038186
  54.2625475  21.0507965  29.2738295  52.9646730  21.2181616  28.5132360
  37.6894450  38.9130259  33.4618473  37.7549553  38.7441611  34.4017529
  38.0466413  38.1254458  33.0515337  47.9636574  49.7331142  45.5407476
  48.7785721  50.1364279  45.2416039  47.6509237  50.3121328  46.2358475
  68.7085009  39.7109103  50.5755472  68.1522608  39.2649031  51.2142229
  68.1903315  39.7187448  49.7707653 116.6191265  19.4919193  60.2542257
 116.4539747  18.9172912  61.0017252 117.3880692  19.1143370  59.8271513
  26.6424918  64.0988922  26.9815397  27.2989368  64.6100521  27.4548507
  26.0976124  64.7539663  26.5454030  24.0870166  17.6934433  27.7270651
  23.4533453  18.3798230  27.5183177  24.9103999  18.0054033  27.3516297
  32.6991343  57.2972679  28.5505939  33.1538367  57.2459459  29.3913341
  32.4297166  56.3969612  28.3686614 117.8368439  31.3045669  13.6443269
 116.9286156  31.0503721  13.4808064 117.8443637  32.2546101  13.5277462
  61.1348588  92.5804489  85.2162555  61.6062290  92.0927160  84.5408609
  60.5480868  93.1585663  84.7286966  46.4339352  54.1901922  38.8168836
  45.5991268  54.4586945  39.2005873  46.9300175  55.0040960  38.7291455
  18.0987406  42.2102022  29.1962004  17.7587748  42.8489876  29.8227835
  18.8274920  41.7906094  29.6534729  41.5788126  58.1559324  29.5739579
  41.3581324  57.2267914  29.6389723  42.2702980  58.2838821  30.2233481
  76.9692135  72.2196198   1.8264940  76.8252802  71.2752056   1.7665140
  77.9172134  72.3118591   1.9214809   5.0398749  33.2227826  69.8394156
   4.3132269  32.9896188  69.2616177   5.7793236  33.3656192  69.2486143
  47.8534079  34.5330739  30.8254719  47.5668907  34.9189711  29.9976897
  47.0985603  34.6254492  31.4067674  49.9011469  70.6311178  30.6955981
  48.9823103  70.7760668  30.9213495  49.8713160  70.1091385  29.8937988
  22.2545958  46.1794233  11.1604965  21.3101578  46.0362482  11.0991240
  22.6225376  45.3035259  11.2773311  28.0456471  17.9167056  11.1427760
  27.8515625  17.7160680  12.0583677  27.9948187  18.8711381  11.0907555
  70.6016970  35.5509615   7.7200156  69.9245548  35.4068899   7.0589912
  70.1979971  36.1475587   8.3503562 108.2944954 109.4619093  28.8699317
 108.8284291 108.7713058  28.4772325 108.1936730 110.1115463  28.1742048
  19.5443618  34.5944738  43.9965677  19.1824996  35.1349401  43.2942963
  19.0768147  34.8780680  44.7821903  11.1350238  56.9829655  46.0063124
  11.1210203  56.7354870  45.0817633  10.4467678  57.6431656  46.0879898
  70.0426102  68.5224962  28.9802694  69.1396284  68.8210297  28.8719702
  70.4174900  69.1223764  29.6251273  81.0042078  94.5512956  96.4198684
  81.6199238  94.7307461  95.7092860  81.2244064  93.6660164  96.7097375
  42.9061270  75.1099253   1.6926156  42.2919750  75.7963181   1.4320239
  43.7678623  75.4628325   1.4710274  63.2484865  74.3269920  31.4424515
  63.4674644  74.7168398  30.5961061  62.6701260  73.5954237  31.2267137
  33.1421280  50.0393152  54.3452644  33.8695598  50.4365921  53.8664675
  32.9702926  50.6454134  55.0659227  52.3749447  34.9747968  28.6712766
  51.7191029  34.3970203  29.0615058  51.9575500  35.8360910  28.6575246
  47.0050001  52.9353905  55.8191729  46.8163729  53.2949877  54.9523735
  47.9523897  52.7987003  55.8207941  47.0656698  10.1733588  79.7450068
  47.0663756   9.6024607  80.5133226  47.1952742  11.0528086  80.0999704
  49.0387344  53.6248827  15.3149223  48.2790375  53.1949806  14.9221456
  48.7103415  53.9863348  16.1381721  66.3069677  60.4243755  16.4607918
  66.3159847  59.7598076  17.1496284  67.2263670  60.5271530  16.2150919
  49.1531420  43.5249472  25.4378915  48.4014797  42.9393291  25.5289030
  49.0123415  43.9670420  24.6006560  42.4410915  54.6199036  34.8828983
  43.2404995  54.3038845  35.3039837  42.6089334  55.5473471  34.7158360
  78.3671999  35.9304929  21.7580724  78.1279755  35.7024932  22.6564169
  78.5532284  36.8688798  21.7905664  44.7471952  45.8168983   7.0359540
  43.7941504  45.7819986   6.9539499  44.9027300  46.4082718   7.7723753
  42.1466064  66.1266327  30.6272817  41.8687963  65.5092573  31.3039660
  41.7441273  65.7979727  29.8233962  49.7626257  41.5432739   4.2454079
  49.7097540  41.9466400   3.3789599  49.0816689  41.9816637   4.7556481
  28.0420971  49.7274637  42.6565170  28.6129141  50.0811720  43.3386421
  28.3184028  50.1753426  41.8569613  67.0727158  54.9512005  19.0133810
  67.6693010  54.2959213  18.6515427  67.6125813  55.4573154  19.6205235
  52.2393656  41.2549448  32.4071622  51.6159248  40.6396723  32.0211649
  51.6927004  41.9394732  32.7929187  17.6696718  76.0820341  20.2803135
  18.6045825  75.9947538  20.0944233  17.3541081  75.1810074  20.3496099
  44.9511433  60.0870800  15.0965953  44.6000624  60.5075264  14.3116105
  44.3321848  60.3181267  15.7892287  76.4416122  54.5561361   2.8611791
  75.6050062  55.0210810   2.8734308  76.9409323  54.9798965   2.1630856
  51.4845753  32.4263310  30.2044225  50.7782173  32.3431849  30.8450317
  51.1060953  32.1022034  29.3871546  44.2423773  46.1504126  31.0084367
  43.7687826  45.7966518  30.2555799  45.1074743  46.3727045  30.6643081
  17.9774106  48.1150675  24.5524883  17.9151678  49.0096712  24.8872137
  17.6815891  48.1780148  23.6443257  40.7647991  63.0593920  39.0597272
  40.1898718  62.5326729  39.6149325  41.6292191  62.9752922  39.4621396
  25.2728677  43.5250711  45.6924343  25.3337336  42.8392315  45.0274897
  24.3358541  43.7072039  45.7635927  34.5473433  39.9637508  46.9185829
  33.8122535  39.9732399  46.3055706  35.1208782  39.2694974  46.5940762
  42.4334812  52.2372770  29.1557407  41.5272903  52.0437193  28.9157701
  42.6541948  53.0180550  28.6478972  32.3133087  32.6883984  13.2891309
  33.1868839  32.9170728  13.6066353  32.3548651  31.7450762  13.1321263
  63.4949064  63.3684254  20.5350089  63.2001257  63.5369492  21.4299607
  62.9285049  62.6616383  20.2253675  29.1209173  80.8734322  13.0396664
  30.0538611  80.9727955  13.2293367  29.0339518  79.9714756  12.7312112
  15.5395937  61.6297626  67.7378654  14.8740077  61.9707489  68.3353233
  16.2186301  61.2761641  68.3124161  47.8069735  62.9860115  31.9499516
  47.1842051  63.4488821  32.5104332  48.4992695  62.7003336  32.5460649
  75.7384491  77.4992895  35.2361012  74.8303938  77.2513628  35.0623083
  75.9983683  76.9523668  35.9774160  46.9702482  34.5652366   3.4019569
  46.1233997  34.7461700   3.8098037  47.4811363  35.3615284   3.5473731
  50.8983135  48.6919069   9.5029324  50.8241606  49.6437073   9.5722920
  50.2175474  48.4435701   8.8775408  48.0562019  54.4315910  41.5861559
  47.5579023  54.0559912  40.8603096  47.4144983  54.9451208  42.0768070
  57.4180365  42.0610285  58.7992620  56.4977884  42.3149204  58.7291384
  57.4407196  41.4417648  59.5288038  52.3338699  71.6231775  40.0916624
  51.6339159  71.4293480  40.7151413  52.0866156  72.4645138  39.7079277
  26.6100621  54.6387339  38.7177563  27.0401859  55.4781437  38.5546112
  27.1719241  54.2021465  39.3580174  27.8460789  64.0676737  14.5342040
  27.7897143  64.8006821  13.9212155  27.7701378  63.2884884  13.9834452
  67.3870611  63.5724306  32.9973388  66.5118694  63.4821653  32.6203465
  67.5073814  62.7773190  33.5165238   9.0454811  23.3138800  23.0649781
   8.4819150  22.9353929  23.7397909   8.5057074  23.9883828  22.6527643
  36.1193395  64.9994326   2.8923157  35.6622267  65.7517719   2.5164676
  35.6213236  64.7863674   3.6815038  44.1415167  49.6618652  38.8751483
  44.2620277  48.8011074  39.2761517  45.0229883  50.0328302  38.8348007
  48.9458609  58.4565878  45.2027702  48.1981373  58.8085842  45.6857300
  49.4312525  57.9466009  45.8512592  33.2747841  51.9725561  25.7373285
  32.8567505  51.7861319  26.5779996  32.5478816  52.1721983  25.1474261
  48.1004143  56.0852766  24.9490690  47.4865150  55.9398031  25.6689334
  47.8637457  55.4269695  24.2957306  31.4432478  56.2906933  20.9452057
  31.4062881  55.3573275  20.7361746  30.5316544  56.5804386  20.9094000
  29.1374302  51.6477776   5.6949300  29.1528940  51.3700199   6.6108131
  29.3793416  52.5735283   5.7212824  51.5316582  71.3876867  10.6918776
  51.4481258  71.5234137   9.7480386  52.3745298  70.9463120  10.7967103
  40.8792591  30.9398866   8.8850325  41.4432335  31.1146069   9.6384501
  40.1026869  31.4784241   9.0371573  59.9587536  43.7120104  46.5459156
  59.5140696  44.2956781  45.9312487  60.8886385  43.9091969  46.4334106
  33.9012814  55.3605604  24.9091649  33.8685656  54.4519472  25.2084708
  32.9873419  55.5906773  24.7418642  68.0271149  65.6628084  16.1358798
  68.1696606  65.1588249  16.9370747  67.7513790  66.5267229  16.4422250
  67.8381014  68.3424997  16.6038036  68.7449932  68.6482573  16.5869081
  67.3649788  69.0224838  17.0833910  48.6452389  60.1469755  26.2147975
  48.8567257  59.4675446  25.5745816  48.7692785  59.7229052  27.0639205
  43.0106449  49.0467691  18.2693100  43.1997252  49.5722008  19.0467417
  43.8364601  48.6046457  18.0723786  43.9276981  57.4800873   4.3498787
  44.6069527  57.0207787   4.8437202  43.5980701  56.8274879   3.7320626
  72.9669476  63.6993027  21.6842008  72.5554371  64.5349407  21.4637446
  73.8920498  63.8247490  21.4728189  49.8003769  72.7136135  12.4573445
  50.4608727  72.2566462  11.9366205  49.5782804  72.0981646  13.1560063
  48.8253498  64.4296598  41.6557264  48.2658386  65.1461649  41.9553900
  49.4784307  64.8527861  41.0983372  19.9653959  75.3035307  19.1731930
  20.0503922  75.5228090  18.2453322  20.8580089  75.3569984  19.5146811
  51.5790939  78.6726761  29.9179244  51.3704252  78.0479145  29.2233992
  52.4931431  78.4912300  30.1366162  51.7890310  47.1511841  44.5146036
  51.0463953  47.2866344  45.1031399  51.7066050  46.2408209  44.2305708
  38.8106966  48.1717062  14.2876601  38.2691669  48.3966923  15.0442052
  38.3164263  47.4890947  13.8338232   7.2486854  65.9397936  40.0547361
   6.7804694  66.5296125  39.4638753   6.5781677  65.6273746  40.6622171
  41.4359093  39.5979953  38.6886525  41.9230986  39.4069409  37.8871679
  42.0830727  39.5117903  39.3886352  37.0356727  38.7366176  45.9566593
  37.4632597  38.2130480  46.6343594  37.7572441  39.0930343  45.4384565
  47.6995945  43.5761976  47.5562859  47.0026875  42.9370975  47.7049398
  48.3130741  43.1301451  46.9724083  46.1395979  63.8497210  34.0702271
  45.4669142  64.2500353  34.6211147  46.9111013  63.7971258  34.6343637
  34.0830731  58.2708883  17.9288459  34.2879438  58.9277315  17.2634006
  33.1473398  58.3832550  18.0961990  49.8939800  59.7778940  42.8837585
  49.9502134  59.1561079  43.6093283  49.1832161  60.3698015  43.1301165
  74.2021132  90.8708286  14.2271948  74.4126225  91.4470482  13.4924209
  75.0395870  90.7302666  14.6689069  31.1094141  58.8318539  26.7932463
  31.5543914  58.4590960  27.5543499  30.2548122  58.4008932  26.7806029
  32.0847464  63.5459995  39.1322398  31.1848783  63.3770037  39.4113684
  32.2878551  64.4106293  39.4891572  36.3203645  57.6949453  16.2546074
  35.4035687  57.9123640  16.0859370  36.3083649  56.7647314  16.4799869
  66.9038105  76.9391012  31.4147353  66.9334507  76.7644405  32.3553991
  66.7007637  77.8723192  31.3506889  32.2828507  18.9659786  21.3002396
  32.2968292  18.1433964  21.7895198  33.0446529  19.4485462  21.6212034
  89.7193336  49.9901009  36.2212944  90.0279903  49.0849829  36.1798406
  88.8127804  49.9481821  35.9169292  60.3134346  49.7976112  30.6111312
  60.7509947  49.1080618  31.1104250  59.4535637  49.8826694  31.0229850
  51.7062235  69.5755672   5.2847940  52.2428656  69.0130901   5.8432466
  52.2637367  70.3313112   5.0997078  68.6672974  36.5775490  36.8346024
  69.2978334  36.9502258  37.4508572  69.1742897  36.4223933  36.0376620
  75.7810497  72.4808836  12.2227800  76.7271900  72.4682474  12.3673332
  75.5147314  73.3697939  12.4576104  59.8112535  74.6121359  26.9979334
  59.0604877  74.0183449  26.9985437  59.8621750  74.9329185  26.0975242
  37.8992677  38.8605285  59.1062927  38.2401872  38.4048676  58.3366299
  38.1842780  38.3255696  59.8471212  66.4177799  70.2870893  18.6323345
  66.9776392  70.4286051  19.3957222  66.6483688  70.9956837  18.0315423
  43.4149837  41.0808182   1.1027671  43.0930662  40.3773117   0.5391349
  43.9402533  41.6314983   0.5221818  21.7232644   4.6390300  28.8126326
  21.2526165   4.7231536  27.9833889  21.9649064   3.7139564  28.8581109
  55.5385542  65.5798149  18.3428299  55.4600573  65.7351923  19.2840672
  54.6463871  65.6745291  18.0092180  60.6479740  68.6066628  34.7054839
  59.9812412  67.9216671  34.7552872  60.4060364  69.1208363  33.9352107
  62.8220415  81.4148521  32.1707892  62.7142906  80.4647160  32.1276093
  63.2542515  81.6445160  31.3481832  51.9293898  26.2962721  85.5968705
  52.2086542  27.1362875  85.2327064  51.6133421  26.5090941  86.4749661
  28.7375546  50.6421947  14.0300810  28.0272937  50.0624800  14.3051994
  29.2521429  50.7842541  14.8245943  10.8922117   6.6164063  93.3078781
  11.5023011   7.3376082  93.1533149  10.3481739   6.9149302  94.0366694
  61.5771246  84.2790127  17.5582862  61.8322849  83.3580112  17.5046313
  60.6533098  84.2865944  17.3077929  27.5914645  43.0104971  32.3839998
  27.8227687  42.0829248  32.4323702  27.4701357  43.1786776  31.4495349
 101.7395687  51.3534212  29.8922825 101.5172386  51.4179516  30.8210659
 102.6126194  50.9611034  29.8816895  63.4831333  80.8095360  22.8053975
  64.3548203  80.4507732  22.6389956  62.9261780  80.4033661  22.1412730
  70.8834696  61.5835810  31.9942999  70.9647751  60.6802034  32.3001146
  71.7837381  61.8608761  31.8244052  29.1359711 104.3892002  51.8929386
  29.0919781 103.7730408  52.6241302  28.7126207 103.9304256  51.1673164
  50.8831120  44.1162586   5.0433075  50.1616907  43.5226679   4.8348957
  51.6341162  43.5399628   5.1851195  63.4821844  76.1158562  29.1395116
  64.2915773  76.5063906  28.8099647  62.8398132  76.8242216  29.0969253
  87.2888851  76.7902184  21.6452599  86.9158649  75.9473085  21.9033074
  86.5308094  77.3644686  21.5367484  57.6397943  93.7304497  13.5918772
  58.0553102  93.7953281  14.4517422  56.7562962  94.0733528  13.7263179
  65.3791380  75.6729746  36.3352180  64.8839235  74.8562241  36.3977551
  66.1017990  75.5628300  36.9531631  46.4805174  52.2809887  16.2763786
  45.6152487  52.3905134  15.8819795  46.6845131  53.1390190  16.6484046
  52.1805859  68.7844086  38.6568713  52.0830202  68.0364990  39.2462277
  51.7509270  69.5072937  39.1141033  90.8394241  74.2279673  56.8652010
  91.3277531  74.5705223  56.1165857  90.0627613  74.7847986  56.9196129
  64.0521336  88.9565849  33.8542008  63.6100245  89.7771931  34.0718293
  63.4530449  88.5138607  33.2530951  74.3061447  78.3701420  29.5718408
  74.0138102  78.3809948  28.6604381  74.6621895  79.2462826  29.7196174
  81.5192890  66.3859463  35.8468509  81.3766575  67.3321772  35.8700109
  82.3139095  66.2762213  35.3245783  46.4662027  50.9341002  38.5873485
  47.3115921  50.5364895  38.3788967  46.4895725  51.7874193  38.1542969
  72.4011850  68.0855894  40.0957632  72.6031828  67.1896458  40.3654146
  71.4608431  68.1759310  40.2501106  60.4472065  60.1672411  12.6950860
  61.2344170  60.0034332  12.1757579  60.5655050  59.6369362  13.4831297
  54.6110010  99.4021225  16.1773586  54.0531063  98.9059162  16.7763281
  54.1637278 100.2420425  16.0738206  60.4969645  77.6364231  67.0839739
  60.6607008  78.5685539  66.9406176  61.3185787  77.2089624  66.8422031
  53.5464811  68.3427382  25.9234929  52.6187181  68.5749435  25.9630704
  53.8649988  68.4758568  26.8162751  41.5636635  59.5814323  23.4028673
  41.5115118  58.8486052  22.7892876  42.3565626  59.4119024  23.9115953
  54.5467615  56.4765167  31.5133905  55.1873302  57.1758795  31.3837957
  55.0600195  55.7402563  31.8461442  66.4801168  36.8965721  38.4540296
  65.8097363  37.1335196  37.8131914  67.2678328  36.7450833  37.9317403
  63.1396723  73.3246088  41.2964392  64.0011787  72.9319191  41.4372492
  62.5204945  72.6502228  41.5758228  80.5632877  70.4856253  48.4379196
  81.3482475  70.9063482  48.0871105  80.2726555  71.0681009  49.1396952
  96.3464052   0.5141788  29.4934297  96.9474107   0.6965308  30.2157640
  96.9093830   0.1947932  28.7882495  82.8590870  83.6372662  39.3007588
  83.4106827  83.9477921  38.5827446  82.6405144  82.7363300  39.0625072
  75.6065798  79.7157431  25.3509068  75.7724428  80.4215240  25.9758830
  76.3197613  79.7852802  24.7162700  23.4583235  85.9105206  15.9191227
  22.7759695  86.5293598  15.6590044  23.0077171  85.0680923  15.9783673
  48.7793255  14.4909513  13.5122478  49.5280313  14.8955667  13.0741143
  49.1596174  14.0310228  14.2606306  66.8568993  76.0928154  67.8297806
  66.3019228  76.0430908  68.6080885  66.2877703  75.8158779  67.1117067
  37.6255083  76.8659687  21.6269445  38.3133769  77.0218468  22.2740722
  37.9519415  76.1353779  21.1016726  70.1072836  66.5650702  32.5808144
  70.1847029  65.7250643  33.0331802  70.5937147  66.4437103  31.7654061
   8.6529576  11.5397792  42.7672911   8.7618481  12.3558669  43.2555294
   9.0167462  11.7279105  41.9021320  67.5499010  87.2848511  36.8885088
  68.1537247  87.6634216  36.2495112  66.8125868  86.9712925  36.3647985
  47.9597092 101.4841366  29.5309162  48.5986710 100.7722569  29.4964957
  47.4165297 101.3562489  28.7532067  70.7557964  81.1631298  41.9458151
  71.0023832  81.2206268  41.0227108  70.7602310  82.0700836  42.2518444
  74.3349218  61.9057131  26.2954497  75.2563238  62.0445299  26.0764170
  73.9677000  61.4742851  25.5239224  97.0676327  96.5048695  41.9629717
  97.5402641  97.3065758  42.1868324  96.3047600  96.8063831  41.4696789
  71.9468164  63.0292511   5.1484132  72.4793911  63.4488201   5.8241016
  72.5680256  62.8153467   4.4523019  96.1651325  86.6652584  25.4007983
  95.6639004  86.2436581  26.0988331  95.6597137  87.4482346  25.1823449
  63.6108494  98.5459042  40.1687574  63.3292627  99.1870975  40.8212996
  63.3904743  98.9471149  39.3281007  35.9722948  85.5620575   8.7052464
  35.6793642  85.6784439   7.8014338  36.4674950  86.3575077   8.9008462
  98.8839436  88.5120964  26.8090749  98.5485172  89.0324497  26.0790396
  99.1485786  87.6830101  26.4105630  56.4678478  65.5335808  61.9125938
  56.6887808  64.9008894  61.2291288  57.2590971  65.5940294  62.4478531
  94.5172977  66.8055773  49.8796177  93.8319969  67.1627140  49.3147755
  95.1796913  67.4954939  49.9180555  26.2055146   1.9032912  50.5854893
  27.1390568   1.9755416  50.7842588  26.1691605   1.8217807  49.6324635
  71.7125320  93.2506657  38.1863642  71.7292929  93.4569836  37.2518110
  71.3349104  94.0286732  38.5966563  97.3502445  73.5907412  66.5876484
  97.3955250  74.1564989  65.8168697  97.7890396  74.0893888  67.2768736
  78.3753443  89.7598362  47.4453974  78.9773655  90.4582596  47.7023172
  77.6418877  89.8394680  48.0552578  68.9421272  60.7701302  21.7928481
  69.0450621  60.4780436  20.8871317  69.7381496  61.2693691  21.9754434
  68.5320377  71.3589573  32.6956224  69.1060877  70.6292963  32.4626231
  67.8330851  70.9582281  33.2124519   8.4554707  13.7950378  74.9364662
   8.2774769  14.3288474  74.1621304   9.0027844  13.0793147  74.6133232
  64.2154598  69.9064398  35.8100867  63.8975430  69.0475941  36.0885644
  63.4249640  70.3851128  35.5606461  67.2170925  85.0533581  30.1923418
  66.8514109  84.2241287  30.5003905  68.1433582  85.0095463  30.4297209
  77.9612684  88.0156612  33.3725882  77.3093510  87.5885391  32.8168893
  78.7372398  87.4596596  33.3021760 115.8970577   0.2510600  32.8016305
 116.1375076   0.6926971  31.9871521 115.1542694   0.7535510  33.1362915
  67.8202009 103.6619663  39.3150067  66.9037056 103.5239410  39.5541906
  67.9264116 104.6132565  39.3124247 106.2021143  23.7207084  25.3678036
 106.0443622  23.0609946  24.6924281 105.4498607  24.3095546  25.3077745
  42.3469543  96.5198898  79.1814518  42.8216028  97.3433590  79.2947674
  41.4293623  96.7503834  79.3268013 109.0899849  98.5081768  15.0544024
 109.7585869  98.2944012  15.7051730 109.5435905  98.4414291  14.2141521
  82.5156307 101.4177704  51.4313745  83.3618641 101.7870522  51.1788797
  81.9224739 101.6730976  50.7248306   8.8332211  26.3050609  20.5990744
   8.1872021  25.6621413  20.3065896   8.3317982  26.9240623  21.1297798
 101.2551689  71.2726212  31.1533260 101.4109325  70.3998899  30.7923412
 100.3174114  71.2888336  31.3446021  62.8659105  90.1596069  24.6745872
  62.2351360  90.6533432  25.1985979  62.3857498  89.9245071  23.8806081
  91.4303381   6.4065509  31.1149192  90.6083185   6.1969428  31.5582991
  91.9617969   5.6160789  31.2094736  56.6607618 101.2269688  37.2911930
  57.3142624 101.0867691  37.9764009  57.0220709 101.9340801  36.7566991
  65.2378035 103.5048676   4.8463544  65.8577251 103.1009388   4.2390919
  64.3813276 103.1861687   4.5615527  68.6246872  81.7126179   4.1065690
  68.5237741  81.0896969   3.3868402  67.7934074  82.1865273   4.1314918
  53.1314611  80.7421494  31.9722104  53.1161976  81.6466236  32.2851253
  52.3260784  80.3559971  32.3164225  52.4322557  78.5322189   6.9869816
  52.0607328  78.5701609   7.8683245  51.7359781  78.1545067   6.4496088
  81.4419365  82.5824547  52.1189356  80.6135559  82.6770306  52.5891256
  81.9808674  83.3076477  52.4349689 105.4841423 110.0659943  45.9213161
 105.3870106 110.9844303  46.1728764 106.2296772 110.0596428  45.3210115
  77.9381371  97.2126865  24.1588712  77.3274326  97.8566742  23.8003325
  78.2689524  96.7438412  23.3927226  61.8489504  81.3760471  17.5469518
  62.2848177  80.5620766  17.7993393  60.9461164  81.1170483  17.3624575
  42.6418495  91.0563469  29.0026855  42.8837729  90.1609039  28.7662840
  42.8757620  91.5782166  28.2351136  67.8878021  69.4622612  80.4531002
  67.1167564  69.2173243  79.9415016  68.0314875  70.3849792  80.2429008
  59.2867804  78.6988544  31.2312388  58.5513878  78.5432720  30.6386018
  59.8294353  79.3424988  30.7757425  65.8265829  97.7917862  34.0437341
  66.7736340  97.9262447  34.0790582  65.7206297  96.8409443  34.0134907
  95.7064802  23.7217193  61.2476778  95.7782108  22.7858501  61.0599566
  96.0676700  24.1500526  60.4715919  72.0469809  67.3620081  44.1225338
  72.4021816  66.5922070  44.5669031  71.2242651  67.5426722  44.5772076
  13.2482772  60.8411264  36.2666059  12.4696402  60.9326601  35.7174397
  13.5670237  61.7363691  36.3813639  64.9816751 101.9192314   7.4524897
  65.1811552 102.6027679   6.8127888  65.8096266 101.7692661   7.9088169
  60.7004738  71.6036129  20.3981566  61.2702084  72.3545456  20.2316308
  60.4151297  71.3220453  19.5289445  87.2135258  89.4158745  20.5045938
  87.9152775  90.0535679  20.6354284  86.5725803  89.6220970  21.1849570
  96.5276432  67.5406075  47.4987221  95.8728886  68.2159996  47.3216200
  97.2687912  68.0175829  47.8721285  69.0301991  93.3142567  12.5571179
  69.3058395  92.5769138  12.0125222  68.0805397  93.3537769  12.4439144
  79.6842718  73.6551380  66.1892319  79.7492599  72.7102661  66.3278913
  79.1562557  73.9691782  66.9232702  83.8621140  51.7930222  40.1768398
  83.0327892  52.1762800  39.8912334  84.5042133  52.1114349  39.5423722
 115.4817104  87.3562622  58.9384413 115.8597660  87.8168201  59.6875715
 114.5422649  87.5290012  59.0003157  57.2930002  95.0705814  55.5014133
  57.2802353  95.0149918  54.5459127  57.8819275  94.3671036  55.7744074
 105.0644333  22.0149474  43.4335184 104.9337274  22.2544627  44.3510056
 106.0149652  21.9663482  43.3317423  64.4494390  81.7745781   2.7877074
  64.7414303  82.4411201   2.1658593  64.9997473  81.9093323   3.5592219
  66.4099312  81.2011909  48.4793806  65.5666161  81.0629940  48.9106083
  66.9837999  80.5341911  48.8562298  59.1966248  72.0457363  36.3137531
  58.6186743  71.4721727  36.8169713  59.8360491  72.3613644  36.9523025
  82.4107170  76.6805840  50.3159761  83.1530285  76.2828016  50.7709312
  81.7017078  76.6692209  50.9589434  58.4759188  80.0674057  38.7595439
  58.7962580  80.9411526  38.5355377  59.2122936  79.6495056  39.2060232
  57.2232199  81.0114670  31.5678763  57.1623898  80.2932072  30.9380913
  56.8038130  81.7513275  31.1286187  32.2525900  41.3224219  87.7409836
  31.9182986  40.5174921  88.1366685  31.7228573  41.4395903  86.9523874
 105.3426582  15.7581096  55.0329113 105.4436523  16.4610820  54.3911457
 106.1220533  15.2145629  54.9174166  74.4495630 105.5667496  69.0970612
  74.3308353 105.4400063  70.0383759  73.5856962 105.3964329  68.7216187
  77.5563049  88.2440758  24.5192289  77.3501968  88.6248684  25.3728986
  78.2867384  88.7694836  24.1926575  93.7121851   1.4521651  31.6158557
  94.4436056   0.8505683  31.7549300  94.1146309   2.2361713  31.2422132
  67.7574492  75.0441599  34.2087007  67.7985382  74.8186588  33.2793498
  67.4586630  74.2418814  34.6368480  33.6437273 100.8833599  39.8706555
  34.0886068 100.5640793  40.6557512  33.7135577 100.1617813  39.2456174
  27.6849019  39.0350776  51.5873957  28.0538785  39.8283439  51.9757557
  27.8666436  39.1197543  50.6514311  37.1242976  69.0562248  15.7622373
  36.5479898  69.6727085  16.2139535  37.8794217  69.5826197  15.4996979
 113.3829594 110.3424644  21.7669511 112.7027702 109.6782684  21.8783736
 114.1802025 109.8420429  21.5931416  68.1764746  81.7722416  38.4417415
  67.9934597  82.1627998  37.5872183  67.7881479  82.3800755  39.0710044
  72.2574663  78.9967442  40.8495283  72.6612282  79.4351721  41.5985203
  71.8038368  78.2439280  41.2286377  49.0383530 108.5947514  11.8133187
  49.9475479 108.4851074  12.0918298  48.5420704 108.6455345  12.6302397
  67.9209709  91.6954327  47.8811550  67.9266930  92.4048519  48.5237551
  67.8838682  90.8963776  48.4068537 117.2938884  72.5562571  93.2747760
 118.0484737  72.7474974  93.8317874 117.4344266  71.6558550  92.9819348
  82.9986954  87.6832581  23.3195400  82.6457977  88.0639935  22.5153399
  83.9443016  87.8157425  23.2523918   5.4481064   6.8131023  25.3634334
   4.6276890   6.6444163  24.9000764   5.7183300   7.6810889  25.0637460
  42.1828270  92.0140171  48.3449984  41.8425655  91.5204048  47.5988102
  42.8743696  92.5622368  47.9742432  91.6620619  13.2166438  42.5400829
  90.7595665  13.0727725  42.8247452  91.8199903  12.5324302  41.8895817
  54.9495334   6.0316520  54.4255114  54.8308486   6.5344577  55.2313280
  54.5085603   6.5501647  53.7525225  94.6608907   1.7862659  83.6114502
  93.7911255   1.4146571  83.4643364  95.2360660   1.0253387  83.6914349
 108.3865148   9.5520167  56.8711281 108.5351974   8.8912253  56.1947536
 108.9359647  10.2907424  56.6091681  82.8059006  50.9806585  29.8449469
  83.6327457  50.5196238  29.9863911  83.0221939  51.6748333  29.2223930
  14.3386303  21.6523891  48.7885284  14.4332348  20.8829837  48.2270193
  14.5609223  21.3381057  49.6649122  96.5782166  75.0168800   4.4973692
  96.9941425  74.4434214   3.8536453  95.8048058  74.5321465   4.7856244
  66.2630653  85.0854301  18.5909903  66.5073204  84.2374134  18.2202780
  65.7967997  85.5307484  17.8835166 113.7561113   7.1404128  36.3550186
 114.4450361   6.4984279  36.5266895 114.1192896   7.7047401  35.6724739
  56.4887094  86.0735798  33.9678907  56.1066294  86.8366337  33.5343075
  55.7376337  85.5234909  34.1904259  87.4479008  73.3508062  31.6967487
  87.5781727  73.3585262  32.6450109  88.3219147  73.4941673  31.3337398
 109.0839559  14.4860320  17.5523067 108.3565790  14.1790633  18.0935264
 109.5255167  13.6856990  17.2682047  67.1630478  64.2471886  24.0171719
  66.9848490  63.5086107  23.4349537  66.9723082  65.0212526  23.4873772
  78.1849623  97.2540379  26.9249582  78.8962984  97.5759029  26.3712168
  77.7050066  96.6422081  26.3668013  55.0941610 109.8156357  26.3049150
  55.3671408 110.6406975  25.9036708  54.2562389 110.0174999  26.7212963
  16.0353153  45.6265162  77.3933533  16.6482991  45.3785132  78.0854383
  15.7876652  46.5267943  77.6040366 105.7353210 100.3365135  27.2357345
 106.5840435 100.7678795  27.1366405 105.8196640  99.8237514  28.0396008
  83.5179234  93.8121891  34.6425390  82.9983902  93.4411621  35.3557396
  82.8717995  94.0741444  33.9866900 102.8286362 100.6143475  45.7833433
 103.3777332  99.9846458  45.3162336 102.5251102 100.1397228  46.5571833
  82.7570421   3.9645057  52.1491146  82.4135524   3.5114341  52.9191637
  83.6462909   4.2175727  52.3969555  98.9006883   0.3371959  33.9345622
  98.1117613   0.7833533  34.2424083  98.7761242  -0.5757756  34.1937733
 100.8218288  96.6611290  42.9164457 100.9325981  97.5877571  43.1293201
 100.5727768  96.2529850  43.7456751  56.5332556  82.7954197  36.8422127
  56.0693741  82.8886318  37.6742935  57.4364042  83.0411148  37.0426631
 111.9513590   3.3812766  61.6621733 112.4360401   2.8790717  61.0071087
 112.6043302   3.9657550  62.0471954  64.7360563  96.7338276  47.3828411
  65.3256702  97.3556995  47.8092957  65.3060246  96.0187531  47.0999384
  67.0767498  71.2860870  43.8861132  67.9768896  71.6038990  43.9566278
  67.1604109  70.4126120  43.5036612  80.1036263  66.5622663  50.1927900
  80.2742577  65.6767607  49.8718596  79.5932341  66.4330959  50.9921932
  49.7015715  92.5739288  25.3557038  49.4549704  92.5742245  26.2805939
  50.5577469  93.0014801  25.3359652  72.4158859  86.8538761  67.8538513
  71.5856504  86.4209366  68.0526257  72.9813576  86.6397095  68.5958767
  65.1645136  78.9190674  53.6080408  64.4099712  79.5072603  53.5776329
  64.8004580  78.0762911  53.8790035  91.2815285  89.9904060  53.4115314
  91.7804527  89.7218323  54.1830015  90.8904648  89.1799927  53.0851412
  85.5476475 102.0651436  19.6573746  84.7134972 101.6166782  19.5184219
  86.2065792 101.3754463  19.5775998  58.3819580  91.7614460  37.7783179
  59.1541290  91.3103294  38.1196070  57.6482916  91.3765144  38.2576847
  79.2552471  78.7438297  27.1535397  79.7279119  78.3964443  27.9099441
  78.6186123  79.3527412  27.5279117  51.5986776  75.6357288  10.2732754
  51.6218090  75.3472090  11.1856651  50.6794357  75.8489323  10.1127267
  82.7512741  73.5129833  18.1209183  82.8295422  72.8766060  18.8316441
  83.1331253  74.3159962  18.4753072 106.3790542  14.2782931  41.4664507
 106.1131269  15.1918082  41.5713501 106.2105781  13.8802199  42.3204899
  38.8964987 101.7591381  29.0098619  37.9474521 101.8755817  28.9653492
  39.1695166 101.6665077  28.0971122  75.0476646  66.2110519   0.3366117
  75.4236555  66.4545822   1.1825186  74.8223352  65.2856731   0.4321499
  91.4986897  91.6218853  18.9265978  92.4399948  91.7104912  19.0760386
  91.3471127  90.6769562  18.9075410  65.9638405  86.1234283  23.8073778
  65.1685190  86.6342258  23.9583230  66.6769695  86.7113686  24.0563631
  74.3999577  51.2402010  40.3075743  74.4866800  51.8430996  41.0459661
  75.2863073  50.9086704  40.1636839  62.5551462  91.9959831  58.0333805
  61.8824577  91.3788509  57.7455044  62.5800371  92.6611996  57.3455572
 111.4163303 100.7797909  50.4608345 111.2749767 100.0852489  49.8175192
 112.2048569 100.5121613  50.9328890  59.1954041  77.9141331  63.0819273
  59.5093107  78.7024164  63.5249949  59.8203278  77.2336960  63.3323336
  71.0823154  60.7294559  60.9148216  71.0785341  61.6861057  60.9469223
  71.5300512  60.5190706  60.0953674  92.6427269 109.8029423  22.4130988
  91.8269634 110.0941467  22.0057082  93.0624199 110.6096077  22.7120638
  98.6076290   7.0956950   8.7421131  98.2761890   7.9936080   8.7535405
  99.4869072   7.1601825   9.1148686  75.8983946  67.5945759  37.4710035
  75.1930285  68.2393456  37.5254440  76.2064838  67.4999475  38.3723116
  20.0173682  55.5659006  88.4354701  19.5410507  55.8961962  87.6737216
  19.3528336  55.4935549  89.1205928  63.0940437  68.9435863  20.2903867
  63.4341574  69.6831322  19.7867787  62.1615028  68.9166117  20.0762153
  86.1311054  69.4049120  46.4005470  85.5224133  69.0808439  45.7366896
  86.4687061  70.2234077  46.0367870  78.0801010  90.9421635  32.0338702
  78.7743473  91.2085724  32.6365948  78.2830524  90.0309181  31.8225098
  44.3462372  95.7325554  22.6009083  43.8344908  96.5207195  22.4188519
  45.1150513  95.8103848  22.0360231  11.6113507  23.4698825  47.6171875
  11.3483559  22.6077037  47.2951412  11.5595662  24.0385394  46.8489552
  82.3727608  97.1310139  36.0038400  82.5706863  96.3141155  35.5458713
  81.4311409  97.2520542  35.8816004  73.2876301  88.6121941  45.7702875
  73.2549810  89.5655251  45.8498240  73.8525248  88.4541607  45.0138807
  38.4088677  53.4479903  84.9568203  38.3881777  52.8705977  85.7199839
  39.1050881  54.0757654  85.1502469  22.7245968  27.8752039  94.3372722
  22.9620522  27.6281641  95.2310374  23.2771223  27.3251627  93.7819311
  64.0283585 104.1626453  26.9737220  64.5077467 104.0675831  26.1506867
  63.1138468 104.2600060  26.7083621 103.8053638  11.1389690  69.6043968
 103.5499746  11.5866904  68.7978268 102.9773885  10.8637385  69.9980259
  68.3285713  89.7948170  27.1276426  69.1169405  89.5776558  27.6251864
  67.8271914  90.3652477  27.7102733  79.8943090 104.0433884   6.8503231
  79.4770384 104.0309238   7.7116954  80.6190586 104.6615791   6.9441903
 117.6436520 103.4986210  23.9681625 118.0428791 102.6300621  24.0176606
 117.0458698 103.4453201  23.2224751  61.2660980 109.8433685   9.8140782
  61.0158587 109.1584682  10.4341769  61.4138412 109.3784714   8.9905030
  44.8905039 107.3120880  15.0876892  44.3386650 107.5043106  14.3295610
  44.3107986 107.4256992  15.8408618  44.1772604  75.1900768  15.1156664
  44.2463589  74.9313974  16.0346568  43.8172245  76.0765696  15.1427984
  92.3305702  50.2748919  54.7699642  93.2351685  49.9679422  54.7091246
  92.1809959  50.7437134  53.9489460  99.9022388 105.4584312  64.7843647
 100.0615406 104.5207214  64.8918724  99.2092133 105.5097198  64.1261005
 112.8980953  10.3498511  37.2817898 112.1133644   9.8773532  37.5596023
 113.0749828  10.0226932  36.3997984  84.7137070 102.8759289  50.8892107
  85.0405312 101.9993687  51.0918427  85.1176548 103.4404469  51.5482855
  31.0005509  37.6984935  44.0256405  30.3379570  38.0405192  43.4254503
  31.1322819  36.7925983  43.7459564  92.0493347   3.5376506  59.5698452
  92.5119669   4.3746524  59.6101093  91.1432153   3.7539916  59.7898006
  97.9477119  82.2440910  24.3254471  97.8681183  81.4916229  24.9116945
  98.7298012  82.7038670  24.6307039  10.6440007  17.1801810  30.8777523
  11.3500248  16.9585948  31.4849281   9.9852025  17.6100879  31.4231014
  13.2258545  17.0002608  59.1834068  12.9597603  16.7240481  60.0604057
  12.9745232  17.9226737  59.1362429  72.5781107  79.0394640  47.9715729
  72.2416925  79.6337461  48.6423016  73.3601236  78.6523104  48.3650255
  27.5002419  12.2710376  32.6954222  27.5025021  13.1195979  33.1383395
  27.8025567  12.4633651  31.8078113 117.9587364 101.6539955  28.7396812
 117.4599171 102.3642063  28.3359337 118.3543777 101.1897182  28.0020189
  92.2994328  97.1201706  22.0248413  92.3083496  98.0603409  22.2044039
  93.2115555  96.8482590  22.1264672  65.3912210  81.7289448  40.7278395
  65.7558632  82.5375843  40.3681469  66.1500168  81.1591530  40.8535004
  51.4532471 108.9879036  17.9950190  50.5579948 109.3156242  18.0807674
  51.3733673 108.2171631  17.4330485  88.3576298  92.6528931  35.6305838
  87.8532219  93.4286880  35.3857541  89.0779018  92.9931641  36.1612916
  91.0623264  86.6936493  45.8146334  90.5547810  86.7702579  45.0066996
  91.3743114  87.5820827  45.9866476  38.7808108  82.3765469  56.8042707
  38.7274146  83.2700825  57.1433687  39.2579579  81.8926620  57.4783754
   8.4501111  29.1057925  14.0447378   8.4761464  28.6246638  13.2176542
   8.0256306  29.9353652  13.8259923  20.3292500  27.3513465  69.6487141
  20.2641427  27.4805408  70.5949163  19.9364220  28.1386905  69.2718840
  55.7209969 101.0451317  31.3030505  55.1788950 101.2042046  32.0757413
  56.1815405 100.2288437  31.4975047  76.7385442   0.1295142  59.4478226
  76.8543822   1.0643630  59.6177387  77.2959787  -0.3024430  60.0950575
  48.7877512  91.5360641  44.6221733  48.6338949  91.8662262  43.7369919
  49.2013407  92.2667503  45.0818253  64.3359137 109.9530888   7.7213770
  63.6767912 109.2591381   7.7362806  64.6937990 109.9244881   6.8340582
 103.8530540 104.1695595  62.3322153 103.2724762 103.4239101  62.1799803
 103.2630634 104.9177742  62.4234581  86.1270237 105.1634884  56.1240339
  85.8562374 105.3909779  55.2345657  86.9640446 105.6126404  56.2418461
  93.3520412  89.2175579  21.1626577  92.9989815  89.0597820  20.2870512
  94.2872810  89.0307331  21.0810518   7.2299611  18.2149940  54.9206161
   6.8613183  18.4506660  54.0692663   6.4782273  17.9174667  55.4330540
  15.7660805  24.1814284  34.1262293  15.9196984  24.3875747  35.0482583
  16.4446007  24.6660667  33.6561728   9.7696816  22.4007182  43.7825346
   9.8875081  21.9492202  44.6183014   9.0297925  21.9539600  43.3711863
  90.7714636  20.0594764  83.6124897  91.2566454  19.9847179  82.7907562
  91.3948185  20.4517894  84.2238426  73.0393028 106.4899445  48.5663128
  72.4215794 107.0857906  48.1425047  73.7537479 107.0550251  48.8603926
 116.3856155  25.4303985  60.2815294 115.9009916  25.0264506  59.5616674
 116.3328535  26.3702827  60.1081228  11.0204367  92.2117901  24.8709369
  11.4141135  93.0041218  24.5056129  11.7466502  91.5916157  24.9359870
 105.0285530  80.2956390  39.5379162 104.6547604  79.8758268  40.3126860
 104.2991066  80.7818413  39.1535330 103.2371217  23.0467467  41.4001751
 103.7757665  22.9326015  40.6171894 103.7228567  22.5984244  42.0924902
  96.4419937  92.8300285  28.9148760  95.7151985  93.4528065  28.9024210
  96.5903282  92.6165962  27.9936409  52.8022289  93.9999580  17.3707497
  51.9778585  93.5841465  17.1182728  52.6378822  94.3440437  18.2487190
  95.8166504 100.4794025  52.4673605  96.1695671  99.8692608  51.8197441
  96.0674191 101.3443851  52.1430826  59.1195297  95.2280331  50.3291845
  59.1643429  95.5349636  51.2347364  58.5121250  95.8316517  49.9014807
 108.0755550  15.1934390  28.4155917 108.5643131  15.9176688  28.8065338
 107.7354175  14.7026115  29.1636729 107.9292566  18.4502463  57.3384523
 107.2835714  18.4289031  58.0447578 108.5035259  17.7053886  57.5163364
  85.6424934   5.2802806  52.3641634  85.8746750   5.1542430  51.4441395
  86.4791948   5.2527480  52.8282785  62.6018524  85.6818008  45.5751991
  63.4970236  85.3649521  45.6956482  62.7059746  86.5779972  45.2554750
  69.2379570  96.5927315   8.7578428  69.1451550  97.0721340   9.5811260
  68.7219715  95.7965755   8.8848120 115.9986019  83.4926987  16.0169804
 116.4983559  82.8629589  15.4974616 116.1434746  84.3320370  15.5802214
  60.3438139  89.8367500  37.8531146  60.9192562  90.2071381  37.1838546
  60.8404684  89.1038990  38.2171178  75.9538507 111.6354847  57.9002762
  76.2365723 111.0046959  57.2381544  75.1094532 111.3020325  58.2036448
 104.0028650   2.3436408  40.7718706 104.8140461   2.7986007  40.5455399
 103.4448892   2.4513965  40.0016212  84.3426132  65.8152533  48.7309551
  83.9628696  65.2083683  49.3663454  84.2147636  66.6804028  49.1200638
 108.2587719  73.5173130  46.7403841 107.8227997  73.9263535  47.4879408
 109.1828537  73.7416363  46.8498898   0.1293169  34.5104461  83.6194515
  -0.2256216  33.6437087  83.4219265   1.0785090  34.3869166  83.6165142
  60.3367662  83.2553196  24.4957829  59.6432257  83.8921070  24.3233538
  61.0264444  83.4770298  23.8701487  97.1582603 103.1997681  54.8553085
  96.5089798 103.8945484  54.9646282  97.5481892 103.3691216  53.9976931
  60.1233339  84.4662476  39.4502497  59.8049974  85.0465202  40.1417494
  60.0172520  84.9726391  38.6449289 101.5212631  89.4463253  71.6155958
 102.1701908  88.8530254  71.2372923 101.1795235  88.9746380  72.3751688
 103.3056814   0.7111793  44.6396065 103.2571251   1.6074615  44.3071318
 104.2431146   0.5231338  44.6853495  63.9885569  99.6490383  37.7586675
  63.7536812  99.6444798  36.8307424  64.1118240 100.5744553  37.9699850
  96.2042839  14.8632293  38.5698867  96.3340837  15.4109340  39.3440962
  95.4010708  15.1983028  38.1713843 103.5846138 100.9249115  32.1201015
 102.9807186 101.6662502  32.1644497 104.0447235 100.9402657  32.9593229
  69.9913883  80.0109386  53.9955330  69.5308924  79.3350077  54.4928169
  70.4833889  80.5000973  54.6549988  76.9348192  61.3715315  10.0858974
  77.8758574  61.4626837  10.2354658  76.6532373  62.2392082   9.7959310
 107.7307510  71.6653442  70.5289364 107.7186775  70.7796288  70.8916998
 108.6522865  71.9227839  70.5561733  83.8484097  90.9755516   2.8035167
  83.2415771  90.7809925   2.0892793  84.6935749  91.1014557   2.3721434
  59.0203285  82.5056362  68.0836105  59.1740465  83.3900547  68.4158993
  59.2472172  81.9319916  68.8155174  79.8495340  87.0654202  62.4401045
  80.3387451  86.3439083  62.8354883  80.4589462  87.8034496  62.4530268
  53.5540819 111.3868809  64.6897411  53.2248449 110.9172916  63.9233685
  54.4943237 111.4728165  64.5323038 102.9506111 107.2292805   5.1963085
 102.1552944 107.7611160   5.2254796 102.6368427 106.3370419   5.0490540
 107.0157463   5.9076457  35.3868103 107.6931936   5.4345851  35.8700371
 106.2071783   5.4341464  35.5823970  82.2789478 111.0092735  17.0654941
  82.2280407 110.4976940  16.2580740  82.9642868 110.5803967  17.5779533
  95.3022575  71.7373323  51.9733858  95.4297638  72.4892807  51.3949871
  96.1055374  71.6953516  52.4922562  73.0771214  10.7821899  52.6035118
  73.9297063  11.1939483  52.7442074  72.6845414  11.2826972  51.8882465
  92.4568653  95.9749508   7.0755488  92.9386234  96.0983658   7.8934169
  92.2557926  96.8627930   6.7796969   2.2690539  91.5761852  36.3715911
   1.5214305  91.0606956  36.6741514   2.0866446  92.4647903  36.6771030
 112.5961781  69.3641090  47.0354939 112.7438545  68.9532328  47.8873158
 113.3218670  69.0566921  46.4922619  26.5845238   1.4984851  45.4032421
  25.6608140   1.7155128  45.2771711  26.8014084   1.8635326  46.2611103
  98.9243108  17.5798469  35.3644586  99.6970445  17.2228961  34.9266291
  98.4413940  16.8095260  35.6638145  89.5521862   4.8029857  60.1917982
  88.8304216   4.6754985  60.8074570  89.8386699   5.7039027  60.3418350
  78.6644745  77.0709801  34.8854613  77.8479433  76.8668938  35.3413773
  78.9428663  77.9084587  35.2560830  62.4573183 103.3415127  51.4099884
  61.8313265 103.1925678  50.7013416  62.6890755 102.4637127  51.7132854
  57.8494263 103.0897617  17.0456231  58.3113384 103.4046745  16.2686443
  57.6060867 102.1892262  16.8310308  76.1139727  90.6106758  61.4597178
  76.5835953  90.1034260  62.1218204  75.3695345  90.0592232  61.2190008
 111.0862047   6.6178661  36.6128683 110.7228739   7.2661834  37.2161102
 112.0102388   6.8550449  36.5344644  35.2258622  15.5645805  24.2741990
  34.9293076  15.2687888  25.1348948  35.4757725  14.7611575  23.8178277
  74.3812561  95.3252316  59.6077585  75.2218819  94.9105549  59.4137859
  74.3407679  95.3488064  60.5638123  80.1369476 109.7104359  36.9548869
  79.3640900 110.0853443  36.5325475  80.4874802 109.0955734  36.3104534
  23.2124840  15.1155048  27.8161430  22.2901856  15.2025848  27.5752783
  23.5725819  15.9956889  27.7073526  12.9433953  19.2110782  33.9604807
  12.5988804  18.3800178  33.6335731  12.5118863  19.8765998  33.4246540
  51.4300745  37.4177740  94.7596218  52.3042029  37.0759199  94.5718534
  51.1268347  36.9024657  95.5071084  56.0604048 107.4354076  27.1078515
  55.7001638 108.2815266  26.8422365  56.4929104 107.6109314  27.9435325
  83.7795622   5.6192355  63.2426119  82.8314859   5.7182365  63.1555796
  84.0493280   5.1785426  62.4368525  80.5791569  98.3834171  25.8309746
  79.8877478  99.0342522  25.7100916  81.3928986  98.8823223  25.7592463
  57.7513552  73.5459471  34.6489000  58.0804968  72.9657698  35.3354073
  57.7410460  74.4135523  35.0531125 109.5360786   2.0039039  25.7190394
 109.3182880   2.8799968  26.0372519 108.9369232   1.4229922  26.1878514
  85.8889705   8.7105517  71.4851952  86.3450176   9.5486503  71.5616322
  84.9625284   8.9457755  71.4341450  71.1854887  89.0428066  33.0539107
  70.6938267  88.4129047  32.5269127  71.6894817  89.5474815  32.4155331
  58.3561373 101.1996174  39.2934418  59.0532398 100.6161022  39.5930862
  58.1668997 101.7548561  40.0498343  24.9581086   1.5148692  32.1564507
  24.3941723   1.2369208  32.8782201  24.7517621   2.4415736  32.0344615
   7.7533185  20.9396606  42.6554823   6.8741261  21.1755614  42.3594999
   7.7681195  19.9831061  42.6237202  88.1201172 108.3917713  13.8170385
  88.7191391 109.0866756  13.5440755  87.5085640 108.3019447  13.0861735
  86.7453653  26.4591746  14.4964349  87.3033935  26.8355708  13.8158786
  86.1174137  25.9172588  14.0186894 102.3643875  92.0660686  75.8120203
 101.8136024  92.1522617  75.0339222 102.2938824  92.9140091  76.2504959
 115.4272205  10.0940089  50.1548195 115.3260643  10.0537448  49.2038345
 115.9074098  10.9073119  50.3103876  71.4961147 101.9152260  40.7830715
  70.9482574 101.3682842  40.2201033  72.3022795 101.4114857  40.8951902
  80.3286266 107.8314781  63.3303452  80.4486084 108.4811306  62.6376772
  81.1841393 107.4105263  63.4147120  81.7222786  95.1561642  32.4872160
  80.8180428  94.8714256  32.6196027  81.6570473  96.0995770  32.3390651
  85.0540257  52.8212452  10.6525922  85.6046200  52.3283386  10.0442100
  84.3410587  53.1590080  10.1105392  81.2500954  73.9327478  29.4527626
  80.5184269  73.6830664  30.0171757  80.9171295  73.8154173  28.5630417
 105.8785755  14.3641906  69.3482304 106.4057905  15.1621108  69.3082619
 105.2568228  14.4514899  68.6257076  20.3866803  14.5159392  19.7574842
  19.8050438  13.7717013  19.9125206  21.0066926  14.2022853  19.0991223
  88.2324314  83.7085056  21.8635011  88.1297970  84.5314884  21.3855886
  87.5601482  83.7413120  22.5440836 103.3419514  91.6597080   4.3274146
 102.5683498  91.1076641   4.2133826 103.7081814  91.7436504   3.4470367
 114.7818071   7.3379283  33.4404063 114.9855262   7.6188045  32.5483108
 114.0539819   6.7247062  33.3381200  75.6974840  96.5427017  47.4395514
  76.0200882  96.7476749  48.3171272  75.8320141  97.3484612  46.9406605
  97.2950268 101.0829258  23.7160468  97.0905209 100.9423637  22.7915716
  97.4272251 102.0279789  23.7910986 103.6183548  61.9908619  20.1337647
 103.7450886  62.1192837  19.1937220 104.4082832  61.5332937  20.4216361
  97.9154283  26.5549426  30.8450198  97.5374061  25.6782394  30.9137082
  98.1766206  26.6319232  29.9273705  56.8000889  94.1823387  37.1715426
  56.3245344  94.3152523  37.9915547  57.3045874  93.3815193  37.3143387
  57.5886726 110.5484200  56.4649963  58.0517244 111.2019062  55.9408045
  58.2694197 109.9323559  56.7356825 102.5408203  19.7877841  58.4531546
 103.1399900  19.5860725  57.7344465 101.7387420  20.0813918  58.0210686
  91.9415569  91.9600201  51.5735483  91.0500336  92.2598934  51.3960695
  91.8278790  91.1720276  52.1049356 100.8947277  97.0056629  14.6509337
 100.6584835  97.4518967  13.8377321 101.2197304  96.1505413  14.3692017
  74.0112097   3.0006557  27.9098630  73.8536174   2.3520141  28.5959196
  74.1420800   2.4824290  27.1157956  79.2329485  26.3651996  61.8641710
  78.4773356  26.8814235  62.1448708  79.4092495  25.7790046  62.6000547
  72.5103998  91.0538197  39.4432473  71.9401026  91.5297699  38.8395452
  73.2321644  91.6579151  39.6174479 101.2380583   1.4432101  57.8804684
 100.5729801   2.0972400  58.0952930 100.7893163   0.8262401  57.3023653
  22.3630177  22.6397185   6.9596410  23.1640755  22.5619273   6.4414936
  22.5956189  23.2348209   7.6723665  75.8651590 105.7478714  28.4290171
  76.5087557 106.4560032  28.4053349  75.9423590 105.3253365  27.5735998
  67.7960920  95.7841873  38.0043077  67.0512295  96.0592937  37.4697733
  68.4927988  96.4009857  37.7798152  13.5583722  13.8262420  30.3829622
  12.8284489  14.0481429  29.8048544  13.9359509  14.6712451  30.6271553
  44.9310320  33.9374445  81.6484716  45.6328600  33.8631056  81.0018328
  45.1703852  33.3142470  82.3344460 109.8330688  94.5944214  33.7550378
 110.0223827  94.2216969  32.8939533 108.9489746  94.2894077  33.9589453
  67.9446316  61.5709543  62.7148676  67.4717760  61.7424345  63.5292578
  67.6913691  60.6798649  62.4739361 105.8738422  79.0988636  57.2806215
 105.7895565  79.0936613  58.2340908 104.9987602  78.8782120  56.9616032
 110.1963043  97.2962666  34.6520305 109.2464638  97.3417568  34.7614026
 110.4843521  96.6713333  35.3174067  63.8973761  77.8229809  42.1004629
  63.7377214  78.7661695  42.1342182  63.0267763  77.4358273  42.0088196
  78.9125156 108.1330872  17.9012048  79.7997713 107.9779816  17.5772381
  78.6569357 107.3040962  18.3057845  18.7714386  98.4383297  51.6939211
  18.1297982  97.7282619  51.7120218  18.6499321  98.8922596  52.5278378
  56.5324831  97.9539204  23.5252404  56.1651039  98.7668419  23.1782174
  56.6568613  98.1264973  24.4585013 104.9801141   3.9162784  35.6662273
 105.6033212   3.2254367  35.8911228 104.7699529   3.7588935  34.7457409
  73.3866358  94.4236565  56.5022278  73.4233141  93.4671688  56.4977026
  73.6716509  94.6701241  57.3821402  81.0184383  87.8201866  25.4839206
  81.5327454  87.7352524  24.6811080  81.5137672  87.3283005  26.1388493
  24.9954545   4.9856811  18.8453662  24.2235695   5.3478294  19.2804158
  25.0190674   5.4244952  17.9950011  20.7060181  10.5065875  15.7552564
  21.0849606   9.6999221  16.1044395  21.4499032  11.1027103  15.6685579
  40.7202816 107.5926208  19.2674398  41.1793423 108.3304310  19.6688533
  40.5878592 107.8592300  18.3577073  98.6449510  17.3522334  21.4120603
  97.8190166  17.8359943  21.4061308  98.7284548  17.0318942  22.3101950
  97.1955681  96.6580772   8.1010413  96.3007164  96.3276577   8.0216730
  97.7471066  95.9217072   7.8368527  83.8475895  89.1189957  53.5845327
  83.6862850  88.7826538  54.4660521  84.6952820  88.7488079  53.3383322
  84.5633030  81.5492725  48.0942869  83.6853981  81.9177151  48.1931067
  85.1495934  82.2429943  48.3963633  95.5991936 107.7792835  30.5216932
  94.9077320 107.2928524  30.9705782  95.1815605 108.1106281  29.7266936
  48.0174672  29.0470748  17.8708160  48.7841450  29.2916732  18.3891010
  47.2770630  29.1731029  18.4642375  51.8835449 100.3712368  32.1089029
  52.6950216 100.8722687  32.1908259  51.2372160 100.8805084  32.5979137
  81.8181705 108.4802914  80.1608181  82.5997448 108.1548500  79.7142124
  81.4786530 109.1631889  79.5823622 101.5706348  93.1969547  17.7829742
 101.5624332  92.4405575  18.3695161 101.0379124  93.8536549  18.2315207
  14.4455563  11.4389663  64.5393467  15.1687848  11.0001521  64.0914631
  14.2694699  12.2146659  64.0068865  87.9203415  98.0839348  25.3012681
  87.6139736  98.0844498  24.3944216  88.5873413  98.7699032  25.3291345
  78.6968756  98.0839348  10.4801345  78.6664581  97.4563217   9.7580481
  79.3705845  97.7410221  11.0672987 112.6439190 100.0619793  67.6960135
 112.2275448 100.8641052  67.3806381 113.1779003 100.3451729  68.4382391
  56.9161320 105.0644875  33.6778665  56.2311268 104.9702549  33.0159640
  57.6841116 105.3579903  33.1876636 116.5178949  10.8750873  89.6981239
 116.1704666  10.2415519  90.3259468 116.9920904  11.5095286  90.2355862
  11.6220223  16.1795192  45.3698111  10.7317006  16.2874560  45.7043362
  11.5059029  15.9695392  44.4431734  81.9045734  75.4615164  45.6633329
  82.3372936  75.5861330  44.8186731  81.4464474  76.2868834  45.8218336
  74.0178156 107.4207401  58.9770842  74.9133110 107.1861839  59.2206097
  73.4714031 106.7708015  59.4189453  39.3203389  15.9856277  68.8670111
  39.9291932  16.7135387  68.7418032  39.4166504  15.4541831  68.0767441
  85.9806806   9.7428661   5.7098472  86.8005449  10.2283054   5.8014917
  86.1193496   8.9411883   6.2141484  12.2735535   1.2914615  52.2351742
  11.9143712   0.5015235  51.8311787  13.0907666   1.0024505  52.6412058
  90.9474642   5.6980281  43.8958311  90.8366901   4.7472625  43.8969851
  91.4101869   5.8862357  44.7123480  91.8320560 106.0678577  78.4817219
  92.1765900 106.6317177  79.1742420  91.0758400 105.6357193  78.8787460
 113.5384685  22.0546107  15.6578755 113.5759384  21.1092429  15.8031344
 113.3090526  22.1459251  14.7330725  52.5308418  89.2370129  70.4906368
  52.6357365  88.4794617  69.9150133  53.3150625  89.2312241  71.0394526
  70.7951641  98.2233524  43.3784056  71.5108967  98.8183212  43.1548691
  70.6052113  98.4118176  44.2974424  96.9099903  65.5109358  39.2062926
  97.8088188  65.5555916  39.5323944  97.0025158  65.4631662  38.2547736
 104.4663811  94.7556114  11.6308558 105.2685642  95.2731419  11.5608215
 103.7751389  95.4029179  11.7701662 109.0555191 111.4401150  33.0912733
 109.5246410 111.2309551  32.2835541 108.1614304 111.6295719  32.8067613
  96.0609627  80.1675034  25.2971506  95.7529163  79.8426104  24.4511151
  96.0064125  79.4094849  25.8790946   5.2346360   9.7844749  31.9051743
   5.2804791   9.1601806  31.1810279   5.5001770   9.2796092  32.6738286
  71.1135435 106.0494804  12.1660757  70.1990604 105.8288288  12.3428762
  71.5855265 105.7571697  12.9458308  81.2650585  95.3390503   3.7670121
  82.1537018  95.5215073   3.4616202  81.0320854  96.1022091   4.2957455
  65.8787203  66.7090130  48.6008930  66.5402985  66.0668325  48.3437061
  65.9596682  66.7681694  49.5528316  87.4651814 105.4720783  69.2154264
  88.2454681 105.8459187  69.6248484  87.6589298 104.5377922  69.1392946
 104.8914623  89.3595028  81.9863129 105.7237530  88.9548111  82.2307301
 104.3564606  88.6328506  81.6669655   5.2664904  84.5000744  48.0527592
   4.4292311  84.0765190  47.8634739   5.0467448  85.2019024  48.6654472
  31.8171822   1.0807757  70.2873182  32.4928414   1.6577869  69.9312687
  32.2738873   0.5527167  70.9421444 105.4693205   7.9142146  18.3924389
 105.8843357   8.5804896  17.8446484 105.9708339   7.9279571  19.2076254
  59.5570707  96.5858269  25.8489752  59.9243927  95.7025909  25.8836675
  58.8395023  96.5222073  25.2186728  88.5938293  29.7937827  19.9601626
  88.4774524  30.7091956  20.2145314  87.7869302  29.5695644  19.4966185
  71.8838596  94.3530846  15.8395278  71.2853098  95.0881481  15.7066822
  71.3111734  93.5919666  15.9341979  48.7170982  89.8525715  52.6898098
  48.0048609  89.4966125  53.2210732  49.4935274  89.3722534  52.9773712
  90.7641125  83.3699703  57.0142698  90.0811481  83.9645290  57.3245764
  90.4439735  83.0584717  56.1676836  23.4808098   7.4458461  67.7896881
  22.7995240   8.1180244  67.7740049  24.2614686   7.8882270  67.4563742
  67.4247169 103.6289692  31.1610389  67.3318291 103.0025673  30.4432511
  67.5212812 103.0849743  31.9426847   1.1031090  13.4156852  37.4366093
   0.7720696  13.1874900  36.5679502   2.0446335  13.2510619  37.3849773
  79.0819693 110.5042171  48.9994574  78.2690001 110.8760738  48.6573410
  78.9834309 110.5473232  49.9505949  55.2872801 100.7850838  73.3888197
  55.1721478 100.4442978  72.5017786  56.0636425 101.3421535  73.3324909
  79.8820972  92.9505825  55.7933521  80.8078671  93.0895042  55.5936623
  79.7357702  93.4394741  56.6031742 114.5665294   0.9444575  81.0314369
 115.3369648   0.7945590  80.4835415 114.6740181   0.3405433  81.7662525
  48.0600309 103.1195259  22.5471449  47.3650074 103.5766506  22.0736265
  48.0082321 103.4631443  23.4390426  83.6041355  81.3418961  13.4467781
  83.3777618  80.4246521  13.6005831  82.8360176  81.8309021  13.7419033
  84.0933990  85.9552288  30.4026103  84.2763233  86.6452217  29.7648907
  84.4673347  85.1645088  30.0138283 113.7665493   2.2061496  65.0483227
 113.3710129   3.0760436  65.1035833 113.1568844   1.6994720  64.5118380
 111.3756925  15.9969287  54.7284842 112.0331699  16.5643745  55.1309252
 111.8594343  15.5007033  54.0681934 100.9070331  30.9777312  33.6383295
 100.2738506  30.5752998  33.0438876 100.7969410  30.5033736  34.4624066
 101.0097105   5.3602176  25.8582926 100.7023603   4.9118381  25.0704336
 101.3097746   6.2139659  25.5463505 107.9249477  89.7273922  47.6892710
 107.7755356  90.6694221  47.7698278 108.2948494  89.6176052  46.8132877
  72.6416016  70.9493589  30.2836585  72.5375652  71.0340691  31.2314105
  72.1867371  71.7108154  29.9237704  83.2740593  84.1442966  14.7347903
  83.9783001  83.5850525  15.0627017  82.6153374  84.1318703  15.4291630
  14.0951668   6.4090591  21.9409823  14.9751317   6.4138370  22.3176336
  14.0996300   7.1312099  21.3127208  79.7733766   2.9082255  52.7758503
  79.0030987   2.7029472  52.2459793  79.8866016   3.8536220  52.6776695
 111.8524820  17.3048740  48.5383081 110.9504110  17.6201682  48.5938931
 111.7702848  16.3530688  48.4787464  63.2071066  96.7201805  24.1005731
  62.3140717  96.3756275  24.0978432  63.5631084  96.4696217  23.2480979
  87.2138500 110.3419113  22.1037149  87.0649529 110.2711010  23.0466080
  86.5930462 111.0098648  21.8127012  88.0027008  79.7819805  22.5527906
  88.7764168  79.8052597  21.9897175  88.1756115  80.4413128  23.2248163
  60.7952166  67.5561094  30.6086254  60.7619619  68.0641603  31.4191866
  61.6993046  67.2459126  30.5572987  99.1611130   4.7437816  85.7932186
  98.4263403   4.2454009  85.4355049  99.5686371   4.1502338  86.4239883
  85.8474380   2.4334293  24.6322584  85.6769449   2.5072150  25.5712581
  84.9781782   2.4066596  24.2323804 112.1807415   8.8680034  57.4189329
 112.9644043   9.3846088  57.6065922 111.8322927   9.2460780  56.6115475
  92.7963257 109.7328949  51.1014175  91.8427944 109.8062134  51.0611010
  92.9544067 108.8612366  51.4639854  14.8410641  11.2310462  30.1778960
  14.4499909  12.0939403  30.3146482  14.2111527  10.6194453  30.5591893
 100.8934021 100.0316334  25.6421828 100.1057816  99.4889355  25.6791687
 101.5827179  99.4787502  26.0101390  10.5244671  12.8795676  29.7424555
   9.6683251  13.3064799  29.7107410  10.4930531  12.3381477  30.5311942
  42.0519864  36.7472892  14.4684184  42.5378834  37.1563678  13.7523246
  42.6656949  36.1163287  14.8445559  97.6278496 109.9269676   0.7398480
  97.7624607 110.6982327   0.1891633  97.2144604 109.2876244   0.1596836
  87.8911114 103.4114075  78.0578613  88.8158703 103.3866501  77.8120089
  87.4325752 103.6218739  77.2444248  83.6921310 106.5651989  35.3132820
  83.7875366 106.0418510  36.1090469  83.8070965 107.4692726  35.6059718
 117.7111894   1.3268905  56.7414331 116.9918424   0.9796958  57.2689056
 117.3445350   2.1028285  56.3174963  80.5706501 103.9667034  42.6270342
  81.2098026 103.7643147  43.3102322  80.7897663 104.8563576  42.3500252
  19.3678032   0.4829936  38.1363678  20.1939713   0.9432082  38.2843232
  19.1566407   0.0914340  38.9839053   9.9884736   6.9927554  24.4350839
   9.6838604   6.8514209  23.5387182  10.8286320   6.5360694  24.4773507
  80.2357799   4.8728519  84.1069031  80.9784586   4.7502380  84.6982002
  80.0704223   4.0017657  83.7462234  35.2654301  12.9517703  52.5146389
  35.6636559  12.0949035  52.3615551  35.6910264  13.2752662  53.3086491
 110.6424522  88.3444595   9.0394968 110.7403278  87.8168106   8.2468814
 111.1126232  89.1556454   8.8467818  31.8145197  59.0382002  82.3198631
  31.6382712  59.6078013  81.5710452  31.6544312  58.1536768  81.9908848
  86.3315582  71.8254375  10.3169501  86.9850445  72.3365164   9.8394763
  86.2918377  70.9910250   9.8496020  88.0755121  20.6558948  46.1965990
  88.6588127  20.8249049  46.9364834  88.0651123  21.4783721  45.7070541
  68.4942102 104.0366554   2.0622694  68.2978868 104.7958279   2.6112258
  69.4503832 104.0010357   2.0358610 106.0514051   7.6489978  48.3921862
 106.5166885   7.8362899  47.5769186 105.1268226   7.6436668  48.1445026
  63.5153532  99.9383354   1.3915762  63.2457018 100.8515358   1.2936391
  62.7507257  99.5017719   1.7670730 106.1637575  17.3206763  37.7761984
 107.0164901  17.0726733  38.1333685 105.5357296  17.0505767  38.4461665
  12.6046406   7.3193221  36.6637135  12.6036583   6.4270358  37.0102191
  13.3533417   7.7397113  37.0867276  52.5439566  44.0868090  96.8507130
  51.6159838  43.8938425  96.7170475  52.9070109  44.1412924  95.9667152
   7.8545891   2.1177154  28.0428910   7.2909867   2.4988132  28.7162089
   8.3530461   2.8593879  27.6998377  13.1162488  21.5063243  40.5841303
  12.9210221  21.8993049  39.7334313  12.7887188  22.1406226  41.2218046
  25.0598656  17.3114638  23.3043814  25.2632653  18.2383304  23.4300065
  25.6990468  16.8502383  23.8474751  15.4031884  29.7360473  16.4718556
  15.7074772  29.0034061  17.0074618  16.0619008  29.8184161  15.7822585
  89.8593140 106.0881233  12.9957664  90.3282928 106.7204475  12.4513006
  90.5389309 105.4913807  13.3092117  80.9461117 101.8547726  11.9601679
  81.8942165 101.8043327  12.0817840  80.6351662 102.3624134  12.7097273
 114.6488554   7.5587802  48.2664394 114.2004759   7.1628528  49.0137243
 114.6443636   6.8762546  47.5953436  90.1082993  71.9882584  69.9607611
  89.5622158  71.2047386  70.0249958  90.7164001  71.7984724  69.2463160
  88.6720943 104.6776199  36.6858077  87.9859638 105.2896214  36.9520926
  88.8962460 104.2054176  37.4876857  68.3150911  86.0102940  34.0144587
  67.8411388  85.2883434  33.6016798  68.9664745  85.5824566  34.5702362
 112.3362255  91.7388916  66.6547298 112.6092529  92.0944881  65.8090115
 113.1023216  91.2607861  66.9721127 112.7509958  10.5709128  42.9764223
 112.3402054   9.8390823  42.5160885 112.0805866  11.2540488  42.9866648
   0.0223880 107.1470261  23.1639838   0.4389624 107.6041317  22.4334002
   0.7441096 106.9322777  23.7549448  82.8178215 104.5786285  47.0656967
  82.8212452 104.9425793  47.9509974  82.0136547 104.0612602  47.0225334
  11.9646679  12.5106673  70.1036024  12.8297268  12.9043822  69.9900293
  11.7027794  12.2491412  69.2208576  83.2151031 100.3523159  26.9828987
  83.7740421 101.0712814  27.2777033  82.8265095 100.0061321  27.7862549
 115.5364895  91.1639023  42.0823717 114.6999359  91.5917873  42.2649384
 115.8413887  90.8595085  42.9371262 112.5312025   8.6913257  25.0408244
 112.7782327   9.6125655  25.1216221 111.6731483   8.6356692  25.4613996
 117.0529300  12.7103953  54.0780735 116.7834312  12.8887611  54.9790668
 117.8295452  12.1576839  54.1653395  23.7134379  54.4791792  75.8259204
  24.5298689  54.2066286  76.2447122  23.1035488  54.6092509  76.5521076
  15.1715218  17.8721004  41.6340494  14.2184102  17.8336482  41.5544081
  15.3304612  18.5632949  42.2768688   4.5364718  95.4068851  36.7123771
   4.4664054  95.1660156  35.7886338   3.6320071  95.4214382  37.0253778
  90.6766540  19.0211921  70.4582453  91.5641910  19.3604903  70.5739641
  90.2313072  19.2304187  71.2792969  98.7123966  86.5786266  58.6531210
  99.2749596  85.9426880  59.0950871  97.8736782  86.5146637  59.1099453
  10.0872265  15.5522399  50.1231813  10.5548512  16.1038642  49.4960594
   9.7758996  16.1615424  50.7925510  77.6945496 110.4468536  38.9181662
  77.4837065 109.7160053  38.3371019  77.8411436 111.1867809  38.3288765
  76.2530518  99.0748596  33.9306355  75.9648323  99.9423313  33.6466527
  77.1568012  99.2049026  34.2179585 106.4549160 102.0173550  44.8364162
 106.1714649 101.6783142  45.6854963 107.1973801 101.4642620  44.5934057
  89.9672699  95.7672691  68.4982014  89.4930840  95.0211143  68.8651371
  89.3757725  96.5100193  68.6193609  80.0189877  86.4538574  28.3684468
  80.9198761  86.7420292  28.2214999  80.0983810  85.7221794  28.9804816
  79.9460459  98.3665180  18.2958174  80.3037834  98.9260101  17.6064491
  80.4236794  97.5417900  18.2068956  96.7426682 102.2563744  42.2516108
  95.9323597 101.7472744  42.2302389  97.3616982 101.7014980  42.7261019
   9.9782311  25.2596145  34.5001817   9.8241459  24.5272498  35.0969505
   9.4034039  25.9546905  34.8205924 101.0528118   7.4420886  21.5830660
 101.7443115   6.8913989  21.2159014 101.2816412   7.5287395  22.5084639
  68.3975887  94.6621132  41.5039921  67.6858711  94.7350693  42.1398878
  67.9738092  94.3482304  40.7051659  80.8520126 107.8455353  33.0075765
  81.0502243 107.5616932  33.8999772  80.0185585 108.3100891  33.0835462
  66.5884876 110.5690098  52.9883242  67.4287987 110.8811378  53.3240032
  66.0444975 110.4601479  53.7683582  11.5915143  31.9218307  69.9547720
  10.6994759  31.9573169  69.6094608  11.9568287  32.7857070  69.7637653
  65.6839895 108.9632130  68.3606434  65.8257580 109.8981380  68.5091496
  65.4334927 108.9024067  67.4388075  88.4537029 107.1720505  62.9004431
  88.2417583 106.9330025  61.9981337  89.4002438 107.3144054  62.8944826
   5.5932461   3.6418395  29.2945433   5.6971203   4.4637733  28.8150930
   4.6892487   3.3775382  29.1237640  79.8543119  90.4988956  60.4007244
  80.2798271  91.2924290  60.7255077  79.0219450  90.8040524  60.0397873
  35.3479516  17.9084544  48.6449814  35.4911934  18.8274722  48.8710594
  34.5035111  17.6931911  49.0409708  88.9431095 101.8666649  27.9473186
  89.5032692 102.3007965  28.5907292  88.4511757 101.2211609  28.4548235
   5.9441792   8.3538680  34.1428089   5.0298058   8.2621245  34.4106650
   6.4108502   7.6921992  34.6533370  85.1573753 109.8260498  58.7384510
  86.0857582 109.7282314  58.9500141  84.7375584 110.0051212  59.5798302
  14.8273694   6.5300708  57.9550743  14.8348271   7.3698096  57.4957228
  14.8905598   6.7631583  58.8813114  84.6789265 109.0419865  54.7828865
  84.5549774 109.8557472  55.2714109  85.0002003 109.3234444  53.9262676
   1.9744622   4.0105491   1.4108539   2.5877224   3.2806068   1.4964579
   1.3945805   3.7533717   0.6940319 100.7216263  86.5866280  43.6185932
 100.5075645  86.1934471  42.7725363  99.9284744  86.4741516  44.1425180
  12.2721135  20.2014880  28.7179351  12.2156178  20.1085239  27.7669358
  12.7398907  19.4182830  29.0077758 109.2561275  14.0042071  40.7373381
 109.0541393  14.5370441  41.5064430 108.4061271  13.6776118  40.4422760
  11.3894783   7.0775848  45.1796961  10.4908310   7.3954444  45.2671146
  11.7110573   7.4864726  44.3761873  83.6313152 103.7896633  30.7878661
  84.2542934 104.1962147  31.3902354  82.8439522 104.3295670  30.8571815
 101.0643291 111.1285877  43.0346060 101.7691803 111.2360668  42.3959637
 101.5130043 111.0613632  43.8774586  18.1084191  14.2507510  54.1989183
  18.7089859  14.1162067  53.4658098  17.2785698  13.8789230  53.9000654
  21.2779366   4.9767928  57.9708767  21.8266617   4.6962409  57.2384644
  20.4005467   4.6680789  57.7448082  84.5470810 102.4218369  28.3506155
  84.4703102 103.0894566  29.0322495  85.1521969 102.7996540  27.7123928
  86.0722733  94.6292400  28.9298201  86.0144234  94.3930244  28.0040264
  85.3057957  95.1813507  29.0844774  70.7836151 106.2483311  45.8952618
  69.8721123 106.5404224  45.8865643  70.7371187 105.3125286  45.6994534
  44.1745221  14.2798190  10.8126211  44.4162308  15.1509910  10.4982030
  44.9967419  13.9005332  11.1229837  76.9624519  64.1638947  32.6270413
  77.5796938  64.5211411  33.2654881  76.1384296  64.0865040  33.1079078
  33.2142197   8.7076049  14.7269571  33.7200390   9.4341998  14.3630433
  33.4561669   8.6873679  15.6528509  93.0337698  10.4150729  74.1555262
  92.2815544   9.9167209  73.8360643  93.7921411   9.9806743  73.7651300
  66.0712576  77.1657419  28.8412023  66.8508816  77.0780182  28.2928205
  66.3800764  76.9801235  29.7280002 106.3366890 111.3706970  35.4060531
 106.9043159 110.7121658  35.8065128 105.9436607 111.8310070  36.1475945
  18.4719407   2.9686122  20.4010606  17.8180062   2.7666144  21.0702419
  19.3123280   2.8401046  20.8409095  84.9999619 111.3314629  56.3680506
  85.9289360 111.5620804  56.3750553  84.8643398 110.8587265  57.1892452
  55.8142614  97.8734589  44.6691656  55.2706385  97.9142094  45.4559612
  55.6003761  98.6731625  44.1885853 110.0400001   8.8872676  45.7607937
 110.2377159   7.9699760  45.9498167 110.8958656   9.3144660  45.7257748
  30.4383486  48.3175658  79.7945335  29.9809187  48.3584307  80.6343654
  30.7875603  47.4272154  79.7550800  80.1443577  91.6012764  33.7112927
  80.0846672  92.4303246  34.1859913  80.9180641  91.1716175  34.0760064
   0.5600726  28.3021503  56.6338253   1.0407721  27.8941302  55.9136295
   0.7285630  29.2390781  56.5338039 100.4421026  70.8269351  86.0653308
  99.5911438  71.2089484  85.8504668 100.5214435  70.0740736  85.4795554
   0.0560420 110.7693807  33.3209300   0.1960009 111.4865869  32.7026606
   0.5937498 110.9983034  34.0790176 108.0393644  14.1177690  57.3210049
 107.1982117  13.6720157  57.4209976 108.1773825  14.5595932  58.1588459
  84.1540379 104.4678433  41.9438076  83.7450183 104.2515070  42.7817440
  84.0185822 105.4104991  41.8474579  53.6794961  95.1309771   9.7231245
  53.6908735  95.5800981   8.8779068  54.1996039  95.6913013  10.2991080
  71.1187649  25.5435681   7.5307989  72.0416784  25.7095480   7.7229184
  70.8002186  25.0550246   8.2898015  92.4638570  82.9645510   8.0569476
  92.1708978  82.0694227   7.8862089  92.3980142  83.4039397   7.2091067
  35.3255463  28.0657220  49.1058254  36.2272668  27.8547502  48.8637066
  35.0174212  27.2926712  49.5787764  31.5557194   4.0154144  44.7813559
  31.8026853   3.9706916  45.7050657  30.6274796   3.7820184  44.7700357
 117.7617826  49.2797327  16.3349438 116.9973557  49.4845629  15.7964945
 118.1551588  50.1311636  16.5261436 110.2958263  40.4956102  30.5543542
 110.7125427  39.6721673  30.3003407 109.4466324  40.2343988  30.9105468
  48.1125307  61.8541718  43.4587145  48.7087107  62.5413418  43.1610537
  47.6477766  62.2444057  44.1989517  44.5514536   3.7620181  44.3040037
  44.2130804   2.8931645  44.0876007  45.3409147   3.8513947  43.7701511
  14.5849388  87.9883761  21.5661812  14.2763394  87.9765792  22.4721956
  15.3838557  88.5149569  21.5921140 104.8773033  71.8507105  87.8427777
 105.7944233  72.0974487  87.9621205 104.6086151  71.5079659  88.6951658
  65.6204683  88.1819194  92.4165779  65.1992828  88.8565319  92.9492417
  66.5497953  88.4107655  92.4311718  60.2871799  14.8346746  33.7199044
  60.5454063  15.5987906  33.2044673  61.1071348  14.3695641  33.8859701
  42.1978426  27.9382777  15.6057048  41.3104773  27.8670669  15.9574723
  42.1791315  27.4192071  14.8016846 116.0938371 100.9192057  40.2248955
 115.2790464 100.4425473  40.0663280 116.7334975 100.4976780  39.6509767
  68.2489967  15.8143914  40.8563614  68.5663986  15.4316485  41.6742849
  67.5021458  15.2685261  40.6104517  10.7389324   3.5226725  84.7248879
  10.7420748   4.1137837  85.4777577  10.3191775   2.7254341  85.0480714
  82.8424246  91.5158766  88.4802005  83.0405742  90.5864900  88.3652672
  82.2580129  91.7279618  87.7523854  21.7590380  32.5426054  39.6163011
  21.7612004  33.0860090  40.4042959  22.3464441  32.9956150  39.0113473
  29.1097355   5.3096235   9.0512204  29.9431467   5.1200902   8.6202532
  28.4740067   4.7566801   8.5969806   5.2484047  45.3327990  12.2674704
   4.8432791  45.1278210  11.4248025   6.1858672  45.3746128  12.0786655
  25.4993129  19.7183895  24.4338608  26.1548424  20.1005220  23.8503456
  25.8951139  19.7681284  25.3039765 112.1209444 110.0998817  14.4438183
 113.0343617 109.8317213  14.5437658 112.0480407 110.9002734  14.9637139
  35.7086635  27.7473092  12.7482724  36.5216184  27.3830080  13.0984449
  35.8030581  27.6743650  11.7985356  -0.2372860   9.5129007  45.6914949
   0.5489388   8.9670014  45.7002401  -0.0314274  10.2387917  46.2805080
 112.3536552 105.5170716  37.9537988 112.9944504 105.7747425  37.2910619
 111.5055812 105.6379278  37.5267220 109.8556674 107.2522358  41.0585785
 110.2502836 106.3804461  41.0363913 110.2604331 107.6792143  41.8136168
   7.1775472  35.0280404   5.0303221   7.0734233  34.3393588   4.3737331
   6.2823623  35.2700400   5.2676255  19.3861556  27.8550982  31.9568491
  20.1543546  27.5418997  31.4793491  19.7079396  28.5981727  32.4672675
 113.7047995 108.4079651  17.2673869 113.8839448 109.3403925  17.3887050
 114.5028008 108.0606158  16.8689215  80.5566293  77.3174971  89.1136721
  80.9974796  76.7945188  88.4440610  80.9763748  78.1761878  89.0617433
  28.3355308  31.3878036  62.2054243  27.7212000  31.3069391  61.4758444
  28.3700347  32.3270869  62.3865032  14.5421863  25.5215120  21.6281796
  13.6501598  25.2021742  21.7643571  14.5599949  26.3746381  22.0618749
  53.8347108  68.9744430  96.3639564  54.0362973  69.2968636  95.4855259
  52.9661352  69.3281871  96.5554592  11.0668600  50.5755424  30.7868934
  11.7509317  50.5492449  31.4559150  10.4717624  51.2656736  31.0798264
  54.4577069  84.1100162  96.5431202  54.7942383  83.9762634  95.6570680
  53.8969464  83.3510225  96.7034542 108.4982718   1.1623667  77.1243647
 108.0098809   1.9743775  77.2597959 109.2941583   1.4348839  76.6677108
  56.4714909  42.8926134  37.1671844  57.3615074  43.1451988  37.4127531
  56.2162018  42.2453737  37.8245568  11.8025064  17.0306826  36.4171124
  11.8122315  16.2707055  36.9989824  10.9426916  17.0001292  35.9975696
  35.2093816  29.9694681  32.8730369  34.5959115  30.6665683  32.6407957
  35.6998539  29.8039794  32.0678759  62.6659393  33.6415768  38.3393478
  63.0667686  34.3708277  38.8123822  63.3172417  33.3952332  37.6825738
  90.2152569  71.2449830  86.1562791  89.5651085  71.9447678  86.0943416
  91.0065395  71.6805678  86.4730957  36.6482234  17.6733625  42.7039337
  35.8240986  17.8734434  43.1478024  37.2547865  18.3478057  43.0096102
  56.9237566  36.0133982  15.6740689  56.8181086  36.3045979  14.7683799
  56.8966198  35.0579381  15.6231642 109.9719442 105.2209444  36.7709994
 109.8551453 104.5439805  37.4375653 109.4010771 105.9356911  37.0529222
  24.1685271  20.1089382  12.3990810  23.8949895  19.2702651  12.0275474
  23.9775538  20.7485175  11.7130053   4.0709063  37.1728683   3.9859998
   3.5135585  37.8150725   3.5464922   4.3588546  36.5867972   3.2861149
  81.7258388  80.1482194  88.9342704  81.4779121  80.3797858  89.8293367
  81.0875923  80.6020873  88.3839246  21.9291544  17.6430011  57.7784252
  21.3330531  16.9375980  58.0300188  22.7196813  17.1934485  57.4797583
 117.7052066  11.8301177  39.0981078 118.1942521  12.5829911  38.7660718
 117.9882063  11.0993576  38.5484433  37.0705223  41.8362999  15.8539307
  36.6972375  42.3896265  15.1678395  38.0049801  42.0435858  15.8468473
  13.1961095  33.7700272   2.4677072  12.5204599  34.1340351   1.8956688
  12.8226304  32.9485083   2.7868530  48.6683178  11.2582791  53.9317083
  48.5597801  10.5057955  53.3501434  48.9319658  11.9729233  53.3520508
   5.6136054  33.8563514  16.8091393   5.8839250  34.3406725  16.0290170
   6.2653428  34.0860868  17.4714780  36.3249207  45.9368610   2.0037498
  36.0224462  45.3730011   1.2918511  35.5722642  46.4928913   2.2051798
  16.7512548   5.4603571  17.9164314  16.3234317   4.6306586  17.7047718
  16.9616294   5.3906482  18.8476217  13.0850506  60.9050751   1.0702412
  12.7558541  61.3850594   0.3103224  14.0372515  60.9785700   1.0058589
  26.8528032  40.0968599   9.8526210  27.4468946  39.5117521  10.3226590
  27.0770550  40.9715366  10.1702416  37.1549463  51.4261055  28.1584024
  37.0264196  50.7849646  28.8574362  37.2902274  50.8984280  27.3713279
  33.8786864  30.9839511   4.8277876  33.0241442  30.8394098   5.2341074
  34.0576911  30.1731372   4.3515849 115.7099684   3.8101202  32.3337746
 116.1752590   2.9837060  32.2042561 115.0063185   3.5953909  32.9461479
  45.5326080  10.8618665  12.0108211  44.9981451  10.0677776  12.0110071
  45.4103947  11.2326300  11.1368477  12.3034585  24.7988439  23.4973288
  11.4477324  24.3883348  23.6216187  12.9282701  24.1571021  23.8349843
   0.0796788 111.3290586  29.5645118   0.7133168 110.6522869  29.8026586
  -0.2764541 111.0388774  28.7247515  58.4496450  37.3846745  12.6061869
  57.6701546  36.8358397  12.5201273  59.1232586  36.9241548  12.1057856
 112.3171981   4.8065838   9.1374034 113.0530359   4.4807398   9.6556705
 111.5668477   4.2939514   9.4380933 103.8296093  94.6452744  40.4652119
 104.7700609  94.6150966  40.2895117 103.7055291  95.4505391  40.9675932
  27.2270918  14.5829988  20.1970553  26.5891910  14.0414596  19.7322440
  26.7606688  15.3985560  20.3802156  17.1350574  22.9060102  30.1631832
  16.3723218  23.4332156  30.4009199  16.7691374  22.0642805  29.8914742
  22.8618670  68.8618708  25.0836182  22.9520416  68.9899015  26.0279226
  22.5652552  69.7102165  24.7541380  29.9476051  44.5078850  19.7829461
  29.2499256  43.9236021  20.0797367  30.7558227  44.0308952  19.9713480
  39.4003272  19.9951863  36.4157772  40.0530386  19.7534943  37.0728803
  38.7633705  20.5254889  36.8946290  21.6920042  46.2155008  24.9720860
  21.7040968  47.0940781  25.3518057  21.1377811  45.7065010  25.5636811
  79.0686274  54.5730162  39.4730306  78.5878134  54.1866589  40.2049971
  79.8220778  53.9956045  39.3499660  22.9105973   7.9127902  31.2134552
  22.5312996   8.6411524  31.7052412  23.7098289   7.6914859  31.6914582
  24.6606326  47.5151396  21.2542534  25.1813960  46.7615938  20.9764004
  23.7548614  47.2082281  21.2140894  58.8880634  25.3655815  56.0688400
  59.3331766  25.2083302  56.9015312  58.1263638  24.7863197  56.0912895
  42.3899237 110.1797145  91.5885392  43.0908078 109.5483058  91.7507589
  42.8422738 110.9672778  91.2862894   3.8318875   6.4051092  23.3517241
   3.4267122   7.0226765  22.7428937   4.6193796   6.1038274  22.8986049
  10.2040100  11.7940712  10.8459115   9.7941679  12.6460826  10.6964505
  11.0668445  11.8685210  10.4382277  35.3195977  23.9908004   8.3920836
  35.8543277  23.2191706   8.2053149  34.9505615  23.8223243   9.2590666
  98.4473545  56.5982752  91.5553370  98.0510647  57.1399220  90.8728388
  99.3441183  56.9246735  91.6295841  83.1037504  78.9086264  83.7204102
  82.9757959  79.4587224  82.9475894  83.0704576  78.0127710  83.3849028
  24.1651654  17.0862794  39.8505998  23.6245513  16.3218188  39.6516776
  25.0075698  16.8981016  39.4368672  11.2175864 108.2406516  26.1180568
  11.0891693 107.3367573  26.4056635  11.6186207 108.1619043  25.2524948
  66.3487918  66.9200247  95.1565465  67.2736413  66.6737836  95.1407681
  66.2010152  67.3500114  94.3142252  24.3160510  15.7416320   2.4566221
  24.8490024  16.2639034   1.8571006  24.8845243  15.0148237   2.7112204
  85.6075044  60.1379299   8.0751324  85.9086223  60.9826422   7.7404404
  84.9029465  59.8818493   7.4799412 117.3493399  20.8007002  33.5820675
 118.0313087  20.8194137  34.2534828 117.8289876  20.7848167  32.7538657
   6.9345373  27.5614357  33.1518888   6.8144476  28.4732485  33.4172368
   6.1163616  27.1303678  33.3988738  66.6437721  34.2705774  25.6088591
  67.5830364  34.2454267  25.7915711  66.5016842  35.1253653  25.2021909
  41.3268566  27.4353647  40.0415897  41.7367935  27.7999735  39.2572141
  40.4387045  27.2098637  39.7648787  30.3037548  29.0042210   6.7142099
  30.8392143  29.5703530   6.1583227  29.7902656  29.6098423   7.2487974
  13.2891035  21.4166331  16.8852890  13.9529014  21.1155033  17.5057125
  13.6942554  21.3004184  16.0258842  14.2302668   4.1979972  48.0406857
  13.4753668   4.0453354  48.6090612  13.8511205   4.3548694  47.1758938
  71.2879187  74.3776184  92.4052769  71.9331867  73.9936071  91.8116498
  71.3320858  75.3178340  92.2312748  39.3876386  44.5042753  42.0740032
  39.7676969  44.0334988  41.3322783  38.7636232  45.1122284  41.6774797
  21.3232994  19.3441343  13.6941326  22.1819329  18.9553607  13.5272944
  21.1181068  19.8247981  12.8922021  34.5795655  14.3757594   8.1829268
  35.3930855  14.7916222   7.8974909  34.3704867  14.8034489   9.0133488
  17.1087778  21.5550303  12.4282098  17.4759138  20.9087968  11.8250299
  17.0488417  22.3583388  11.9111657  37.8293300  20.5539250  38.7123108
  38.3156943  21.3565636  38.9005971  37.0504165  20.6104422  39.2657852
  41.6955948  22.6892972  27.5418687  42.4458599  22.1181250  27.7064657
  41.1162758  22.5453496  28.2901335  76.7412663  14.5084667  21.5869188
  77.3302698  14.9336338  20.9635878  77.1927834  13.7002349  21.8300819
  38.0117226   4.5940933  63.7153578  37.3265910   4.1037712  63.2610369
  38.2709169   5.2748644  63.0943918  42.6232195  39.3817568  28.2702637
  41.7034149  39.1237116  28.2102489  42.8895426  39.1161799  29.1504765
   9.7005159  20.2428007  34.9989104   9.1655308  20.8950663  35.4512072
  10.4308438  20.0769687  35.5950260  35.2919912  36.4779925  50.0247908
  34.6832132  35.7572222  50.1863813  35.7972670  36.5508342  50.8344936
  97.1343947 105.8217515  49.2787027  96.4158941 106.0393340  48.6848593
  97.8714372 105.6244535  48.7007093  89.5361138 109.5245531  48.1786346
  90.4516984 109.7929391  48.2554722  89.0414775 110.3422533  48.2327890
  91.2610746  92.4706478  30.3118372  91.3755632  93.1154306  31.0099649
  90.9861303  92.9854007  29.5531106  30.9061360  29.6319175  17.9564166
  31.2013531  30.3646278  17.4158454  31.7128992  29.2442036  18.2955933
   7.1328348  18.7211847  23.8324618   6.6956395  18.5650718  24.6695518
   7.0286059  19.6602833  23.6792850   4.7375506 102.7821709   5.2161580
   4.7694939 102.8913034   4.2657363   5.6354779 102.5596620   5.4620099
  45.3857374  21.8396115  29.4834161  44.7768164  21.5151596  28.8199568
  46.1929464  22.0179677  29.0008903  61.3314820 108.5261608  25.2884030
  60.4580570 108.3084736  24.9628663  61.1838592 108.8347266  26.1823964
  18.0315638  10.3060949  55.5681372  18.6050117   9.7873759  56.1323357
  17.7718675   9.7032279  54.8714733  67.0120621  21.7471004  25.1193190
  67.6424360  21.8724346  24.4099855  67.3566723  21.0062027  25.6178641
  19.7448611  44.8411512  15.5800056  19.4361460  44.4245863  16.3846183
  18.9513862  44.9817419  15.0634158  20.8523250  24.4828105  22.3622656
  20.1346874  24.3036175  21.7547154  20.4468131  24.4487429  23.2286572
  64.7683573  28.5654950   3.3964542  65.1331282  29.4241357   3.6107233
  65.1090908  27.9840994   4.0762436  58.5108089  69.5211220  25.9432435
  58.2621527  68.7009525  26.3695359  59.3005943  69.8015547  26.4056635
  41.9822550  26.4944386   5.5111229  42.7205801  26.7284799   4.9486870
  41.9179678  27.2173858   6.1351794  33.9496446  32.3123288   1.5832339
  33.5288262  31.5055847   1.2860700  34.8848486  32.1083164   1.5842356
  41.2600422  32.4087644  19.6789038  41.1881638  32.5958562  20.6148839
  40.4133081  32.0285964  19.4449270  25.8696532  24.1707754  11.7674863
  26.4698052  23.4675503  12.0155263  25.9749794  24.8289800  12.4544394
  66.1887056  90.9291309  65.5920413  65.6366641  91.5381640  65.1015737
  65.6376321  90.6383722  66.3186839  59.4528913  56.0119104  26.8625689
  60.0740099  55.6100702  27.4699974  59.9714041  56.2021303  26.0807824
  71.0905361  30.1817083  38.3037949  70.7370424  29.3027043  38.1673360
  71.1026907  30.2900076  39.2547703  71.2125969  41.8656826  39.3601036
  71.2996674  41.0240030  38.9126372  71.7001915  42.4801445  38.8115382
  98.1598473   2.3489201  21.2203860  97.6408672   3.0896422  20.9069824
  97.6428223   1.5781242  20.9863162  39.9555445  20.6187606  33.8887715
  39.6607804  20.3704953  34.7649646  39.3834925  20.1308060  33.2964110
  31.6544604  53.4501553  20.5900097  31.4752197  52.5551653  20.8782816
  32.6070619  53.5308743  20.6376338  13.0562973  41.5266275  17.3229396
  13.8034868  40.9658289  17.5313640  12.3961818  40.9268093  16.9755268
  42.5894260  33.7586379  33.3660889  42.8631496  33.5317230  34.2548037
  41.6337252  33.7889338  33.4102130  49.0887594  24.7373128  26.3859582
  49.8940611  24.2768645  26.6219902  48.5980511  24.1067839  25.8588243
  36.2371826  -0.0807063   5.8249426  36.0302615   0.6635679   5.2597243
  36.9536972   0.2305337   6.3780862  85.3506691 101.4923614  94.6712781
  84.6264250 102.0361322  94.3614121  85.2799732 100.6857103  94.1608363
  53.5268497  17.8185749  30.1334953  54.3687820  18.1803894  29.8569608
  53.7474203  16.9774199  30.5335450  38.5822248  30.9044504  62.6605892
  38.2039189  30.0429106  62.8362751  37.8255987  31.4777899  62.5379753
  46.4563274  33.9890242  11.3213301  46.8248081  33.1126642  11.4328766
  46.2678003  34.0521812  10.3850067  76.3001204  31.7126870  27.5523591
  76.4434719  31.4192438  28.4521222  75.7041168  31.0625219  27.1804714
  27.5732541  46.7205811  44.0123844  27.7473855  46.5585756  43.0852032
  27.9068232  47.6041985  44.1679001  49.7753000  53.2962132  36.2543225
  48.9543295  53.7864065  36.2100983  50.3889704  53.8947153  36.6802740
  30.7126689  35.7951689   4.2437023  31.1154389  36.3259339   3.5564643
  30.0426388  35.2839994   3.7898308  28.8154435  37.5545359  10.5823839
  28.8739109  37.9044509  11.4714134  29.1749525  36.6699195  10.6490409
  80.2356529  20.8723712   7.2331816  79.9117517  21.2535214   6.4170665
  80.1052284  21.5594459   7.8867477  54.5534372  35.0287104  19.5961773
  54.3767548  35.6593537  18.8981068  55.5020666  35.0661826  19.7183514
  34.0568113   0.2577557  48.2631111  33.2901621   0.6682304  47.8631210
  34.7897673   0.8166759  48.0050087  41.4419079  45.0478649  48.0435276
  41.4568758  44.3849516  48.7338591  42.2622967  45.5282593  48.1549501
  67.5224781  61.0324383  34.5393014  68.4422874  60.9048700  34.7714710
  67.4324226  60.6182909  33.6810446  61.0938740  52.2399569  31.6170979
  60.7303905  51.4946508  31.1389399  61.3253164  51.8842411  32.4750781
  54.6198416  45.3780317  31.6456127  55.2815819  44.9478102  32.1871352
  54.4904900  44.7826862  30.9073305  13.2234573   6.2355262  40.8549118
  13.9889646   6.0935855  41.4117670  13.5825562   6.3236344  39.9720097
  56.3464212  38.4675384   0.7933459  56.7050457  37.5832033   0.7187020
  55.6171560  38.4833598   0.1735477  74.4030476  35.5430436  38.1527972
  73.6520720  34.9507523  38.1146717  75.1486063  35.0014806  37.8937888
  83.2643414  22.0434189  18.3633304  82.3502827  22.0920062  18.0833817
  83.7560463  21.9081020  17.5533056  52.3428631  45.2337217  18.8268113
  51.6999197  44.5781374  18.5565102  52.6602697  45.6105137  18.0061316
  92.4255068  95.3561729  89.7501430  91.6709930  95.5266421  90.3139511
  93.1275303  95.1170343  90.3552970  24.7929096  73.1981516  28.8591242
  25.5230594  73.5825396  29.3442631  24.1880751  73.9267969  28.7195301
 116.3927997   6.6282652  88.1919929 116.9875158   7.3527525  88.3860513
 116.3131965   6.6326617  87.2381189  53.9608717  28.1177759  34.0070677
  53.0116940  28.2282090  34.0627193  54.1584682  28.2098341  33.0750203
  66.8820763  32.0641971  13.1112027  66.3478088  32.5518680  12.4843323
  67.6896477  31.8682098  12.6361799  46.9484234  50.3252935  20.4514718
  46.3998652  50.9949875  20.0430346  47.2533226  49.7871637  19.7209346
  33.2818007  20.2160645  26.0756493  32.9989886  20.1614237  26.9884825
  32.4940991  20.0192618  25.5686736  46.0942459  34.1196895  32.8423309
  45.5856180  34.4345665  33.5895777  46.9548988  33.9147305  33.2077122
  24.3727517  35.5559063  18.7144876  24.3520689  35.2094889  17.8224111
  24.9666905  36.3050365  18.6668062  40.3617954  41.7314768  34.3577933
  41.0018539  42.4366999  34.4538212  39.5794463  42.1631813  34.0145802
  40.1183176  42.5177717  40.0403881  40.6782436  43.0182123  39.4468641
  39.7424197  41.8294239  39.4916487  58.6049223  41.9109678  48.0136728
  58.5463381  41.1971664  47.3786259  59.1406536  42.5746727  47.5792503
  49.2666388  23.0916309  20.2517200  49.0231323  22.4873233  19.5504725
  50.0414753  23.5446930  19.9191582  66.9192314  20.9491801  21.4099431
  67.7362871  20.5003309  21.6271758  66.7680979  20.7388592  20.4884481
  26.4271927  73.6706781  15.8156097  25.9075046  72.8961897  15.6003916
  25.8349228  74.2220163  16.3269579  27.8426504  45.1534462  18.0527663
  28.6016440  45.1494360  18.6359847  27.6909804  44.2301941  17.8507018
  36.2053204  18.6468315  20.6292033  36.4234900  19.1766191  19.8624206
  35.5544186  19.1658652  21.1016083  44.9701214  41.7215872  33.5167837
  44.6409130  42.0985556  34.3327165  44.1825724  41.5152359  33.0133820
  72.4569995 111.1882251  85.3344634  72.2352821 111.4537614  84.4419578
  71.7529780 110.5916207  85.5887309  46.0255241  43.1679773   7.8467500
  45.8767033  44.0785265   7.5918275  45.1490545  42.7861118   7.8937805
  42.4144554  39.4609308  23.7149906  42.3775244  39.7851872  24.6148372
  43.3466959  39.4627070  23.4978342  59.2457724  35.8921504  29.3740773
  60.0564146  36.2878203  29.6942878  58.6607885  36.6343617  29.2219353
  68.4640295  80.1253551  83.8326576  69.0168983  79.3693703  83.6350396
  69.0698821  80.8661097  83.8540104  72.6217175  23.9453006  22.0365047
  71.7410183  24.3146563  22.1011591  73.2001734  24.7076368  22.0149755
  71.4136655  97.4936240  95.8418682  72.0294744  97.6480716  95.1255175
  71.4503605  96.5486234  95.9897119  42.9623985  18.4952664   3.9187768
  43.8016939  18.9542258   3.8845310  42.3578596  19.1299546   4.3034026
  27.0900941  23.8882923  27.2428298  27.1435976  23.7223387  28.1840158
  26.4170265  24.5633960  27.1565437  75.6590748  18.5471964  44.2698145
  74.8480272  18.6951399  44.7561789  76.3071585  18.3385420  44.9426365
  32.5399709  46.5079737  21.2435222  33.3581948  46.0946274  21.5189910
  32.4568653  46.2808943  20.3173685  34.8639512  32.7606773  30.4763269
  34.6385312  32.6245904  31.3965988  35.5935025  33.3799839  30.4974890
  47.3124027  49.2625809  29.1688752  47.3730898  50.1892948  29.4007158
  48.1884813  48.9156771  29.3373179  49.9202442  49.3015671   4.2776355
  50.4209852  48.5057926   4.0980867  50.5535889  50.0116825   4.1735056
   2.0181514   0.5449009  38.0611777   1.1639422   0.9377514  38.2406974
   1.8137154  -0.3034415  37.6677918  99.8282719  13.7540066  13.3387434
 100.1864052  13.0082834  12.8572178  99.1073608  13.3855093  13.8493633
  39.0676260  21.3882017  54.9030828  39.8893332  21.2834191  54.4234467
  39.1682029  22.2163320  55.3724623  27.5960875  43.2540607  29.4931960
  28.2471347  43.0095482  28.8354874  26.8987560  43.6787701  28.9936090
  87.1035576  24.5426583  16.5286982  86.9155025  25.1937556  15.8527267
  87.3138523  25.0590491  17.3067415  61.1877441  21.7240644   1.1695825
  60.7934523  21.0564828   1.7309174  61.7192459  22.2534728   1.7641124
  54.6593237  41.9285154  46.5458107  54.7032499  40.9982395  46.7669153
  55.0260878  42.3738194  47.3096323  46.0649443  27.5178075  29.5222330
  46.8553066  26.9916916  29.4007301  45.4080486  26.8949151  29.8332453
  13.0532473   4.6941183  94.3029062  13.7629908   4.8265265  93.6744433
  12.2581261   4.9081038  93.8148263  44.5610142  35.5633998  20.2770472
  43.9984560  36.3309360  20.1738691  44.4177914  35.0526214  19.4802904
  72.8201818  39.6522093  11.1658108  73.4179115  39.6838188  11.9127703
  73.3616734  39.3454289  10.4385543  40.7395077  14.4229269  24.6903157
  40.1363945  14.1150463  24.0137839  41.5505981  14.6138453  24.2192364
   7.6836139  21.9289112  54.2463255   8.3244061  21.9401598  54.9573040
   6.8587500  21.6934156  54.6710300  61.4339495  39.7653580  64.9128723
  61.6708040  40.4307175  65.5589628  60.7306004  40.1667166  64.4025421
  22.8647137  43.7939215  26.8111777  23.0373240  43.0229855  27.3516345
  22.9085445  43.4703350  25.9114003  31.2941194  41.6772413  56.7493105
  32.1841407  41.8132210  57.0742750  31.0335279  42.5297976  56.4007854
  25.2334189  38.0553555  15.7923043  26.1581206  37.9343224  15.5766511
  24.7888088  37.3278260  15.3572714  67.4149370  23.7713099  40.0783873
  67.5658655  23.1634617  39.3545294  66.8222189  23.3020878  40.6655407
  50.9815025  26.7042661  50.9212780  51.4408207  27.5417042  50.8583641
  51.6598892  26.0468292  50.7670212  72.0882368  13.4881938  56.1676788
  71.8380976  12.6188886  55.8546782  71.2849903  13.8473654  56.5445328
  38.6824727  17.8575873  38.5839510  38.3321667  18.7446868  38.6650372
  39.6246719  17.9588687  38.7189937   6.9977921   7.1103476  96.7671627
   6.8535441   6.5998410  95.9704125   6.1802595   7.5916432  96.8945323
  30.9893894   4.1662061  20.6640196  31.6876459   3.6851746  20.2198625
  31.2935400   5.0737256  20.6754851   3.5916346   2.4248074  83.0615714
   4.3187207   1.8376921  83.2686177   3.7037867   2.6265906  82.1326259
  39.5699215  50.9359789   5.0721318  38.8122439  50.7478046   4.5182842
  39.7854042  50.0957012   5.4767752  64.9101830  11.4652777  13.9112449
  65.7518244  11.9175303  13.8535202  64.2605591  12.1682477  13.9186406
  44.8022747  53.3701324  36.6423750  45.0832605  53.7671089  37.4668074
  44.2540216  52.6314163  36.9068527  27.7870727  30.2064204   1.1228884
  27.4913859  30.9849358   1.5948150  28.7219119  30.1475286   1.3199675
   4.2033356   2.5765417  79.9445632   3.9672917   1.7711113  79.4843510
   5.1604527   2.5856636  79.9358633  82.9259205  45.7206869  20.8538675
  83.4443665  45.0333881  20.4354572  82.5714397  45.3075504  21.6411996
  50.8121347  29.5194340  14.5286632  51.1166525  28.6243629  14.6781588
  51.0724068  29.9957991  15.3170586  61.4838511  96.4525645  96.3757731
  62.0322997  95.8448690  96.8718990  61.9254166  96.5385574  95.5308723
  10.5040860  42.9003239  49.5173025   9.5531726  42.9816818  49.4439745
  10.8275080  43.7984133  49.4461298  50.9335518  28.2340574  30.2871752
  51.5836239  28.5615635  30.9087706  50.1170731  28.6604118  30.5475950
  15.9052813  22.6885891  16.4956546  15.1368272  23.1613588  16.8153393
  16.6494060  23.2122231  16.7928398  29.1316366  27.9990554  16.0463881
  29.1175199  28.9404917  15.8739758  29.3506241  27.9289842  16.9755638
  19.0502810  31.5882516  40.3490353  19.9946988  31.7098999  40.2515221
  18.9042151  30.6666255  40.1357269  79.4360018  20.6591654  29.7182226
  79.0535307  21.4148784  30.1641464  78.7228870  20.3105402  29.1832805
   1.4533364  75.5917447  87.0533720   0.8791529  75.6939762  87.8123787
   0.8705985  75.3091508  86.3485411  47.1811867  27.0217776  48.4201097
  47.2787476  27.0593643  49.3715811  46.5072107  27.6721334  48.2225704
  66.4737177  15.9174800  11.2653697  65.5773020  15.6129503  11.1242020
  67.0181704  15.2849257  10.7966685  26.6597772  35.6294227  12.5873160
  26.8543696  35.3115797  11.7056465  26.3706779  36.5326977  12.4579072
  55.2880430  49.5041943   9.6300441  55.6801605  48.6563158   9.8387867
  54.6204662  49.6317911  10.3040540  42.7042866  10.1429355  28.6121368
  43.1632948  10.0487852  27.7774644  43.3761168   9.9812490  29.2745066
  51.7976284  62.9393005   9.3136764  51.4471817  62.8974867  10.2034354
  51.8626881  63.8755894   9.1256332  51.9517994  63.1706142  22.5761867
  51.7906809  62.2362232  22.7072644  52.3487854  63.4626341  23.3967733
  34.3942326  11.4854859  87.7216562  34.9716967  12.2463654  87.7835449
  34.9319237  10.7518481  88.0198082  22.9032373   5.7317030  25.5835152
  22.5404596   6.5492660  25.9244180  23.7370944   5.6299543  26.0423851
  41.2765932  19.4905841  38.2742667  41.7991209  19.1710043  39.0098429
  41.7428923  20.2690101  37.9695511  50.5620670  32.9523897  21.5217495
  50.1082754  32.1218562  21.6649985  50.5329752  33.3909845  22.3720527
  56.9408035  14.7443080  20.2314425  56.1016464  15.0720203  19.9079478
  57.5742865  15.4150033  19.9762976  53.7854624  34.1651678  49.3516731
  54.2401218  33.4497356  49.7962809  53.3129025  33.7404132  48.6357832
  65.6403685  13.2462835  67.8469563  66.5700006  13.0193722  67.8700304
  65.6058025  14.1476035  68.1673622  52.0798635  48.4156275  20.7915521
  52.7578878  48.3793926  20.1168633  52.5642729  48.4433413  21.6166663
  61.5752029  22.9518557  29.0059090  61.1371136  22.7675438  28.1750417
  60.8690310  23.2162452  29.5955300  43.9047050  25.3861928  42.6211262
  44.7811699  25.7617283  42.7048922  43.7895584  24.8669314  43.4169531
  23.2842803  17.6526868  11.4798117  24.0821695  17.6365495  10.9512818
  22.6021075  17.3249483  10.8937573  41.0214376  18.3512568  30.7154727
  40.8738184  17.8306663  31.5050459  41.8124390  17.9778159  30.3267765
  68.9919806  34.6960521  26.8004322  69.0763807  35.3635573  27.4812746
  69.7608423  34.1376925  26.9158125  26.6244817  19.2340481  29.0366364
  27.0013523  18.5111868  29.5383024  26.3132930  19.8495817  29.7003460
  63.9564425 101.0545676  86.7685988  64.0277702 101.3599675  85.8642343
  64.8341901 101.1734050  87.1314624  20.6452131  54.5846415  33.7976742
  19.9532628  54.5893192  34.4590473  21.4213228  54.2759371  34.2652059
 104.6809084  90.3549665  85.0389615 104.4663317  89.6705621  85.6728223
 104.0826875  90.2004116  84.3078819  37.3320007  11.1337161  94.8343372
  36.5830970  10.8298349  95.3471947  38.0308342  10.5127203  95.0398254
  29.7936392  24.4067669  43.5858488  30.2754021  24.5991445  42.7814054
  29.9235797  23.4685898  43.7243032  32.5872612  58.2423782   3.7531981
  31.6928315  58.2225657   4.0935406  32.4821997  58.2184505   2.8020823
  48.5581779  12.1363318  46.4580154  48.3355284  11.7689025  45.6026459
  49.3252420  11.6382086  46.7403507  52.6356697  54.0956020   4.2815205
  51.8893957  54.5546150   3.8960224  53.1066370  54.7713614   4.7691390
  65.1051569  40.4649782   9.4826812  65.4554749  41.2523270   9.8993206
  65.8535814  39.8709822   9.4256324  59.0129852   6.4641041  18.5768855
  59.4487762   7.2969759  18.7575626  58.6264563   6.2093365  19.4146931
  48.7178850  44.0312004  52.3412704  48.4806681  44.1220379  53.2641506
  48.6061573  44.9095821  51.9776773  60.6112177 108.2161134  95.1445953
  61.3326985 108.4716170  94.5697763  60.0346405 108.9800304  95.1593071
  71.0818834 100.5011041  31.8586874  71.4739300 100.7688792  31.0275269
  70.3056211 100.0007219  31.6071582  30.9320307  24.6359444  41.0078239
  30.6300330  25.2267385  40.3179026  31.7127562  24.2199945  40.6421947
  10.3647637  27.8923988   7.7828664  10.9650111  28.6346912   7.8531277
   9.5576626  28.2693601   7.4325502  84.7928905  33.8169074  30.8858109
  85.0372982  33.3291078  30.0993323  85.3987312  33.5059118  31.5584707
  49.2989397  44.2779016  35.6119943  48.5388184  44.4356394  35.0520229
  48.9704037  43.7070560  36.3065672  43.0399370  25.0500035  33.0817914
  42.4786806  24.3346786  33.3810139  42.4812984  25.8261704  33.1232762
  75.3585107  85.9584397  90.5674901  74.5424277  86.4563077  90.5188241
  75.5336983  85.8767551  91.5049699  43.0790710  49.2757750  43.1652021
  43.9474583  49.5655966  43.4447289  42.8414726  49.8772669  42.4595213
 116.2138332  19.8640774  91.3907519 115.6178034  20.3049515  91.9962343
 115.8923162  18.9633463  91.3514659  56.1791420  23.4248734  50.8612537
  56.7616892  23.6881208  51.5736914  56.2285852  22.4689937  50.8522272
  61.0125971  53.8741589   0.4358897  60.6592846  53.5131073   1.2489364
  61.9348097  53.6177635   0.4408045   7.7002138  25.9600139  13.3826053
   7.2996813  25.3817892  12.7334023   7.1744853  26.7591786  13.3483100
  87.3513014 109.1351455  66.4483359  87.8370458 108.3109277  66.4792231
  87.2913820 109.4122499  67.3625877  33.9786077  48.1107998  43.5445595
  33.4925938  48.1681395  44.3671989  34.8862457  48.2908106  43.7895584
  33.2893610  23.9200926  11.8138540  33.1437087  24.8451591  12.0120203
  34.1916275  23.8823080  11.4964890  60.4568195   9.8759824  31.6288757
  60.3347778   8.9274740  31.5880108  59.9084234  10.2186537  30.9231329
  66.7586660  41.7455769  37.2347379  66.2128353  41.1526728  37.7512312
  66.1536407  42.1444941  36.6094017  85.5651474  36.6585517  12.5978279
  85.9375763  37.4210978  13.0406010  84.6325397  36.8591857  12.5189650
  32.1232796  17.2662008  56.9200230  31.1849070  17.3073995  57.1043968
  32.5288653  17.1170437  57.7741194  48.9720201  40.7736635  29.4590235
  49.0815973  39.9102712  29.0605497  48.4666014  40.6077814  30.2548051
  28.7595868  36.7178512   7.4734372  29.6198368  36.3601804   7.6931471
  28.9337659  37.6261234   7.2265863  40.1096678  47.4289083   9.9883604
  40.3641701  47.8087521   9.1474193  39.1989946  47.6986742  10.1072288
  40.5014753  52.6745701  10.9012294  41.2498426  52.3137140  11.3765860
  39.7366023  52.3071909  11.3442123  68.4418392  33.6618328  19.4293070
  68.5845613  32.7372122  19.6316350  68.1475449  34.0451598  20.2555561
  65.5996418  51.2778854  11.3767374  65.8552408  51.8507910  12.0997012
  66.1981153  50.5333662  11.4380252  26.1476231  17.0395720   0.5832838
  26.2009859  17.9006267   0.9979750  27.0539403  16.8221867   0.3651856
  32.5208426  28.4584069  60.5246401  31.8000150  29.0103865  60.8278847
  32.1615148  27.9865813  59.7733116  34.9698639  44.7479820  50.7459354
  34.6892571  44.1348886  50.0665140  34.7387600  45.6103134  50.4006720
  72.9430151  55.7392550  18.4918666  73.5415077  55.9532070  19.2075920
  73.1407166  56.3847446  17.8132713  46.3689423  55.7016993  43.8484097
  45.5409575  55.9773874  44.2416954  46.4799356  54.7950792  44.1346788
  41.8543816  47.6826048  35.0078893  41.1616230  47.1360588  34.6369481
  42.6646376  47.2196245  34.7948909 110.6529344  82.8207917  40.5550098
 111.4518751  82.6199837  41.0424566 110.4251255  81.9993300  40.1196575
  50.1911688  61.6778421  20.3167605  50.4099655  62.5741196  20.0617194
  50.8673573  61.1398220  19.9050200  35.9839416  31.4014101  46.4658308
  36.2339687  32.0854115  47.0870113  36.6387343  31.4588070  45.7699966
  61.2586576  98.2620853  92.7659944  61.6128546  97.3998588  92.9835793
  61.4630682  98.3777803  91.8380603 117.2106439  97.2109693  81.7561295
 118.1198580  96.9273370  81.8515614 116.7983658  96.5222352  81.2346855
  63.6258936  64.4437933  28.0399752  63.2329798  63.5840845  28.1908250
  63.7163019  64.5022535  27.0888495   9.0383738   9.0602635  91.3714954
   8.2940834   9.4010971  90.8754077   9.2670983   8.2429217  90.9289291
  85.9219170  83.4081173   6.7973304  85.3696537  83.7449455   7.5028652
  85.3718185  83.4624100   6.0158712  20.0926542  19.6580887  57.0305967
  19.5430934  18.9683485  57.4027205  20.9763575  19.4500196  57.3339224
  45.8171272  50.2244806  44.1278934  46.6001177  49.8857021  44.5619249
  46.1124420  50.4553652  43.2471466  73.3668548  91.8453520  92.5308701
  72.5584442  92.3074477  92.7526194  74.0446455  92.5205796  92.5608754
 117.7082663   7.9148316   4.2873421 116.8505143   7.5035447   4.3938166
 117.9685311   7.6977181   3.3921576  63.4115750  95.5619400  89.5878807
  62.9243809  95.0665372  90.2462497  63.3818633  95.0127810  88.8044438
  73.3752871  22.2210550  19.9805605  74.1518641  22.5502825  19.5280504
  73.2420778  22.8333926  20.7041144  83.2010746  44.3550205  58.5154200
  82.4242496  43.8459444  58.7469578  83.1636238  44.4287968  57.5618029
  22.6642275  32.0883060  50.4913521  23.3533549  32.1194243  49.8277521
  22.3580694  31.1815119  50.4763746  91.9623071  50.0300800  94.9129364
  92.6628143  50.4900783  95.3754544  92.3739607  49.7131454  94.1089929
  46.9602394  57.4530888  10.0404871  46.6627121  57.8866911  10.8402991
  46.5487528  56.5893173  10.0690472  57.4660587  10.6163251  45.1545954
  56.5942764  10.7360506  45.5312872  58.0627823  10.7103193  45.8971024
  80.7105858 102.0070356  86.7048886  80.0796730 102.7190393  86.5988871
  80.4267627 101.3404172  86.0793498  51.8036175  42.1861219  42.1301508
  52.5325871  41.8983984  41.5805626  51.0643291  41.6470432  41.8489313
  26.4875364  53.5703325  45.5020332  26.3547230  53.4955215  44.5570469
  27.2601676  54.1281843  45.5918884  65.3014135  30.8248115  14.8694849
  65.9605265  31.3605547  14.4281447  65.7186079  29.9696660  14.9739349
  37.4453115  48.5292387  41.3171196  36.5051484  48.4604979  41.4832497
  37.8427768  48.5327387  42.1878910  80.5573368  31.5824604  45.9733772
  80.8094025  31.0230160  46.7080307  81.0159588  31.2099576  45.2202892
  42.4197197  42.4754477  31.8648362  42.5392294  42.3965311  30.9184098
  41.5646267  42.8939819  31.9641995  29.8791313  40.1520014  27.1603751
  29.8596334  41.0673571  27.4396181  29.5606327  40.1700640  26.2578988
  28.7612271  30.7015657   8.1330585  29.1253614  30.7814026   9.0146852
  27.8780079  31.0634708   8.2050347  76.9171143  20.2997804  76.6924477
  76.5525103  19.8806989  75.9129190  77.8431559  20.4258871  76.4856243
  48.1451368  48.7809849  18.7466145  48.7021255  48.1179714  19.1545415
  48.7428951  49.2948580  18.2036150  24.7158861  27.8194499  27.5539327
  24.7360325  26.8628383  27.5807214  24.1241431  28.0665493  28.2645774
  51.4898825  28.5359669   0.2261638  51.4455700  28.3404088   1.1621261
  51.5400743  27.6781774  -0.1956310  48.8507366  41.9802189   7.9010820
  48.2223368  42.3436642   7.2771788  48.7756348  41.0322332   7.7919561
  52.3785830  10.6309581  20.8624744  52.0963478  10.0554478  21.5733647
  52.3526382  11.5097141  21.2410855  47.7271223  40.6297922  31.8421674
  47.2559881  41.3418770  32.2748280  48.4568357  40.4336119  32.4297571
  56.0503721  47.3446655  18.2311440  55.9355068  47.2985268  19.1803074
  55.4107857  47.9963112  17.9438794  64.6248865  30.1706028  27.0283508
  64.9199438  29.3017673  27.3009253  64.5118380  30.6530166  27.8473330
  46.7903042  11.5883398  24.3060589  47.2836161  11.4705801  25.1178503
  47.3491669  12.1460998  23.7649417  80.1357204  91.3282316  95.6575831
  79.4550306  90.6635087  95.5525476  80.8181650  91.0723370  95.0370827
  26.2497449  32.4592590  40.9478807  26.9446468  32.8334308  40.4062700
  26.6846418  32.2261047  41.7680836  59.0868425  50.2679157   0.5939499
  58.3608675  50.0009918   1.1578177  58.9138126  49.8332930  -0.2411522
  59.7537279  47.8526640   8.8313347  58.9855433  47.3097658   9.0084946
  59.8141098  47.8778934   7.8763741 114.5863570  22.0201729  64.5892766
 114.1888631  22.5216673  63.8774255 113.9054574  21.9762419  65.2606013
  73.1035948  67.5293350  47.5800848  73.8390779  67.0982218  47.1448421
  73.2383442  68.4617853  47.4109316  34.1154385  39.4129539  16.7202783
  34.5321417  40.2352285  16.9780648  33.7115908  39.6041822  15.8737731
  62.7338743  80.4098701  41.3856649  62.2666550  81.2420559  41.3120985
  63.6596203  80.6517506  41.3587999  43.7569475  52.3093510  44.7129869
  44.6365881  51.9863415  44.5177078  43.4704351  52.7292156  43.9019012
  41.0817719  52.4960089  57.7499533  41.1802530  51.6604280  58.2063913
  41.7338514  52.4648380  57.0499182  38.0954623  41.8857288  53.7401247
  37.2259641  41.6371632  53.4264040  38.1494188  42.8271198  53.5754871
  21.2269943  16.5030239  71.7488745  22.0639866  16.2223671  72.1188906
  20.7200783  16.8029259  72.5034121  40.3452730  54.2390108  47.2901678
  39.8681545  54.9321079  46.8338728  40.5697298  54.6212673  48.1385374
  56.1651421  47.7107859  20.8280349  56.3221598  48.6198282  21.0834193
  55.3243303  47.4910927  21.2292790  63.1992912  55.6734180  10.0521469
  63.2878160  56.4455557   9.4933975  62.5213766  55.9118032  10.6844771
  82.5887299  32.4095130  30.9034157  83.4519768  32.8173065  30.9722662
  82.7268410  31.5066242  31.1896801  16.8724966  30.9547925  48.5835838
  17.7203596  31.1396003  48.1795979  16.2674367  31.5633917  48.1596279
  74.4525623  47.9135323  41.3986254  73.5887480  48.2026100  41.6927290
  75.0397396  48.6301136  41.6393805  45.6933451  27.0797157  25.3187037
  44.8017883  27.2359228  25.0073123  45.6549788  26.2172651  25.7321501
 112.2919876  94.1765969  72.5933078 113.2290870  94.0194004  72.4777225
 112.0838863  93.7744039  73.4366157  72.7975082  17.2689366  37.4469924
  72.1876049  16.7495418  37.9708982  73.6282969  17.2107112  37.9188323
  46.1041403  30.2416778  54.2641163  46.4209652  29.7847295  53.4849834
  46.2880707  31.1650634  54.0916109  52.8649330  50.8215952  27.0915270
  52.1131754  50.9132624  27.6769280  52.8408098  51.6076469  26.5458369
  81.3082487 101.4002937  93.1298768  82.0641929 101.7270988  92.6420471
  80.8642561 102.1893781  93.4404442  60.1192474  67.5134850  20.8239627
  59.7055626  67.7164316  19.9849689  59.5378017  66.8694258  21.2281203
   2.1837826  43.2468557  35.4963160   2.1509248  43.2909536  36.4519334
   2.3929676  42.3324299  35.3057957  57.3239231  34.6622801  18.6163461
  57.2488070  35.4966331  18.1532633  58.2662630  34.5046663  18.6745882
  94.5317394  98.0577272  91.6892072  94.6441967  97.2364562  91.2105641
  95.3421814  98.5412162  91.5290221  32.9522681   6.1332697  48.7098217
  32.1797729   6.6948205  48.6454296  33.3125424   6.3200223  49.5767450
  58.7126255  42.0392370  27.3796916  58.1932259  41.6305447  28.0720997
  58.1167459  42.0914364  26.6324067  68.6155891  38.0830050  42.6806068
  68.7036753  38.9000010  42.1897030  68.2481146  38.3485532  43.5236263
  46.6033602  63.2071257  29.5609021  45.9741497  63.8629580  29.8612618
  47.1386051  63.0180979  30.3316236  51.5194798  65.6690311  28.0977845
  51.1224556  66.2273264  28.7662983  51.0411263  65.8787203  27.2956371
  50.0439644  62.3358679  33.2657623  49.8160362  61.8093204  34.0319395
  50.9954119  62.2577620  33.1959009  73.0623960  27.2138429  25.2492309
  72.2059631  26.9045877  25.5443931  73.0725908  28.1436634  25.4763079
  41.5166569  40.4544163   7.8965902  41.4241362  39.5037961   7.8334218
  40.6864309  40.7516527   8.2688880  22.8324478   9.1652487  89.0508786
  22.4937647   8.8571928  88.2102701  22.7618426   8.4064863  89.6301243
  58.0686855  36.3395572  32.7063012  57.8699446  35.8603859  31.9018555
  58.8373280  35.8963203  33.0654144  81.8358213 101.3625568  89.4280574
  80.9526712 101.2096732  89.7640708  81.7083341 101.5585035  88.4998420
  46.9742680  71.5758991   8.9621902  47.0429850  70.6387472   8.7798238
  46.0336351  71.7530441   8.9545584  70.9415293  33.9897346  14.9484515
  71.1105108  33.4673834  15.7325602  71.5592813  34.7184467  15.0083828
  80.3008556  83.1451130  42.8563356  79.8993063  82.7600861  43.6352777
  80.7808208  82.4222755  42.4521446  25.5608130  21.7814255  46.3411760
  25.8296609  22.4317122  46.9900846  24.6048546  21.7757940  46.3895798
  62.0088959  47.3826218  30.6437325  62.2068787  47.2484922  31.5705800
  62.6597786  46.8549442  30.1809812  42.4251175  35.4667711   1.3326396
  41.7407227  35.3766251   0.6695333  42.2021675  34.8148513   1.9971119
  86.3250906  96.5725988  90.7798478  85.9810955  96.0921138  90.0268301
  87.0823652  97.0464605  90.4360071 114.5420152 109.8341697  76.9240108
 114.7785217 110.5960172  76.3949707 115.1182300 109.8840039  77.6867190
  61.4451551  50.6062984   7.6166099  60.5295897  50.3892136   7.4409902
  61.7315912  51.0840511   6.8381888  38.4755731  14.7150350  42.4896097
  38.3283067  14.9361300  41.5700102  39.2883182  14.2093945  42.4871922
  56.0440493  33.5124230   8.0701202  56.9546509  33.5753345   8.3583564
  55.9428358  32.6017475   7.7932501  77.0049286  65.5587149  28.1075001
  77.9524326  65.6380653  28.2178259  76.6430044  65.8094358  28.9574313
  65.8232546  33.9461684   6.0474509  65.6926107  34.7666240   6.5228629
  65.2609444  33.3160949   6.4980567  82.5547791  57.7759838   9.4070911
  83.4082699  57.3848581   9.2205423  82.0267963  57.5790453   8.6333477
  76.9371367  27.6236367  44.8593473  77.5778103  28.0117965  44.2634439
  76.8728209  26.7103577  44.5800352  75.8830643  83.7822914  17.3277330
  75.6865931  83.7335300  18.2632840  75.2020693  84.3515301  16.9693387
  31.2261128  52.8275299  24.0006876  31.1518192  52.1038008  23.3786511
  30.4240346  53.3346033  23.8750792 103.4384043  91.2932819  80.6084063
 103.8582069  91.3799351  79.7525504 103.8453609  90.5191940  80.9975174
  11.6122645   3.8687323  91.0194155  10.9997433   3.8022564  90.2868685
  11.5952748   3.0019854  91.4252409  37.8503769  32.5348662  95.5401376
  38.2846897  33.1806277  94.9828310  38.4163302  32.4624918  96.3087033
  31.5049434  55.9479046  37.6111197  31.5988684  55.4171991  38.4021688
  32.3072362  55.7833624  37.1156549  47.7385950  69.0414238  12.1882939
  48.1916285  68.2072544  12.0652080  47.1925926  69.1349173  11.4076722
   9.5550698  17.2963856  55.9019640   8.7272375  17.7477740  55.7370975
  10.2248162  17.9659174  55.7626799  54.4105577  80.1769543  16.5351939
  53.8450670  80.9260941  16.3474584  53.8775396  79.6076584  17.0901978
  95.8804542 104.1932910  88.4254452  96.4345104 104.9119609  88.1208685
  95.0119669 104.5842641  88.5208317  55.7659149  53.5692215  35.8262897
  55.3849077  52.9831505  36.4801955  55.1899862  54.3337679  35.8253479
  13.4264916   6.5078877  96.1953219  13.4233874   5.6723879  95.7282454
  12.5409334   6.8515394  96.0773367  28.1585479  43.5885334   7.7216542
  28.6251307  44.2100382   7.1628493  28.6068797  42.7549219   7.5791186
  42.4009657  60.9394026   0.0503160  41.7199850  61.4125443   0.5284781
  42.2044086  60.0154877   0.2051460   4.6319693  27.8450201  94.2844705
   3.8986986  28.2617281  93.8318208   4.2211598  27.2144030  94.8759064
  27.4689024 103.7654443   9.9610358  27.7475088 103.0694736  10.5562139
  27.7230089 103.4537477   9.0924108  72.1232843  52.0391321   8.1299424
  72.5422668  52.7894783   8.5514456  71.3439417  51.8711758   8.6597067
  66.2645817  13.1457198  53.5926056  65.9937239  12.3354614  53.1609249
  67.2042704  13.2061481  53.4206533  47.5525284  50.9388351  23.2939076
  47.3693275  50.5323362  22.4468946  48.4747696  50.7428789  23.4591508
  73.9329386  44.5357656  25.2706361  74.0413284  44.9642563  26.1196828
  74.0530682  43.6042786  25.4553747  41.4489460  55.0680351  38.8792825
  41.3488579  56.0177517  38.8140607  42.3813391  54.9367189  39.0514064
  78.0124426  76.5831089  22.1456385  78.4785128  77.4000454  21.9678164
  77.1506739  76.8615770  22.4555397  10.1313895  26.7819022  79.1232398
  11.0711306  26.6957663  79.2835727   9.7212952  26.2783526  79.8264375
  85.1890594  75.5105310  86.1041155  85.3562910  75.5763965  87.0442894
  86.0042984  75.1661735  85.7393792  31.7776680  36.6013908  40.2565193
  32.1369410  37.4614882  40.4742002  31.8738484  36.0911489  41.0606575
   0.5401122  93.7454193  83.6508897   0.7695614  94.0471261  84.5298436
  -0.3831829  93.5011595  83.7149218  66.3590240  45.7813454  31.1685729
  65.7837915  45.4744911  30.4677296  66.3528681  45.0720501  31.8112969
  29.7191048  18.2213271   5.1246434  30.0021267  19.1300881   5.2260464
  28.8821363  18.1781113   5.5870783  57.8081894  45.3856611  25.6723666
  57.7214146  46.0666990  25.0053644  57.9461288  44.5795202  25.1750350
  68.2650280  27.8374648  23.0218744  67.9452801  28.1460762  22.1740818
  67.4800158  27.5342321  23.4779859  84.8272324  18.0225563  23.7926912
  84.0415001  17.4882615  23.9083767  84.9436665  18.4627295  24.6346664
  49.6219873  28.9873743  38.8257265  49.9250984  28.2445240  39.3477678
  49.6421957  28.6698198  37.9229617  48.0603743  33.2867289  39.5387101
  48.0569983  32.3368478  39.4206095  47.6606417  33.6289191  38.7391162
 112.3217184  86.6050666  86.2725010 112.4244911  85.6767982  86.0627773
 113.1716711  86.8660396  86.6270527  42.1744347  33.6327267  25.1479197
  42.8248453  33.7902927  24.4635463  42.6843739  33.3219934  25.8960080
  49.5898724  72.0033836   3.7149304  49.5811415  71.0478020   3.6599523
  48.7344217  72.2301340   4.0796453  67.4915600  54.8072624   3.8003778
  67.0707893  54.3467188   4.5263842  68.0570650  54.1497612   3.3952546
  75.6042940  76.5874379  87.7586487  74.8692853  76.0309952  88.0162635
  75.3210456  76.9945710  86.9399634  17.8329628   1.5936278  89.2310604
  17.3476427   1.5002392  88.4113201  18.0975645   2.5133513  89.2493036
 110.1723129 110.0317186  96.3453247 110.1141578 110.5141681  97.1700038
 109.4615490 110.3851836  95.8104263  46.0982704  43.2741117   3.4772253
  46.2594223  43.0366230   2.5640649  45.7235861  44.1538382   3.4333730
  49.6105289  64.6482801  22.3890543  49.6058464  64.9939728  23.2816386
  50.3759193  64.0742779  22.3585272  99.3500501  90.1915091  82.3723152
 100.1987964  90.5447190  82.6389673  98.7689525  90.3830665  83.1084278
  53.5109377  34.7598767  15.6408298  54.0727949  34.0494084  15.9503162
  52.6206446  34.4245839  15.7466269  41.3208771  48.6035538  37.7838564
  41.4158869  49.5271158  38.0167532  41.6007471  48.5570621  36.8696666
  40.6905174  48.5914373  12.5436389  39.9360418  48.4581614  13.1174302
  40.4096460  48.2487345  11.6951692  61.7848021  76.9008630  86.4499011
  61.7795021  76.5252774  87.3303214  62.5530154  77.4717658  86.4376727
  52.6651812  68.0032873  29.8412299  51.9900513  68.0529213  29.1644955
  52.3175764  68.5243988  30.5650043  58.3952236  74.9171066  22.3797917
  59.0462255  75.5366039  22.7094173  57.8941536  74.6614933  23.1542754
  79.4734222  72.6063924  85.1216200  80.1812870  72.0639771  85.4693928
  79.8796779  73.1044501  84.4123056  79.1857862  37.5641346  42.0148849
  78.9717817  38.3843040  42.4595833  78.8678789  36.8813539  42.6056290
 107.8444559  89.7307008  81.6316631 107.9721147  90.2527946  80.8396080
 107.3387462  90.2980393  82.2135725   6.5988070  73.0749750  34.1940570
   7.2200060  72.9716396  33.4731793   5.9631950  72.3709536  34.0652800
  42.6393938  66.4937449  11.6382360  42.5550890  67.2685242  11.0825002
  42.4047136  65.7624960  11.0668981  36.1364889  49.2065620  29.6317935
  35.2660036  49.3784666  29.9908710  36.0887790  48.3069229  29.3083596
 102.0809401   1.8880986  85.0910142 102.2873844   2.3290013  84.2668667
 101.1273826   1.8048428  85.0857940 117.0233334   1.5374087  95.9656855
 117.2472871   1.1950157  95.1003283 117.2505988   0.8301256  96.5692837
  33.5905766  35.5053568   9.5385981  34.1998863  35.6470037  10.2631056
  32.8638625  35.0193381   9.9283463  44.9965113   3.6548804  93.4905472
  45.7326144   3.1067656  93.7624892  45.2420824   3.9717053  92.6213264
  73.6569691  36.5632129   1.3524604  73.9869356  36.8938208   0.5169643
  73.3715248  37.3458743   1.8238322  56.6998196  55.7874489   6.9168574
  57.2275114  56.5347862   7.1983927  56.6832638  55.8520842   5.9619856
  70.6923962  32.4941468  36.7465091  70.0826168  32.3401427  36.0249233
  70.7704115  31.6441560  37.1797085  80.1776028  54.6263742   2.0374183
  79.4823408  54.8009729   1.4031006  79.8896599  55.0684023   2.8361243
  34.8996353  80.9085655   1.5327071  35.2722836  81.7323112   1.2183458
  34.3207383  81.1659718   2.2502419  95.6860191 103.1820291  91.5427658
  94.8168499 103.1866878  91.9437048  95.5552561 103.5815995  90.6828388
  27.4065304  18.9904976  16.6138160  27.1730685  18.1737328  17.0549750
  26.8753958  18.9928961  15.8174980  21.8466640  62.3070335  18.1444120
  21.6888404  62.0660257  19.0572321  21.0817480  61.9761181  17.6736355
  39.9265432  60.8466768   3.2713461  39.1753578  60.9652233   3.8526344
  39.8344278  59.9533653   2.9400823  84.3472481  75.0234795  21.1449361
  83.7231350  75.7386541  21.0214925  84.3851471  74.8996830  22.0933390
  60.8569622  34.4537425  51.2557030  60.1868773  34.8783326  51.7913723
  61.0734797  35.1015377  50.5850935  64.8610312 102.9808419  81.5414527
  65.1197988 102.3836559  80.8395687  65.3193814 103.7972587  81.3424364
  47.0662117  36.3941383  43.7351418  47.8518200  36.9059420  43.5424948
  46.3597298  36.8637443  43.2917643  64.0607214  31.6639018   5.8826917
  64.8018837  31.0753775   5.7393533  63.4717035  31.4905167   5.1483721
  79.1121244  53.4906626  31.7432284  78.3537865  53.8979197  32.1619177
  79.8435736  54.0698624  31.9570994  55.3959942  72.1941519  22.3134661
  55.9781694  72.1735048  21.5539432  55.9661198  72.0005703  23.0575824
  41.1357737  52.8260088  21.2206769  40.4107571  53.4226894  21.4065599
  41.4606047  53.1033421  20.3640532  65.3016043  46.6956377   6.6219878
  65.5789852  46.3708878   7.4786252  65.0058365  47.5904799   6.7893636
  52.4165726  59.6059608  22.2014809  53.0927658  59.3016291  21.5961885
  51.6062212  59.2198372  21.8691087  66.5668869  73.8103199  28.8082671
  67.1926975  74.5271206  28.7044001  66.7246914  73.4809113  29.6930408
  46.2240076  52.4556541  33.9012098  47.0143747  52.1418190  34.3405986
  45.5221128  51.9056511  34.2491651  56.7618608  81.7090321  23.8372660
  57.2074270  82.5561905  23.8319373  57.1844435  81.2117481  23.1370068
  58.8960791  44.7382927  22.2575331  59.0700960  44.9540854  21.3413525
  59.1646004  43.8235426  22.3433185  42.5612276   0.3505896  79.4244519
  42.5940054  -0.5395939  79.7747817  43.1409472   0.3298281  78.6630562
  61.1131811  51.5363407  12.3918390  61.5782404  51.4635563  11.5583789
  61.3606548  52.3970079  12.7298367  38.7950420  57.7955723  27.9578352
  37.9770041  57.8839731  27.4687219  39.3595099  58.4844255  27.6069927
  27.1063161  37.6353884  30.1669979  27.1126699  38.4868264  30.6043148
  27.8291178  37.6821446  29.5412159  66.4213562  67.6186514  25.1236773
  66.2736750  67.0816183  25.9021473  65.9541988  67.1609068  24.4247723
  64.5026302  60.4767609   2.9118863  63.9999914  60.1239014   2.1776707
  65.1435184  59.7948503   3.1131154  64.5193917  84.8091429  82.4215105
  65.2187163  85.3925365  82.1268466  63.8256008  84.9194306  81.7713383
  70.1965458  82.7565354  90.6812957  70.8653170  82.4400180  91.2885800
  70.3918821  83.6874121  90.5738374 117.4064888   3.0964087  90.4833999
 116.7950548   3.7877606  90.7372066 116.9674219   2.2840069  90.7352981
  75.4272938  31.3680100  37.7270126  76.1486197  31.9911075  37.6394129
  74.6799326  31.8083596  37.3223281  33.7934995  93.0594444  22.1690059
  34.5284176  93.1736660  21.5664434  33.5073566  93.9506245  22.3694086
 117.8005010  96.1393493  94.6804644 117.3241884  96.7998307  95.1835707
 118.5858232  95.9637492  95.1987986  56.1868477  68.3041620  11.4838898
  56.4799595  69.1340065  11.8602908  56.7700386  68.1599045  10.7387006
  29.8141336  53.0089331   1.3462824  29.2019868  53.7440729   1.3790728
  29.2823648  52.2444057   1.5675379  39.5267200  35.4442787  19.2260981
  38.6616063  35.2853203  18.8485503  39.3515348  35.6703687  20.1395679
  54.0529871  62.7465343  17.2664368  53.8967180  63.6648893  17.0463705
  54.2686939  62.3332644  16.4304280   2.8328341  18.5153721  72.3968890
   2.7060192  17.5681017  72.4500778   1.9494074  18.8790081  72.4565103
  67.3313475  50.5666161  27.4685550  66.3983297  50.7717609  27.5287080
  67.3952436  49.6555901  27.7552295  20.1559639  27.3971677  21.1597157
  20.2568555  28.2623315  21.5566325  20.8798146  27.3336196  20.5366302
  28.6557293  44.6513081  34.1481113  28.1644106  44.1776228  33.4769464
  28.2682586  44.3651676  34.9752879  81.1461258  42.0450544  24.3811679
  80.7185364  41.4771414  23.7401700  80.7173824  41.8351126  25.2108312
  23.3092117  24.2106485  12.9501414  23.2484627  23.4830832  13.5691643
  23.9342594  23.9116693  12.2897184  82.5726032  84.9001598   9.7524410
  82.4510860  84.6396446  10.6654572  83.5221672  84.9204063   9.6334881
  58.7022734  51.0031557  34.6652102  58.7211704  51.9589710  34.7131348
  57.7978230  50.7928228  34.4329214 117.3266281   8.5724161  92.5584549
 117.0983566   9.0257881  93.3699837 117.1182288   7.6541279  92.7303445
  31.9771194  45.9676313  18.5066545  32.0094204  46.5694332  17.7630007
  31.8955374  45.1004696  18.1096518  64.9378729  46.7078447  13.8420630
  65.8067799  47.0595789  13.6483574  64.3809032  47.4811697  13.9314389
  62.6185656  75.8621073  11.1110663  62.9266882  75.9858608  12.0088279
  62.6662254  76.7340899  10.7191408  46.0719967   1.8680088  68.8918781
  46.3904381   1.0145670  68.5978317  45.2635431   1.6718581  69.3653393
  67.1120119  33.7397885  10.0767469  67.2988224  34.2198873  10.8834922
  66.3799429  33.1662583  10.3033984  64.8805141  36.1745000  10.0271988
  64.9719858  36.5117288  10.9183443  65.6034660  35.5546808   9.9302763
  80.0133038  65.1892853  28.8743520  80.9547615  65.1265383  29.0354538
  79.8708296  64.6713161  28.0821157  63.7274415  94.1308635  68.9682844
  63.6661965  93.3927243  69.5746091  63.1598717  94.8011439  69.3488362
  50.7296085  50.8842707   0.9176783  51.2424231  51.4979792   0.3917362
  51.3768578  50.2767706   1.2757981  66.1918163  42.8501940  55.3016710
  66.8626165  43.1868315  55.8957529  66.6841316  42.4030876  54.6132278
  51.8828344  43.3366585  36.1155701  51.0332108  43.5647154  35.7382584
  52.4538994  43.2063484  35.3585148  18.1607121   3.8722990  86.1762443
  17.3832720   3.3235358  86.2795749  18.7057226   3.3995150  85.5472198
  77.7338934  72.5082111  36.0649824  78.6457109  72.6209688  36.3335013
  77.5079012  71.6229200  36.3503313  98.8536453  45.1069212  23.2909966
  98.8361835  46.0225964  23.0126667  98.4910870  44.6239090  22.5483799
  45.7363987  51.6329956  25.6233859  46.3322449  51.4469290  24.8977327
  45.7203674  50.8233738  26.1337590  10.0504410  44.2221975  25.5632615
   9.3489540  44.1134405  26.2053800  10.0888574  43.3822012  25.1059151
  53.7361336   2.7878869  35.6531572  52.8741503   2.4424763  35.8853459
  54.1163349   2.1195728  35.0830388 104.2615349  84.6609157  93.8643455
 105.0621969  84.7146695  93.3425405 103.9534838  85.5652135  93.9241883
  39.0034914  33.6996126  37.7120805  38.5266709  33.2121229  37.0403457
  38.5519195  33.4863591  38.5286808  54.1180038  45.9746933  28.7892318
  54.5752430  45.1345253  28.7534308  53.1894732  45.7421923  28.7902927
  25.6616705   7.4760483  93.9115333  25.0479668   7.8327606  94.5536828
  25.9251946   8.2318066  93.3865416  56.8407297  58.9118099  11.9083023
  55.9020042  59.0831614  11.8330073  57.2057152  59.7258425  12.2552514
  92.6012594  76.1866468  96.8363680  91.9845659  75.8256214  96.1995177
  92.8560669  77.0333045  96.4696556  52.3915386  45.3754997  25.1850724
  51.5214825  45.5281353  24.8163819  52.6440334  46.2191153  25.5602956
  35.3158855  51.5447235  22.4169588  35.1309443  50.6063175  22.3792148
  35.1574707  51.8560934  21.5257883  87.3184586  61.9703436   1.7231618
  88.1060600  62.5142908   1.7297788  86.5953732  62.5963163   1.6840038
  17.4012327  53.3628368  16.1603451  16.8010008  52.6375198  16.3331747
  16.8578100  54.0279388  15.7377803  49.3737507  66.4599657  29.5559907
  49.7453403  66.1506176  30.3820968  48.7290955  67.1184158  29.8150110
  78.5033989  24.2574620   3.2193270  78.0854321  23.6118078   3.7891224
  79.4070482  23.9532328   3.1350994  48.3723736  41.2673903  17.9596198
  48.2096004  40.6005287  18.6267292  49.2482233  41.0671091  17.6294577
  86.1051178  39.9297142  10.9876573  85.2883720  39.8497343  10.4949439
  86.0026741  40.7369661  11.4917243  68.4117794  35.5846691  17.7326608
  68.3558750  34.7322512  18.1645072  67.8280115  35.5094910  16.9778121
  36.7501020  59.0879536  29.8043537  36.8379283  59.8802328  29.2744350
  37.3855615  58.4777832  29.4300389  59.0927792  85.3951168  34.1270328
  59.2408466  84.8413754  33.3604336  58.1967545  85.7150078  34.0219617
 105.2757818  99.7865813  81.0867348 105.8221132 100.5514949  81.2674561
 105.7150013  99.0663045  81.5389731   6.2237614   5.6689928  89.2584243
   6.4705342   6.5715216  89.0564880   5.2834671   5.6328200  89.0830275
  40.8564901  40.3300381  21.6993666  41.3459063  39.9805403  22.4440527
  41.4946938  40.8584118  21.2200475  37.1060944  33.5347056   8.4654641
  37.6023507  33.5699129   9.2832172  36.8566561  32.6149106   8.3760828
  17.3780525  37.4816990  24.9468398  17.9743207  37.7372813  24.2430115
  16.9880795  36.6615367  24.6443701  60.9887266  69.9106932   7.3050863
  60.8210516  70.8201504   7.5520784  61.9092989  69.8994923   7.0430648
  83.4521103  52.4231815  43.0429697  83.4466839  53.3586836  42.8403854
  83.5373211  51.9942284  42.1915197  55.9094143  42.3975325  17.4199080
  55.8340931  42.9066277  16.6128266  56.6757441  42.7622890  17.8625345
  63.5640049  47.1578312  38.6715531  62.7198267  47.4314785  39.0303206
  63.4739256  47.2810268  37.7265978  88.0985451  62.7507782  46.7944574
  88.6020851  63.3506584  47.3447466  87.1928215  63.0474424  46.8832207
  80.8300591 103.4968185  14.3756604  81.3865185 104.1471195  14.8042560
  80.2659607 103.1662083  15.0747514 105.9036142 108.1004708  80.9958711
 106.4054138 107.3091787  80.8002058 104.9927980 107.8070014  81.0185328
  15.2087277   8.5085104  84.5699969  16.1183089   8.2473181  84.7137871
  14.7134989   7.6911305  84.6235540  80.2634525  38.7577629  26.5685129
  81.1145115  38.6516523  26.1434698  79.9412918  37.8640866  26.6859365
 105.0674516 101.7761272  95.2395654 105.2643759 101.8767303  94.3082583
 104.2871506 102.3127788  95.3787152 101.7174721  81.7767620  17.1937549
 101.1520290  82.5473881  17.2453308 102.5999641  82.1169281  17.3411226
  47.8450888  18.3687065  94.2803177  47.5103777  17.8316401  93.5621548
  47.5363653  17.9288052  95.0724089  51.2842655  91.7094231  49.1812897
  50.5917835  91.4530087  49.7903538  51.0772943  92.6151276  48.9508629
  83.2091713  61.3121891  14.2453372  82.6539230  62.0030212  13.8838375
  83.0852985  61.3763094  15.1923203   4.8525178 109.6153539  85.3749564
   4.5835244 110.4401200  85.7794669   4.9297368 109.8196452  84.4430044
  17.7780789  26.6355036  91.9817328  17.1104973  25.9801482  92.1844026
  17.3586577  27.2162436  91.3468584  68.2446003  85.8864594   3.6699221
  67.6109791  86.5028858   4.0370435  69.0702391  86.1061668   4.1015157
  44.6230906  12.4423741  93.1867608  44.9874132  11.6388510  93.5580411
  44.0577048  12.7900408  93.8764736   0.4516571  11.4116524  66.8676451
   0.0670474  10.8440874  66.1996773  -0.0270778  11.1975859  67.6684072
  13.5236758  32.5511931  77.8603330  13.6300391  31.6076277  77.7394464
  14.2782181  32.8115366  78.3886519  64.7039938  48.8161421  34.6763396
  65.1452923  48.2836628  34.0145636  64.9647093  49.7145891  34.4737196
  94.1318876  93.0553883  93.3953324  93.5721618  92.7081316  92.7008167
  93.8362343  92.6072353  94.1877836  49.8768187  63.3886003  29.9367619
  49.1726351  63.1511211  30.5400586  50.1384020  64.2683840  30.2083898
  74.2461729  95.9953690  15.6772578  73.4363031  95.5270767  15.4746580
  74.7409296  95.9837627  14.8579228  80.9264565  54.7804928  35.8032942
  80.8707905  53.8407421  35.9765029  81.0111618  54.8440933  34.8519731
  43.8778162  73.1389618   5.5794919  43.9241743  72.2053385   5.3735077
  44.6263075  73.5225201   5.1224655  80.4192162  69.9408770  21.0675740
  79.7238731  69.2883730  20.9840751  80.7470036  69.8287439  21.9598818
  98.1092453  70.7873917  36.4665151  98.4955883  70.9622049  35.6083727
  97.7869987  71.6388845  36.7620564  72.6447868  74.1158342   5.4173964
  72.7380180  73.8701248   6.3378125  71.7804956  73.7883425   5.1684356
  75.4656553  51.4929056  11.1705303  74.8543644  52.0659208  11.6333532
  74.9989748  51.2377405  10.3747082  98.2783699  76.3372755  12.5678623
  99.0927219  76.1252403  12.1116781  98.5447598  76.9305468  13.2702148
  33.9992857  91.1517811   7.6058412  34.0617085  91.6812611   8.4008139
  34.8929715  90.8458519   7.4510378  45.1941395  57.2394371  21.8984389
  44.9390459  56.7039204  22.6496935  44.9772358  58.1348944  22.1579266
  96.6859913  67.4015951  30.2204776  97.2196674  68.0115223  29.7111535
  96.0702991  67.0346498  29.5860457  86.6397285  84.2617321   3.2793003
  87.3957157  84.2703819   3.8663617  87.0013714  84.0200710   2.4266294
  47.2319984  82.2064495   8.7640387  47.0787573  81.4051819   8.2633215
  47.5742197  81.9019127   9.6044987  63.1399870  78.3790731   9.7570145
  63.8711691  78.0074644   9.2635447  63.5547495  78.9237547  10.4259896
  64.6239328  61.3456011  26.8861866  65.4162455  61.6316509  27.3407745
  63.9092112  61.7712164  27.3597455  91.3029003  16.5009844  21.9307208
  90.8525467  17.0853376  22.5405931  91.5076351  15.7238126  22.4506426
  71.2347555  60.9196663   6.3184023  70.7121944  60.3490973   5.7548308
  71.3204575  61.7334795   5.8218181  32.1391273  99.1870499  20.1799965
  31.8909883  98.5892677  20.8852005  31.3400364  99.6787739  19.9905491
  70.9291220  85.7379913  17.2007823  70.7101583  86.2189198  16.4026642
  70.7302237  86.3486290  17.9105628  81.4233208  62.5217485   1.4231642
  80.8747864  61.8409824   1.8129081  81.2744522  62.4391937   0.4812211
  60.6612492  99.2389870  37.2352743  61.1654091 100.0309181  37.0484877
  60.3983641  99.3327999  38.1508732  42.6651573  44.9055624  22.0187974
  42.7937984  45.1563072  21.1040235  42.6362038  43.9489317  22.0031285
  63.1570816  47.6762152   3.2761183  63.5424232  46.8034029   3.1990403
  62.7367401  47.6773643   4.1360852  81.8386555  66.6288137  17.9816091
  82.7617264  66.6756201  17.7326632  81.6167736  67.5211382  18.2476127
  60.6148434  74.3435192   4.5775169  60.6469107  75.1481724   5.0949520
  59.7648716  73.9569998   4.7881913  57.7128523   6.4725159  95.7766231
  57.4072188   5.6546114  95.3843807  58.6446303   6.3263319  95.9398978
  55.4625654  71.6003418  10.3230226  55.3739214  72.1227598  11.1201763
  54.8826170  70.8515549  10.4616511  48.4504509  51.7733383  12.0796156
  48.3458614  51.2153196  11.3089621  49.1436768  52.3876572  11.8382025
  71.3454151   5.2731764   4.2284808  72.2235489   5.1283747   4.5808217
  71.4210367   6.0815984   3.7215623  84.3133068  50.0590658  19.4405460
  84.8430538  49.3551207  19.0662944  84.8881149  50.8243465  19.4273221
  94.1575909  87.8322315  12.8594542  93.4632874  87.9005623  12.2040939
  94.9523544  88.0939007  12.3945665  71.7235327  75.3270626   0.8200569
  71.0437822  75.2936983   0.1469614  71.2809467  75.6843805   1.5899113
  41.7790318  88.4690762  33.6074305  41.0960722  88.1828499  34.2139554
  41.3122749  88.6594963  32.7937269 112.5607092 110.7173150  95.4095119
 111.7070085 110.3028339  95.5345425 113.1863434 109.9940007  95.4498469
  46.7920685  62.5522184  13.8650942  46.1361217  63.2324219  14.0176868
  46.6793203  62.3128033  12.9452026  41.6802138   3.5051630  81.4668932
  40.7679861   3.7242363  81.6567996  41.7168921   2.5511931  81.5363374
  18.7907236   7.6541851  93.4881091  17.9141491   8.0140160  93.3525592
  19.3224304   8.0528115  92.7991900  80.0295734  46.2873173  39.2995024
  80.6556702  46.7068291  38.7093830  80.4382801  45.4525185  39.5281792
  45.1722670  34.4543076  42.7041864  45.7952929  35.0745416  43.0828381
  45.5599260  33.5947466  42.8688288  95.0229723  96.6671317  70.9753540
  95.1121170  95.7140988  70.9718516  95.7628567  96.9749730  71.4988425
  82.4927235  76.9295788  21.9321680  82.3393154  76.6430902  22.8325129
  82.3056698  77.8682470  21.9443417  90.9832478  35.7795858  17.4804664
  91.7791271  35.7268262  18.0096292  90.8202744  36.7180562  17.3858988
  39.7410744  63.4740637  86.9016829  39.6071118  63.0243872  86.0673681
  38.8613718  63.7277029  87.1810141  64.1913891  64.6361494  25.3189111
  64.6445751  65.1739931  24.6696186  64.3932962  63.7351513  25.0665832
  62.8460121  42.4939919   1.6330439  62.7740765  43.1320524   0.9231594
  63.7862873  42.4244452   1.7982095  57.1111965  73.6321497  31.7481256
  57.4887514  74.4295406  31.3768411  57.2484684  73.7188768  32.6914525
  88.2634354  57.4618912  32.8630781  88.7523079  58.0548429  32.2924256
  88.1994438  56.6476393  32.3639464  67.4321324   3.4217506  10.8283734
  68.2520396   3.3577876  10.3385854  67.3760850   4.3429427  11.0823274
  74.7805309  56.3205147  20.2825451  75.5825663  55.9278870  19.9378455
  74.7182417  55.9903097  21.1788249 108.3909351 108.5457414  84.1093829
 109.2781431 108.1871646  84.0866330 108.3740694 109.1883796  83.4001842
  50.9275723  62.2076035  41.9594002  50.7496452  62.3850346  41.0357714
  50.6719732  61.2932396  42.0812035  60.8052015  94.1567421  20.8919859
  61.0746479  94.6579647  21.6616678  60.1754284  94.7229481  20.4458690
  77.3667383  57.1037436  34.1215539  76.5039968  57.5175810  34.0959716
  77.7299452  57.3593664  34.9694729  81.9421959  76.3613129  24.3883538
  81.0426712  76.6823339  24.4518828  82.4830532  77.1177864  24.6152020
  87.6331997  82.1417522  50.1204872  87.7597332  81.5219975  49.4020700
  87.1347523  81.6517830  50.7744884  75.8982706  89.8547077  22.1150374
  75.8433867  90.7992172  22.2603559  76.5293598  89.7583771  21.4018202
  55.1988649  76.5485144  15.4980457  56.0220289  76.0750675  15.6183863
  54.6825027  75.9878016  14.9190784  67.4576998  69.7078896  28.4849548
  67.0358324  68.9054585  28.7921453  66.9329119  69.9814987  27.7326465
  84.6609116  74.3110275  33.5317993  84.1908264  74.3483973  32.6988173
  84.8075390  75.2276325  33.7654066  44.0477324  58.5965776  30.7866168
  44.7803211  58.0350733  30.5331397  44.4228458  59.2083168  31.4200974
  60.8620882  45.5245161   4.3766487  60.6941700  45.5584002   3.4349012
  60.9674978  46.4403534   4.6342486  53.6859369  84.2863178  29.3341684
  53.2638359  85.0150967  28.8792658  52.9861069  83.6457634  29.4613123
  59.9030542  57.0519400  22.7172112  59.5875263  56.2998772  22.2161388
  60.5815220  56.6916609  23.2882714  87.7901649  90.8779716  40.7117414
  87.2327137  90.2811909  41.2110662  87.6864433  91.7237949  41.1477041
  50.9018946  70.2491570  22.4877596  50.3331041  71.0165834  22.5491071
  50.2991009  69.5064068  22.4532199 104.6872520  81.4289474  25.2468872
 105.0075626  82.3214436  25.1162076 103.9443302  81.5259266  25.8426142
  68.2233906  46.5630722  10.9884095  69.1716194  46.4832830  10.8848667
  67.8640699  46.2368631  10.1633584  75.7707310  69.9572468  30.9402752
  76.1505079  70.8042383  31.1739540  74.8726177  70.1612234  30.6794786
  85.0422079  78.5810583  64.3459442  84.8109276  79.4270104  63.9624026
  85.9673054  78.6673301  64.5761302  57.6355934  93.8931179  31.6769576
  56.7100811  93.7119961  31.5130901  57.6327324  94.6786499  32.2239184
  83.3926582  46.2797689  32.1963549  82.7514744  46.0412455  31.5268660
  84.1966152  46.4537525  31.7068410  58.0005360  84.6741867  27.3739791
  57.7786255  84.7032261  26.4433098  58.5082245  85.4716396  27.5241470
  76.5107870  60.6781244  18.2201707  76.9044590  59.8370457  18.4521985
  75.5679846  60.5293560  18.2924366  76.6745567  65.1114511  48.0940676
  76.8635511  64.9444056  47.1707010  77.5139570  64.9864101  48.5367918
  31.0922371   2.9696612  25.8975577  31.6358315   3.3637767  26.5797710
  31.6841828   2.3800235  25.4304743  88.3118820  75.3946733  52.6525736
  87.7675724  74.6136284  52.7521706  89.1717720  75.0569916  52.4019766
  86.9405348  85.8185332  75.2453998  86.4325601  86.1350697  74.4984057
  86.3486225  85.2201598  75.7012680  92.3590469  68.3661413  26.0821939
  91.9667435  68.9173985  25.4051065  93.2501602  68.7022161  26.1781096
  96.8354702  50.5272436  10.7015395  96.8751431  49.6346045  11.0448384
  96.1896324  50.4841805   9.9963689  78.7693739  88.7185574  30.2359867
  78.5794306  88.2538700  29.4209909  79.7213030  88.8188171  30.2382708
  85.4019070  60.6293249  17.9727817  85.1670265  61.1442852  18.7447119
  86.3372231  60.4545212  18.0770028  62.8884315  55.9248447  15.3202581
  63.5803270  56.5673590  15.1631320  63.2970810  55.0809145  15.1278317
  59.2396879  25.7075071   9.7727168  58.5154057  25.4155087  10.3262329
  58.9197826  26.5119100   9.3642712  50.1648634  20.9461020  88.5634306
  50.4654234  20.3399800  87.8862974  49.2100733  20.9214924  88.5002318
  37.9713082  97.9593945  30.0126481  38.4565163  97.4237823  29.3850088
  37.3265147  98.4262085  29.4810891  55.0446606  84.8339081  18.3028328
  54.4537163  85.5833530  18.3760262  55.7276249  85.0031471  18.9517915
  45.3588820  71.5519667  13.7612569  44.8412561  72.0903873  14.3599212
  45.7456541  70.8773708  14.3194318  63.9383554  68.0346251  16.9940734
  63.9780474  68.8724709  16.5329111  64.7398615  68.0107450  17.5168121
  56.0049343  69.1983891  35.1282096  56.2849712  69.6218920  35.9396625
  55.1080990  68.9136410  35.3037977  45.6297588  75.6579733  21.1978221
  44.9223804  75.0954390  21.5131044  45.3988075  76.5321016  21.5121365
  78.1491852  67.2936487  20.5076098  78.3353090  66.3550568  20.4824471
  77.4075794  67.3747683  21.1073375  57.2315073  75.9303617  13.0461037
  57.4853325  76.2020826  13.9281332  56.5601921  76.5608168  12.7851462
  79.9593496  73.8687801  22.1126318  79.8998690  73.2899237  21.3526225
  80.1855183  74.7234201  21.7456555  79.8956347  90.5667305   6.3156104
  80.2237129  91.4258385   6.5811658  80.4320621  90.3287601   5.5594039
  57.9494381  75.2269173  16.2042212  58.4191275  74.9801397  17.0009148
  58.0910969  74.4934464  15.6057394  82.3175937  79.1280263  95.9870805
  81.6126282  78.8799947  95.3889707  82.0161993  79.9435704  96.3874295
  10.2756327  53.8587759  85.7990029   9.9066418  53.1473540  86.3224092
   9.5234507  54.2347430  85.3417316  67.0483875  37.2214842   6.5593135
  66.1388159  37.2649574   6.2643278  67.4634457  37.9912305   6.1701459
  69.5357084  49.2853928  22.6601672  68.6967945  49.4765806  22.2407675
  70.1632452  49.8500681  22.2089767  52.2602844  30.2300715  11.7286682
  51.4165783  29.8757505  11.4478660  52.1610975  30.3665972  12.6708746
  57.3945141   4.7804505  17.1388447  56.5343189   4.7448239  17.5572026
  57.8206062   5.5421978  17.5318086  93.0290825 105.7612746  89.8099693
  93.8710911 106.1471074  90.0516090  92.9661447 105.8965772  88.8644734
  64.4985771  92.6222420  15.7625234  64.9887991  92.8725052  16.5456438
  63.5844612  92.7974033  15.9860170  89.8133087  49.9499083   5.6871706
  90.1404095  50.7809019   6.0316873  89.9317169  49.3292952   6.4062309
 103.1786537  87.6206303  42.7716064 103.7708950  87.1083069  43.3220720
 102.3038864  87.3156071  43.0123901 103.7934017  74.8934555  29.7332740
 103.2165813  74.7147560  28.9905834 103.5570240  74.2329311  30.3844762
  79.7655773  64.1390848  54.9767685  80.2992535  64.4197273  55.7201767
  79.1452837  63.5128927  55.3500700  67.8452301  48.3760214   2.6728067
  67.7090693  48.0826521   3.5737091  67.1794033  49.0502071   2.5372377
  51.3099211  31.6081713  88.2785931  51.2998408  30.7143019  88.6208454
  52.2353190  31.8528174  88.2749531  73.9650488  78.0001879  38.9144230
  73.5342979  77.2020817  38.6082959  73.3189726  78.4176302  39.4841194
  71.0638380  37.1538329  30.4330778  71.2439728  37.9513812  30.9307694
  71.8300629  37.0447898  29.8698401  85.0788116  60.5736732  25.2914858
  84.3339825  61.1155176  25.5520058  85.1163673  60.6601715  24.3389416
  84.6515942  73.7424469  15.9527540  84.0995598  73.6137295  16.7240703
  85.4042244  73.1692791  16.0985327   4.2932450   0.8139091  46.6009951
   3.4411561   0.6364780  46.9993591   4.7485672   1.3593822  47.2423840
   6.5203779   6.7797230  69.5255568   6.2052649   7.6759671  69.6425131
   7.4368923   6.8797491  69.2681935  91.9658375  89.5917130  38.3411860
  92.7242279  89.4278240  38.9017296  91.3959312  90.1526833  38.8672662
  50.7412243  91.5290833   2.4085519  49.9936914  91.5649986   3.0053186
  51.2773609  92.2842312   2.6505196  68.6231470  23.3248663  23.3822560
  69.4853973  23.2082677  23.7812042  68.8079071  23.5007215  22.4596667
 102.3489380  72.9442644  12.7966154 102.2476768  73.5348082  12.0501363
 103.2937336  72.9061508  12.9454184  93.9141941  95.5513954  17.1778512
  94.7084522  95.0629044  16.9616032  93.2878208  94.8812294  17.4512756
  72.5965929  72.4690151  56.4204693  73.3406067  72.0710850  56.8724966
  72.6326752  73.3931112  56.6674089  68.5552788  36.5776730  56.5442181
  68.9135551  37.3915052  56.1898899  69.3232250  36.0805464  56.8259239
  53.9593506 100.3261757  11.9055557  54.6055126 100.6559658  11.2811041
  53.3877802 101.0747051  12.0765758  81.1742878  48.9718103  19.4209516
  82.0858002  49.2408037  19.3068719  81.0803413  48.2006788  18.8616991
  86.4376640  81.3943863  35.6879902  87.0098019  81.5596199  34.9386024
  87.0317745  81.3465595  36.4369726 117.2131718  26.3989352  96.5933948
 117.3577226  27.2153757  96.1151114 117.8805197  25.8018587  96.2551991
  50.7522678  62.8107214   3.0634037  50.6471491  63.0055285   3.9946568
  50.3307009  63.5445213   2.6161304  94.0729505 108.2532447  75.4020956
  94.6199972 107.8509086  74.7274855  94.6190817 108.2475608  76.1881879
 108.5221863  59.3580246  35.7827306 109.1686249  58.9367342  36.3491845
 107.6774979  59.1199684  36.1649084  69.7043037  85.8767319   0.4988128
  70.2710867  86.1920071   1.2027950  70.2280140  85.2142429   0.0481960
  76.5549200  26.8004988  82.1174839  76.3847845  26.1093901  81.4774421
  76.1932963  27.5914763  81.7177155  72.9040051  53.1605053  18.0027175
  73.2350731  53.2170248  18.8990605  72.9251719  54.0622282  17.6822710
 105.4889584  54.9184942  44.6803141 105.4757881  54.8364019  45.6338978
 104.6682835  55.3624773  44.4667816  96.1175251  71.8759727  30.0132823
  95.9362125  72.7078199  30.4507661  95.2529716  71.5078163  29.8309636
  94.9882698  87.7030087   2.3651055  94.5943356  87.9710293   1.5349226
  94.4471359  86.9713211   2.6618201   3.0458802   0.6724594  94.7434693
   3.7248629   0.5499314  95.4069453   2.3119467   0.1403235  95.0507361
  85.3165150  37.2327352  43.2829189  84.6805954  37.8578377  43.6309099
  86.1476612  37.7074599  43.2901859  76.0396338  64.9322653  25.5907631
  76.2514877  64.0172911  25.4059076  76.3940716  65.0880384  26.4661717
  65.7915831  34.3338346  33.5430670  65.3227901  33.5135126  33.6964822
  66.5863037  34.0721941  33.0781007  63.3635521  73.0420923  20.5660748
  63.7598372  72.7018833  21.3682270  63.5236502  72.3613596  19.9124658
  49.0579081  48.9270639  37.6200914  49.0185928  48.3975410  36.8236685
  49.7806406  48.5508347  38.1224251  36.8431735  30.0063109  22.6456285
  36.3084579  29.2183208  22.5487590  37.6137614  29.7144675  23.1327152
  81.7340946  58.7798357  35.1473808  81.6700935  59.2936945  35.9524155
  81.6738892  59.4270229  34.4447041  54.8454952  49.6297264   5.2282661
  54.7336054  50.3966236   4.6665049  55.7175827  49.7363091   5.6081820
  99.0453798 107.8748553  94.9897583  98.7942058 107.2466367  95.6668696
  99.6464950 108.4750264  95.4309922  51.7060375  53.2708311  33.7825775
  50.9044790  53.5712910  34.2108917  52.4065495  53.5133839  34.3881202
  64.8207188  42.3389673  27.9707289  63.8914585  42.4957180  27.8029847
  65.0156927  42.8633833  28.7473917  51.4017487  74.9798822  13.0762172
  50.7033825  75.6001282  13.2855141  50.9472609  74.1531754  12.9142535
  50.5590820  59.3508148   4.2306504  50.8323956  59.1723871   3.3308190
  49.6700811  59.0001535   4.2849430  77.7428818  89.9712467  20.2230334
  77.9232121  89.3111515  19.5537186  78.2946348  90.7149601  19.9807560
  71.0195351  63.3597040  38.9862847  70.1124144  63.2159376  38.7166619
  71.5064907  62.6422882  38.5808015  65.6550121  53.7660217  31.7080712
  65.3422594  54.6606255  31.8426371  66.1454344  53.5614443  32.5042272
  65.5907393  91.0615253  13.8898146  65.4359913  91.5405560  13.0756831
  65.2439070  91.6339207  14.5741403  48.6584490  15.0845907  83.2173636
  47.7998465  15.4706953  83.0442992  48.8970679  15.4104279  84.0851918
  24.2098397  13.5976694  63.7276247  23.4382551  13.1336306  63.4027293
  23.8843888  14.4655274  63.9666465  61.9373322  60.9127522  16.1053336
  62.2597170  60.2956963  16.7622530  62.5496483  61.6473627  16.1458802
  64.8670483  66.1515093  23.0849242  64.9595451  65.9243155  22.1596885
  64.0781975  66.6924763  23.1210089  77.7425671  50.5451202  50.5751896
  77.8868914  50.6339741  51.5172625  77.7263832  49.6001673  50.4234362
  92.2328186  72.7514505  25.7769752  92.7992249  72.3312664  26.4241719
  91.4057064  72.8919506  26.2378168  91.2719375 102.2592729  94.0926424
  90.6929189 101.5751165  93.7566358  91.8448288 102.4714320  93.3557466
  59.1679001  33.8616729  24.5692182  58.7442207  34.4672155  25.1775360
  58.5699606  33.8140726  23.8232756  65.6080484  63.7320614  40.6152630
  66.1506081  63.0007076  40.9101868  65.1209116  63.3831406  39.8688149
  83.2165527  10.8556700  10.3319514  82.5615311  11.2678373   9.7686571
  83.9630699  10.6964672   9.7543782  79.6228695  66.0298586  31.6190720
  79.3643475  66.8728971  31.2466764  79.2966270  65.3819895  30.9945250
  89.3967247  69.4531822  27.6473498  89.8901272  69.8425102  28.3692956
  89.6153355  68.5219479  27.6825762  24.7126365  51.6674185  28.7405276
  24.8009920  50.9683800  28.0926323  24.2744589  51.2517405  29.4831204
 109.2710876  75.2333117  27.9905295 109.5946217  75.9134579  28.5812521
 108.3391666  75.1605558  28.1966090  67.5681210  68.5665989  11.9793332
  68.1206942  69.3096876  12.2216463  67.0090151  68.4247398  12.7432108
  87.3670483  95.8177471  43.6627865  87.0516872  96.4448357  43.0119848
  87.7120018  96.3610172  44.3713760 102.6879311 109.9049664  45.2181625
 103.3662510 110.1996899  45.8258343 103.1310749 109.2719364  44.6532440
  97.0873165  81.8456554  64.8317862  97.2080040  82.5314617  65.4885483
  97.5402451  81.0843563  65.1944494 103.2751179 100.5393219  14.2805409
 104.0957642 100.8288002  14.6792448 103.0426884  99.7446632  14.7608852
  60.4551792  73.8482904  33.8113022  60.4766846  74.6721792  33.3244967
  59.5242023  73.6810684  33.9581060  45.8541203  91.5362263  57.2530603
  46.2119293  90.8302402  57.7913809  45.2398968  91.0996342  56.6628551
  77.1433592  63.0649042  30.1321173  77.2547960  63.1815147  31.0756302
  76.3017321  62.6175785  30.0438213  70.8141088  87.0343018  56.1010027
  70.5490303  87.2372055  56.9981050  71.5326357  87.6404572  55.9206629
   6.6035132  80.8572674  12.0534515   6.4161734  81.6640854  12.5332177
   6.3706927  80.1567268  12.6627731  17.4986046   9.1630028  89.5644197
  16.6912096   8.8497685  89.9721363  17.3616141   9.0275811  88.6268017
  75.4609156  77.9830885  22.5623393  75.2964640  78.5901594  21.8407774
  74.7220135  77.3751307  22.5369811  59.1337299  67.9822683   7.4162811
  58.4318542  68.1475830   6.7867804  59.7452021  68.7076521   7.2891980
  70.3278065  62.1323633  25.0383949  69.6373320  62.5934458  25.5147171
  70.7363844  61.5685081  25.6951761 110.0088120  94.3306446  42.3046827
 109.1269779  94.4256973  42.6646328 110.5557060  94.1231537  43.0623770
   4.4556080 108.7709611  92.8687063   3.8349663 108.4656137  92.2070402
   4.0473782 108.5421603  93.7037065 112.8802872 109.2753315  38.5775447
 113.1715012 108.4217644  38.8982439 113.5837555 109.8762035  38.8231325
 102.9295826  90.3155708  23.9546752 103.6463737  89.8191166  24.3496084
 103.2453537  90.5362129  23.0784106  68.7878561  75.5104065  27.8603292
  68.8401890  76.4177895  28.1605721  69.2332649  75.0066423  28.5415554
 106.9207096  83.7598324  18.6446702 106.1597538  84.3253326  18.5128736
 107.0050907  83.6895752  19.5955527  52.6291513  87.9191971  15.6897473
  53.5572767  87.8771877  15.4594231  52.2071934  87.2958279  15.0984836
  70.2013302 104.5161438  22.4295235  69.9293089 104.2688847  23.3133245
  69.4526386 104.9946690  22.0735574   7.2377365   4.9231909  94.4256764
   7.3688668   4.0231751  94.1273336   7.0137327   5.4085015  93.6316189
  96.9041634  54.4010592  50.9435034  96.2811470  54.2652893  51.6574001
  97.6638603  54.8056459  51.3622999  56.2047022  14.9272679  78.7249878
  56.5519350  15.6939743  78.2691088  56.0802668  14.2747973  78.0357650
  41.5716362  74.2777205  16.6404641  41.9654751  74.6614361  17.4239743
  41.0930157  75.0004530  16.2344944  89.6835518  56.2357616  10.7495284
  90.6299686  56.2033033  10.8890831  89.5530415  56.9828510  10.1655316
  83.9753342  85.8012486  37.8901672  84.0204811  86.5401936  37.2834063
  84.2783642  85.0517082  37.3777294  94.3938446  93.7808704  24.8530078
  94.0475368  92.9713440  25.2284837  95.2236557  93.9206600  25.3091741
  54.3748283  71.5019131  31.0421419  54.5371723  71.5845728  30.1024389
  54.8653936  70.7222319  31.3022828  70.4037333  95.5887604  12.0516336
  69.8881197  94.7974205  12.2070348  69.7544670  96.2893772  11.9898593
  90.2991486  82.9084873  39.1531014  89.9099255  83.2844925  39.9426293
  90.5797482  83.6663437  38.6401296  98.5706520  70.7193518  40.5459547
  98.7505722  70.0535631  39.8821831  99.0552521  70.4255676  41.3173723
  79.2131329 102.1450233  18.7882066  79.9470377 101.6819954  19.1922116
  78.4650040 101.5604210  18.9097559  88.2230949  76.0907602  18.9957786
  87.9414749  76.2473631  19.8971128  87.7278996  75.3191471  18.7207663
 100.0977802  88.2067680  36.0825396  99.9286366  88.5288429  35.1971674
  99.9928093  87.2576523  36.0162687  75.3186035  88.3272266  54.7284794
  76.0842896  88.2104874  55.2909088  75.6830978  88.5199928  53.8646412
  77.7657747  59.6335983  24.6317101  77.6026535  59.0986967  25.4085636
  78.5639334  59.2666578  24.2515349  84.6797848  53.5513115  36.0331988
  85.1254463  53.4696817  36.8763804  83.8183212  53.9071798  36.2510753
  62.9510355  85.0952435  15.3772140  62.5334692  84.8727036  16.2092876
  63.6690426  85.6804562  15.6185210  87.9974842  89.0818310  38.6812901
  88.1845856  88.3592510  39.2805386  88.0700207  89.8674202  39.2233372
  86.1227924  22.1290736  34.3076372  85.1794941  22.2394233  34.4269586
  86.5141327  22.6039653  35.0408316  69.8192024  55.1905870  10.2121282
  70.6310701  54.9164152  10.6386650  69.7511482  54.6266603   9.4416821
  43.3977222  95.1111507  25.2060771  43.8223267  95.4848385  24.4338703
  43.9675665  95.3564548  25.9350061  89.4200706  54.0328026  34.3255472
  89.6861553  54.4498062  33.5060740  88.6523438  53.5115480  34.0907836
  63.1965208  83.4436321  47.5429344  63.4105682  83.6896706  48.4428644
  64.0218639  83.1225967  47.1796465  64.0245676  95.3662395  30.0489545
  64.6632957  95.3086185  29.3383622  63.3919191  94.6734619  29.8590970
  62.8718758  76.1524963  34.5755124  62.3734903  75.5726719  33.9996219
  63.6120033  75.6208324  34.8683858  67.0711040 106.7526054  49.9632120
  67.7472782 106.8723202  49.2963600  66.5229082 107.5339890  49.8914194
  17.7639138   7.4114375   0.5457496  17.3108613   8.1029277   0.0632477
  17.9567181   7.8012042   1.3984729  50.7412815  76.5183115   5.5465895
  51.0220575  76.3758898   4.6426469  50.7569218  75.6469059   5.9423667
  84.6794891  57.0465231   0.8105487  85.0877762  56.2823057   1.2173718
  85.1482105  57.7942657   1.1812396  81.8494320 105.3669357  31.7617345
  81.0417461 105.5811214  31.2948442  81.9650173 106.0861301  32.3827362
  64.3266058  69.7462845  12.7331567  64.7943544  69.9354744  11.9197381
  64.8935509  69.1307735  13.1978619  57.3832893  76.7574501  25.1816320
  57.2103500  75.8271217  25.0373650  56.5207720  77.1387911  25.3455830
  77.2330809  78.0519962  29.9368072  76.5963650  77.4725962  29.5183349
  78.0690002  77.5945616  29.8461246  65.0402689  84.2382908   1.7768499
  64.7210693  84.4818687   0.9079335  65.9935951  84.2819023   1.7027168
  80.3207779  76.1794329   7.8997064  79.3835545  76.0706282   7.7384400
  80.3820038  76.9746447   8.4289718  81.3627911  83.7198162   3.9748383
  80.8559322  82.9953575   3.6080992  80.9869099  83.8592339   4.8440391
  63.2311201  95.2260876  39.9462152  63.8483715  94.7330952  40.4867649
  63.2978868  96.1257076  40.2663136  95.9572220  73.8555098  13.1694245
  96.5612125  74.5458698  13.4429765  96.2722397  73.0703640  13.6172354
   2.0211905  29.8295973  89.3288317   2.5550621  29.6967028  88.5455355
   2.2813004  30.6920527  89.6524772  31.6337412  56.0134695  81.2855604
  30.8883684  56.2740610  80.7444993  31.5664356  55.0603674  81.3429704
  36.8860102  53.3045626  38.0764580  36.5210438  53.8072109  38.8047290
  37.6467872  53.8115978  37.7929640  38.3714819  44.9976873   3.5264859
  37.8313208  44.3399620   3.9645031  37.8387904  45.2916050   2.7875105
  66.4133185  35.6137083  92.0475086  65.5578917  35.1930807  92.1343922
  66.4024943  36.3152502  92.6986262  35.6504362  32.4640082  85.8016613
  36.5718001  32.2127150  85.8662453  35.3705233  32.5832842  86.7092165
  60.8768129  64.9584246   3.8311234  61.2948751  64.4751596   3.1184417
  61.4398479  65.7206345   3.9662388  20.6841998 110.5470943  65.9963226
  21.5278392 110.9785175  66.1318731  20.6045298 109.9402428  66.7322683
  62.5407839  94.4929790  51.8366814  62.2996330  94.0408516  51.0281897
  61.9345903  95.2320004  51.8877792 100.7176685  72.1887445  28.3102703
 100.0039291  71.7070436  27.8922129 100.7259274  71.8693447  29.2125726
  75.6560802  46.2375212  14.4814765  75.1448679  45.8359146  15.1840496
  75.7584620  47.1501684  14.7513402  90.1012802  56.1547995  28.4653234
  89.7476768  55.2658892  28.4330916  91.0039806  56.0428095  28.7633634
  59.4552088  62.0597839   5.7063991  59.4952106  62.7998161   5.1006114
  58.5195684  61.8893862   5.8149076  81.7103863  70.3239489  26.2242222
  82.6044750  70.2340221  26.5540028  81.3356590  71.0381365  26.7397261
  69.8687363  77.1235991  35.0994325  69.4329071  77.6913691  35.7349801
  69.2137861  76.4602041  34.8822188 104.9211407  66.9339800  44.3198061
 105.5946827  66.2660933  44.1913652 104.4479370  66.6496515  45.1017666
  65.1626604  43.6438750  89.5508322  64.7138899  43.1221674  90.2161524
  65.7145994  44.2455862  90.0503728  55.2568579 102.2727394  10.3733444
  55.1624870 102.7020836  11.2236369  55.2519846 102.9909229   9.7405505
  42.4721861  69.0616798  15.2491689  43.2729530  68.8227320  14.7823632
  42.6420355  69.9435997  15.5802190  90.0741482  96.7141914  17.5681233
  90.3977203  96.2144470  18.3176506  90.3822517  97.6068687  17.7244163
  84.4880390  78.5696554   9.6829134  84.0021706  79.0963697   9.0482944
  84.2498684  77.6658535   9.4763869  87.4273205  82.0611191  33.3431983
  88.1028175  81.5804768  32.8647375  87.4807262  82.9535580  33.0012536
  78.4702444  62.3470736  19.3119299  78.8675451  62.6803493  18.5073733
  77.8337145  61.6974688  19.0134668  61.3558197  89.5423126   7.6359832
  61.8057537  88.8371181   8.1012821  61.4270020  90.2977943   8.2194209
  70.2998400  61.3414574  34.8182845  70.8637905  62.0368481  35.1568460
  70.4464912  61.3533258  33.8724613  92.6135826  71.1789179  21.4638472
  92.4507904  71.1389112  22.4062538  92.3924541  72.0778799  21.2205386
  84.4067955  76.6645145   2.6842141  84.5193863  75.9561014   3.3180204
  84.9814224  77.3619175   2.9999110  50.0711918  61.1743641  23.8904071
  50.3681135  61.3748789  24.7780228  50.1990175  60.2297974  23.8027430
  69.7123575 107.0957661  42.9985332  69.8242903 106.1922550  42.7029324
  70.2239943 107.1487904  43.8057804  79.4944572  82.3992252  36.1405683
  79.5212889  82.3437119  35.1853561  79.2796898  83.3143330  36.3213611
 109.0396023  78.3505535  73.9486408 108.9641380  78.9478302  73.2044649
 108.1465435  78.2717133  74.2839956  69.5607662  87.5050163  31.6000152
  70.2303171  86.9578362  31.1894989  68.9994192  86.8864441  32.0674396
  91.1577606  70.7292175  29.6094656  90.9245110  70.1341438  30.3220057
  92.1106625  70.8033514  29.6615624  75.6326151  57.1287107  17.1956480
  76.0884190  57.8089762  17.6913464  76.3221025  56.5158701  16.9401813
  67.1730089  94.8586655  22.7204871  68.0615473  94.8495293  22.3646069
  67.2915936  94.7463894  23.6636519  84.1319466  90.4481697  30.7305312
  84.8236656  90.3995323  30.0706935  83.3199120  90.4770947  30.2245712
  85.8792210  77.6413584  15.8747613  85.2065754  78.3202887  15.9279621
  86.6168213  77.9955292  16.3714981  92.5338745  84.7226715  46.9035196
  91.9796753  85.5000877  46.8349266  93.4157848  85.0685596  47.0407295
  49.0649796  54.9303150   9.3397290  48.7412596  55.2435732  10.1843035
  49.9884510  55.1819515   9.3289083  83.1115055  62.6161480  63.1516695
  83.4446049  62.6733541  64.0472174  83.6437893  63.2398748  62.6578426
  38.7628031 106.2142754   1.4595181  39.4873667 105.6863403   1.1240697
  38.5275745 106.7886829   0.7308555  42.3896646  93.1586742  26.8187094
  41.6449928  92.5975609  26.6022682  42.6388121  93.5580921  25.9852672
  52.8081417 100.2362061  57.0851135  52.4340582  99.8366833  56.2998247
  53.7209558 100.4087830  56.8544292  87.0741367  85.2659035  31.6430593
  88.0245876  85.1557827  31.6701269  86.9279289  85.9172249  30.9570289
  43.1461733  21.9538067  94.2312738  43.8088721  22.5093935  94.6416101
  42.3117655  22.3196505  94.5248039  99.9803162 109.1595078  26.3352799
 100.8685112 108.8039207  26.3652396  99.4310856 108.4123802  26.0978508
  76.2998867 100.9785271  39.5317030  76.8386841 100.3323555  39.9882078
  76.0209322 100.5348492  38.7307239  91.5426540  65.4737949  35.5440068
  92.3935032  65.3253794  35.9566355  90.9793568  64.7883940  35.9033895
  81.6738605  67.5368452  13.6574578  82.4051952  67.4386454  14.2671561
  82.0523262  67.9817295  12.8991210  86.2629604 105.1032162  29.2046976
  86.8931770 105.3240395  28.5189152  86.5323067 105.6309700  29.9564672
  79.3739336  16.7844389  90.2981272  78.8750952  16.0037325  90.0575128
  79.2934435  16.8359946  91.2505427  55.8402061  76.8745279  28.6467719
  55.6604195  76.6954327  27.7238226  54.9774313  77.0197535  29.0350533
  72.3702049  65.1581526  27.6459074  73.1572676  64.6424103  27.8213239
  72.5713253  65.6359100  26.8412161  79.0751171  82.9293060  53.7377405
  78.1414461  83.0707073  53.8942766  79.1866255  81.9803810  53.7954235
  87.4109364  92.1151066  22.0526409  87.7582645  93.0049133  22.1146894
  88.1433773  91.5538216  22.3070502   7.2822033  89.7643393  93.2897460
   7.3910176  89.4673246  92.3863229   8.1752907  89.8983210  93.6070388
 111.3350296  73.0361557  28.7326956 110.7633877  73.1834650  27.9792023
 111.1758327  73.7870741  29.3045402  81.8301868  85.0526142  35.7702184
  82.1741486  84.1941357  35.5233622  80.9440327  84.8740959  36.0850167
  63.9907694  73.5580826  35.6891632  63.2545567  73.1157684  35.2665782
  64.2140388  72.9959774  36.4310622  47.6787615  68.4953833  30.6529260
  48.0038261  68.3572578  31.5425825  47.3853540  69.4064569  30.6438875
 106.5250570   4.3347507   0.2805187 105.8645517   3.6474280   0.1935648
 106.4707786   4.6044784   1.1973233  91.0263729  88.9286613  19.2654109
  90.9012794  88.1678486  19.8326385  90.7710266  88.6230469  18.3949947
  73.2818937  62.1339703  31.0880327  74.0886879  61.9083214  31.5510654
  73.5708952  62.6742649  30.3526473   0.1445907  31.5668867  84.4439390
   0.8987969  31.0357760  84.1883460  -0.6084282  31.1089514  84.0704492
 100.6182480  75.4064512  11.4270842 100.3427601  74.5188761  11.1978567
 100.9399891  75.7771254  10.6053042  59.7815275  81.8973446  26.7868471
  59.3451738  81.0456276  26.8068743  59.9756050  82.0453262  25.8612847
  69.1313410  62.8980732   7.8166044  68.8238049  62.4575853   8.6088324
  69.3626976  62.1854973   7.2208297  74.4900084  59.5195198  19.3432856
  74.6285248  60.0676680  20.1156712  74.4463301  58.6273909  19.6874225
  47.6374865  87.1467113  32.7727365  47.8097963  86.2181950  32.9289484
  47.8242588  87.5693226  33.6110377  48.2254410  29.8897505  15.1081121
  49.1761637  29.7971606  15.0466120  48.0511427  29.9523306  16.0472274
 101.2887764  65.2838707  39.8128891 101.5925694  66.1000633  39.4156790
 100.4145050  65.4895020  40.1439333 114.0859426  11.4800356  91.5024420
 113.5910786  11.6397904  90.6988123 113.6422480  10.7381247  91.9134572
  88.7745380  61.1562586  28.2417011  89.6081161  61.6098785  28.3666539
  89.0176487  60.2392721  28.1141448  64.8922729  72.2576189  38.0304885
  65.8079529  72.0269251  38.1871295  64.5338202  72.4209642  38.9028788
  91.0764313 107.1716881  41.1329317  91.0385323 107.2985744  42.0809269
  91.0957623 106.2214756  41.0190487  55.5504990  73.2325697  12.6433587
  56.2172508  73.7859201  12.2365737  54.9853134  73.8452148  13.1139541
  98.6518383  67.0779276  44.9595356  99.3780231  67.1749449  45.5755472
  98.2012653  67.9220486  44.9855757  81.5365219  88.3860397  31.3860035
  82.4092865  88.0712795  31.1505461  81.6899395  89.0072441  32.0979047
  36.7386389  90.8917809  17.4616694  35.9522796  91.3418388  17.7704060
  36.4355183  90.0153160  17.2247005  78.4654140  57.9526854  14.6982646
  78.4196997  58.8092518  14.2734933  77.6195431  57.5463200  14.5095825
  72.4150896  92.8308010   2.1849325  71.6385555  92.7184963   1.6366480
  72.8275681  91.9671059   2.1957853  80.2827835  93.4605026  41.0952187
  81.1471081  93.4487343  40.6840754  80.3665447  94.0905952  41.8108988
  80.0807762  73.0931282  63.2839918  80.3906441  73.5578966  64.0612984
  79.1348314  73.0192375  63.4103203 102.8672821   7.0416122  30.1526284
 103.2502920   7.4880843  30.9077430 102.5392610   6.2141376  30.5046487
  97.0822716  95.5762863  37.7184153  97.4082661  96.4381790  37.4593949
  97.1465302  95.5729961  38.6734509  80.2511024  43.7439823  32.1238232
  79.6190453  43.6007786  31.4193821  80.7402325  42.9229355  32.1773076
  85.9787369  62.8904533  39.6052623  85.1861286  62.6739407  40.0963116
  86.3959885  62.0451450  39.4391584  14.0565526  11.2749438  35.9611011
  13.5358941  11.9869952  35.5894327  14.9364697  11.6416316  36.0478091
  74.7658062 109.3972206  29.9947262  75.0765705 110.2898312  29.8433518
  74.2282677 109.1975498  29.2282963 100.0764465  86.7978096  33.6500716
 100.7829094  86.5404129  34.2424226  99.4978619  86.0357857  33.6219573
 100.4430199  91.9962597  35.4509115  99.7113800  92.6108265  35.5077934
 100.0363159  91.1325741  35.5206776  76.4047813  83.2623291  38.3889461
  76.2824392  84.1225243  37.9872990  75.7133293  83.2053852  39.0484047
  84.6913910  71.0852432  31.4405847  85.4754162  70.5457401  31.3382554
  84.9950886  71.9802666  31.2891459  62.3202896  82.8775597  37.5093102
  62.1853685  83.0788612  36.5832925  62.7859259  83.6392593  37.8546214
  91.3188839 107.9736614  27.6524615  91.2741661 108.9282227  27.7076292
  91.5910721 107.7982998  26.7516875  62.9562092  92.1100330  38.0693603
  62.4612093  92.2986507  38.8666248  63.7120438  92.6957607  38.1125069
  71.3471127  61.8392324  65.9085178  71.9447803  61.2329435  66.3460541
  70.4854918  61.6270113  66.2674189  75.3609514  98.0067635  22.5908995
  75.1113272  97.8354549  21.6828394  76.0277939  98.6908436  22.5310063
  39.1305232  66.2305593   3.2688734  40.0831270  66.3071585   3.2148981
  38.9573693  65.2983713   3.1374389  68.0815601  79.1277695  13.3801544
  68.9851618  79.4350052  13.3070421  67.8454256  79.2932653  14.2928874
  61.2041521 111.1378956  55.7263422  61.9858980 111.6087151  55.4374933
  60.9046888 110.6699562  54.9468565   9.3196730  94.3379784  31.6019440
   9.0784793  93.9377975  32.4373579   9.0398078  93.7030506  30.9425712
  71.4450312  78.4066916   8.5565889  71.3080215  79.3538475   8.5755533
  70.9262133  78.0749226   9.2893827  89.6337223  99.2954540  39.7086430
  89.8121548  98.6660957  40.4074335  88.7022972  99.1841221  39.5181322
   1.5987735  30.2107310  15.1481402   0.8040385  30.4796910  14.6873844
   1.5481524  29.2552543  15.1752794 106.3652420  63.3993006  69.3269110
 106.6244888  63.9030266  68.5553646 106.6718674  62.5105953  69.1468763
  53.1007338  70.2696419  20.8628535  52.1987009  70.1951456  21.1743379
  53.6152744  70.4269648  21.6545177  66.4481974  65.9360790  56.9678211
  66.8387175  65.0825882  56.7799854  67.1302748  66.5672636  56.7384529
  67.4980545 101.8348408  20.7303858  67.8368473 101.0050869  21.0664797
  68.2450485 102.2363663  20.2865291  78.8154745  74.2465687  44.4005013
  79.1721725  75.1061392  44.1765928  79.5217419  73.6335945  44.1963482
  38.8146895  34.3562983  70.3903630  37.8753966  34.4505690  70.5486944
  38.9021033  34.3949030  69.4379452  64.7742319  63.2063246  38.0508232
  64.1345358  62.7923203  37.4714947  65.4079008  63.6104584  37.4580550
  74.5717430 100.0687695  26.4126372  74.2918491  99.2331028  26.0390806
  74.8462200 100.5888081  25.6573510  77.4433422  91.1931801   1.3461058
  77.4407530  90.5992317   0.5954711  78.3701801  91.3151264   1.5518406
  73.2741737  95.6812382   3.0100057  72.4352551  96.1119652   2.8459293
  73.0494452  94.7594166   3.1363794  96.1754322  81.6954517  43.2106829
  95.6656265  82.1483421  43.8824129  95.5581474  81.0792637  42.8163433
  70.3813267  50.4675245  16.3775706  70.5800390  50.2056265  17.2765446
  69.9202251  49.7157621  16.0054588  26.6847819  36.3643168  80.6738975
  26.2898081  35.4931830  80.6370547  25.9447735  36.9663332  80.5952242
  79.5761156  76.8987370  31.9624448  79.1446447  76.2562132  31.3992143
  79.1432762  76.8025875  32.8107595  59.9173849  20.8412789  89.7632250
  59.1054171  21.0474680  90.2262917  60.4453581  20.3666447  90.4052511
  71.8383408  90.8029079  16.5218961  71.3576078  90.3151417  15.8531499
  71.6528654  90.3374863  17.3375046  68.0518675 100.2772617   5.5756110
  68.4782124 100.7604313   6.2834269  67.5515938 100.9405804   5.1002496
  86.1165905  34.2036676  11.5543294  85.7821083  35.0975370  11.4811730
  85.3862190  33.6511064  11.2760019  94.5788383  71.9737959  27.1452093
  94.7358322  71.0505104  27.3430133  95.2785492  72.2106743  26.5365005
  79.1314030  49.2136621  24.4668889  79.1215372  48.2810640  24.6822882
  78.8985825  49.2476559  23.5390568  92.7912140  86.0641575   3.1764275
  92.7928066  86.3082695   4.1019759  91.8641567  86.0158443   2.9430589
  94.9133015  56.1404085  24.1030836  95.4075813  55.3733921  23.8139415
  95.0804043  56.1922359  25.0441575  69.5664644  72.5064945  34.7390008
  69.6827078  71.6304588  35.1068115  69.1706228  72.3553038  33.8806987
  78.4884882  75.6217194  86.0536861  79.3134356  75.8649683  85.6335449
  78.4101629  76.2234640  86.7939568 103.1793594  80.5973244  47.3527527
 103.1411362  81.4874458  47.0028162 103.8208675  80.6459427  48.0614996
  62.2660017  97.8472424  19.1446662  61.7342091  97.5057316  18.4257770
  61.7765713  98.6045551  19.4658613  79.0054846 105.0308800  36.2385297
  79.6808434 104.3819523  36.4360690  78.9235783 105.5436993  37.0426083
  24.4112747  47.0117091  92.8403407  24.0117424  47.8366659  92.5645926
  25.0142353  47.2600363  93.5410577  21.0912865  31.3673018  92.9782706
  20.9219998  30.6542204  93.5939726  20.6707495  31.0868071  92.1654337
 104.8450184  76.3990927  56.0282230 105.4969025  76.3326836  55.3304625
 105.3556824  76.3651133  56.8371105  66.9370413 100.4429817  44.4065475
  67.2433233 100.8567810  43.5995865  67.6241970 100.6284714  45.0465822
  86.7044449 104.3884659  52.6385021  86.0303593 105.0255299  52.8751135
  87.4177456 104.9165249  52.2799158  90.2974415  80.9237766  45.4348278
  90.1250648  81.8008614  45.7772398  90.0152016  80.9636593  44.5210505
  23.7364917  74.5902872   9.8049515  23.8667731  75.5107784   9.5770168
  22.9373984  74.5847988  10.3318763  67.7591276 100.4415035  25.1224995
  67.2889566 100.9845734  24.4898510  67.6004744  99.5433998  24.8318505
   0.8807742   6.3276439  20.1566577   1.0427653   6.0111575  19.2679358
   1.1875283   5.6193595  20.7227659  59.6279383  70.6103706   2.4749325
  59.0305233  71.2682867   2.1192998  59.0747595  69.8455715   2.6339936
  65.6581259  82.4624348  33.6778259  65.7631350  81.8386078  34.3961883
  64.8123217  82.2397232  33.2889175  60.9673500  80.3134155  29.2532945
  61.8543005  80.6700325  29.3020415  61.0593987  79.5120525  28.7379503
  41.6403788  24.6966742  86.1573449  41.5718191  24.0323590  85.4716232
  42.0645159  25.4401968  85.7289556  68.9600086  75.8220482  14.2766798
  69.6084595  75.4635382  13.6706972  68.9930630  76.7675209  14.1310203
  82.1163845  78.5817909  13.5654080  81.1756897  78.5877943  13.7423217
  82.2529030  77.8058481  13.0218017  96.1460876  91.5213871  23.2328176
  96.5506649  91.9280148  22.4665236  95.3129578  91.9812202  23.3361483
 114.2872906  37.5514627  15.7589924 114.3057919  37.6585031  16.7100084
 114.1003227  38.4280014  15.4229033  51.8234634  72.5238180  30.4826331
  52.6168633  72.0695496  30.7661557  51.1463261  71.8472719  30.4849052
  87.6186466 102.3584747  17.1308649  87.2433853 101.5126038  17.3756301
  87.8252220 102.2686577  16.2005460  53.5408258  97.4206543   4.2670634
  53.5801315  98.0015087   5.0268590  54.1687346  97.7931786   3.6480451
 115.7012254  33.4547000  10.7920194 115.3391630  34.3300395  10.9295845
 114.9339277  32.8896384  10.7015145  12.4552744  46.2649630  82.8955355
  11.5527695  45.9532831  82.8279212  12.7254647  46.4146994  81.9895509
  40.2482575  30.1057909  94.8938730  39.3480891  29.9807928  95.1943782
  40.7603949  29.4783781  95.4040700  84.9145603  76.9263983  34.8941684
  85.1279640  76.4209604  35.6785297  84.2108917  77.5131035  35.1713991
  93.0982113 103.8648319  19.5846939  94.0553093 103.8787270  19.5832038
  92.8561306 104.1353703  20.4703784  71.6234398  72.2060490  52.4494648
  71.6461802  73.1401014  52.6574707  72.2658205  71.8133354  53.0405235
 108.9632637   9.1307311  34.6595454 109.4073755   8.2972198  34.5037651
 108.7124283   9.0995841  35.5827689  65.8128548  81.4891815  17.0695829
  64.9639463  81.3046455  16.6676724  65.6013584  81.7562485  17.9641092
  99.3718338 110.4594707  36.2046576  98.8274956 110.9698963  36.8041587
  98.9592648 110.5755901  35.3487754  93.5258007  34.8845100  50.8081913
  92.9120922  35.6125712  50.7105923  93.1018639  34.2959976  51.4328194
 116.3371754  91.8763256  45.1982498 115.5958939  91.3032532  45.0024796
 116.1965752  92.1484566  46.1051130  93.3089542  78.3515739  10.9431481
  93.7761116  77.5367260  11.1276209  92.5913143  78.0908203  10.3658855
  15.2474438   6.1048560   1.9059378  14.3980156   6.3311153   2.2847669
  15.6310402   6.9461684   1.6584033  86.6591007   1.4222293  36.4647722
  86.1748296   0.6567912  36.7743111  87.3026783   1.5926890  37.1525097
  84.3529797  83.0342770   4.3025994  85.1394749  83.2464790   3.7999719
  83.6395168  83.4485626   3.8172424   5.5524479   6.1492305  12.4597120
   5.5252301   6.7623191  11.7251277   4.7123848   5.6920104  12.4213362
  67.7674437 110.7960033  23.6356997  67.7191305 110.1212215  24.3128681
  67.2723246 110.4338264  22.9009104  24.3666970   9.1439681  13.3591390
  25.3032433   9.0567260  13.5366285  24.0566575   8.2437091  13.2608962
  70.0884056  82.4035358  52.1666527  71.0383701  82.4549770  52.2722626
  69.8635006  81.5174580  52.4504089 100.0844223   0.2652316  69.5908213
  99.4339639  -0.3131909  69.9890089 100.8198053   0.2563911  70.2034950
  57.9770994  74.6416712  10.8577585  57.3064137  75.0011158  10.2770603
  57.9631233  75.2153969  11.6238344  78.0804634  97.1516514  29.5571971
  77.1917868  97.4897099  29.6676826  78.2667065  97.2675896  28.6254764
  87.7759171  88.0221653  80.1388645  87.8789902  87.0784187  80.2611732
  87.7599430  88.1402683  79.1891146  87.6308441  99.7719383  29.0615058
  87.3029232  99.6803761  29.9561095  87.7543926  98.8724232  28.7584543
  24.1123997   2.6627879  44.5283985  24.3836438   3.2170158  43.7966251
  23.1805359   2.8514247  44.6391439  99.3114758 104.4808102  48.3936739
  99.1053295 103.6672783  48.8539886 100.0691032 104.8343658  48.8597679
  88.4353924  95.5066490  26.6081142  88.3747005  96.2883568  26.0590482
  87.5947952  95.0645256  26.4891219  72.0267391 107.5563145   6.3111013
  72.5477266 108.2032108   5.8353657  72.0973730 107.8197670   7.2286147
  28.6514794   2.7455764  51.1580324  28.7357842   3.5375838  50.6271505
  29.5138299   2.3328071  51.1110258  77.6689005  85.3431606  61.6458702
  78.3990097  85.8096313  62.0527744  77.9565430  85.1859570  60.7465458
  97.5654793  88.6904335  55.1423836  98.1173134  89.2711449  54.6184731
  98.0588150  87.8716660  55.1920748  88.4020233  60.9167433  39.5189953
  88.3479691  59.9949694  39.2667294  87.9920387  60.9529972  40.3831911
  65.7006645  68.2579899  21.1325073  64.8346233  68.6013079  20.9126544
  66.2530994  69.0355015  21.2133002  83.0084896  30.4690981  32.9806662
  83.4237480  29.9256563  32.3109913  83.6052322  30.4262090  33.7278533
  69.7912407  93.2460976  22.9705620  69.3460846  92.6084423  23.5286522
  70.5860615  92.7978039  22.6815462 100.9670431 104.6000236  92.1409720
 101.2310154 103.7025064  91.9384497 100.0402529 104.6362632  91.9043881
  40.2893036  21.0096119  90.8715108  40.2978009  21.9100092  91.1962315
  39.3992012  20.7017754  91.0423615  21.2650316  33.8804434  77.5630870
  22.0114058  33.6939524  76.9935456  20.7801789  33.0559634  77.6002017
  37.8029555  42.0483588  95.9459188  36.9237393  42.4267863  95.9492222
  38.1604737  42.2656630  96.8068419 103.0101776  74.0150785  34.8388910
 102.3834991  73.3042669  34.9739957 103.5379982  74.0240335  35.6373644
   2.3225360  86.3000679  51.1897421   2.0774226  86.7094326  52.0195484
   1.6355471  86.5668488  50.5789232  94.6219921  95.9800243  22.9625702
  94.6060848  95.4758167  22.1490860  94.6055031  95.3188419  23.6545253
  67.7488852  78.7003040  19.3246007  68.2241964  78.3153057  20.0608659
  67.6074457  79.6116018  19.5810497 100.2327442  95.6067276  28.1062484
 100.5228519  96.1762238  28.8188028  99.3100452  95.8292294  27.9823446
  80.5524349 100.2329731  20.0305343  80.5325508  99.9424648  20.9423685
  80.2252197  99.4834423  19.5331740  87.9557037  80.0830078  47.8022432
  88.7948227  79.6731567  47.5921297  87.9050541  80.8387280  47.2169685
  37.0769631   4.9391036  35.1906371  37.0413720   5.8946376  35.1469135
  36.6753422   4.7227149  36.0321283  84.6251106  83.3991814  31.3013554
  85.0193787  83.8716030  32.0345688  84.4644833  82.5191975  31.6420341
  90.8430290  91.9665432  44.0847445  91.0871601  91.6991138  43.1986809
  90.3680992  92.7888584  43.9644384  71.8312407 104.9777222   7.2444880
  72.0978165 105.8771038   7.0539850  71.3031673 105.0477886   8.0397642
  79.0691090 106.1522579  38.5990834  79.0458012 105.4421043  39.2404580
  79.6757269 106.7919445  38.9719701  92.7827263  81.0719395  22.3849154
  93.4020710  80.4107857  22.6939750  92.4235058  81.4560509  23.1846952
  52.3322058  84.2051220  21.6858435  52.0074129  83.6202526  22.3704386
  52.8526926  83.6398983  21.1150098  98.7731647  53.8437033  24.9962211
  98.4905624  52.9329205  25.0789356  98.6745358  54.0414429  24.0648746
  70.1703024  79.2276669  50.5162334  70.7368279  79.8671150  50.0845051
  69.5443964  78.9673805  49.8404217  59.4904089 109.7999954  65.2225494
  59.5253944 108.8695431  65.0005960  60.0738001 109.8885441  65.9762383
 104.2616653  81.0535526  69.0668821 103.8571358  80.3349113  68.5809422
 105.1900387  81.0040379  68.8390398  84.3281364 110.7124329  11.1616898
  84.9097157 110.5125809  10.4281652  84.2631721 111.6674328  11.1625397
  91.2178707  93.5387516  21.0650563  91.3766861  94.3540668  20.5893755
  91.1494255  92.8721237  20.3815722  93.7566566  79.7123575  28.5071588
  93.7459946  80.4783344  27.9332352  92.9039860  79.7269011  28.9418650
  99.2277622 111.3145828  58.1722260  98.3647728 110.9864807  57.9195833
  99.7377968 111.2953472  57.3624563  89.9304581 100.0322723  26.0994005
  89.5195198 100.6788540  26.6732407  90.3223991 100.5505753  25.3965640
  91.3979340  76.8349314  45.5631638  91.7802048  76.0041809  45.8459282
  90.5586433  76.5917015  45.1724339 100.9894085  60.3920126  41.1861658
 100.8202076  61.1125278  40.5791521 100.4872894  60.6160212  41.9697046
  67.0647907  88.5306263  65.0636148  66.7984724  89.4160938  65.3110838
  67.6848745  88.6588287  64.3457747  84.3312550  84.2403603  52.3891878
  84.9890041  84.8602772  52.0740604  84.8330593  83.5834217  52.8717375
 114.8426628  95.5281830  34.3150425 114.0772247  95.6153774  33.7469459
 115.1388168  96.4271832  34.4575596  27.9486119   0.6640391  22.1958447
  27.5402867   1.0022311  21.3988924  28.8589131   0.5018573  21.9482994
 104.8371696  85.6677723  18.0809724 104.2752838  86.0120678  17.3867249
 105.3467655  86.4233971  18.3734918  87.7894211  76.0418081  37.0835853
  87.2849464  75.2532291  36.8838882  87.1343613  76.7375565  37.1389985
  63.6444283  81.4690018  29.4071579  64.1180325  80.6758690  29.1564155
  63.5598755  81.9650078  28.5928702 111.4248466  73.0223751  55.5022907
 112.2265530  72.6352596  55.8539104 110.7527828  72.8114986  56.1504364
  95.2083206  73.4156561  21.7129612  94.9422073  73.3541918  22.6303673
  96.1630249  73.4772110  21.7441201  63.5307884  68.4899759  32.9121327
  62.6367712  68.6968327  32.6397753  64.0780592  69.1065550  32.4257588
  77.1925640  79.6130943  17.8510273  78.0710316  79.2491865  17.9610062
  76.6046858  78.8910389  18.0729914  73.5152960  83.7068558  30.2039647
  73.1275988  83.9719296  31.0380268  74.3470573  84.1790104  30.1656580
   6.2570893   2.5024371  44.4175482   7.0783459   2.1865230  44.0407515
   5.6033455   1.8612819  44.1386557  69.2143917  78.0764151  43.3040953
  69.0120316  77.5117540  44.0500450  69.6863127  78.8168430  43.6852551
  96.3525581  63.8807631  24.6332502  95.7583141  64.6072769  24.8210788
  97.1508312  64.0931082  25.1168847  12.6545464   3.0526023  24.8468971
  12.1059453   3.8305717  24.7467160  12.0323884   2.3313480  24.9414325
  41.4361494  35.2776621  76.8727913  42.2917288  35.6179045  76.6111746
  41.1434191  34.7620962  76.1212972   9.8025071  36.0381274  36.7035484
   9.6560990  36.9753604  36.5755010   8.9478051  35.6957584  36.9652677
 100.0589449  13.5420184  16.7960215  99.4254333  13.2949786  17.4697161
 100.2749473  12.7192454  16.3571334  14.4650321  97.8680611  25.3293967
  14.8474746  97.0930290  24.9179387  14.5621924  97.7130127  26.2689471
  94.9712086  91.6049767  15.0397408  95.0542736  92.4428463  14.5844293
  95.7760906  91.5301228  15.5523705  95.0081635 103.5774040  15.3603780
  94.9039650 103.8393402  14.4456303  94.3650723 102.8793430  15.4843712
 105.8105833  13.2055240  16.1478710 106.1340934  13.3657985  15.2613688
 105.1570875  13.8899760  16.2917483   5.3464846  69.4830513   4.9397236
   5.4764895  68.5818863   5.2350807   5.0159793  69.9427366   5.7115310
  83.6958122  53.1472635  32.5978160  83.8884163  53.3757877  33.5071611
  84.5453835  52.9118919  32.2249031  22.3386704   1.7152648   7.2366023
  22.8681695   2.3745780   7.6851279  22.3840462   0.9453921   7.8035772
  51.8844431  26.0001562  88.3745393  51.6250628  25.2907847  88.9625361
  52.7829951  26.2075041  88.6311617  83.8956356  91.0222816  44.9979925
  83.1606388  90.6120586  45.4537725  84.5923805  91.0607624  45.6532001
  49.2580813  27.1321200  91.4101174  49.6619814  26.3262652  91.0881105
  48.4027785  26.8562601  91.7396369  80.6985188  77.0876265  56.3217497
  79.8873568  76.8622160  55.8662891  80.5329895  76.8545246  57.2352600
  94.5141029 100.9744549  80.7728386  95.1203918 100.2577209  80.9597778
  94.0006733 101.0692596  81.5751076  86.9417477  78.8935328  18.3134127
  87.7794552  78.4722900  18.1209660  87.1676540  79.6238613  18.8894498
 101.7674732  90.7669067   8.1835496 101.9567299  90.0640392   7.5619447
 102.5354958  90.7952690   8.7541324  66.4817429  66.4576864  27.4962878
  65.8158398  65.8461618  27.8106880  67.2952032  66.1538553  27.8990269
   5.5626744  24.7436808  72.7638200   5.5074662  25.6561373  72.4799016
   6.2686365  24.7362612  73.4101870  84.7013855  61.3598919   3.0046475
  84.5298576  62.2217941   2.6252684  83.8366985  60.9573555   3.0853751
  95.6780148  73.8368130  43.4258127  95.5595016  74.3279219  42.6127958
  96.4193249  74.2622566  43.8567305  70.0540876  81.6150570  34.7411609
  70.7273340  81.0571003  35.1305842  70.3489494  81.7535496  33.8410997
 113.1436729  33.0346870  40.0740004 113.5099506  32.1503425  40.0770187
 113.2886124  33.3509159  39.1822457 111.8057632  81.4844227  16.0216415
 111.7827988  82.3544216  16.4201403 111.9510365  81.6513062  15.0903642
  68.9633322  84.1967964  45.8725643  69.6248960  84.8731613  46.0177803
  68.5208178  84.1094017  46.7168236  88.8859541  15.2601295  42.3214388
  89.7747070  15.3539043  42.6642990  88.4783632  14.6053844  42.8883648
  51.1338472  92.5419903  12.9920125  51.6987467  92.3080921  13.7285006
  51.3641548  93.4493351  12.7922308  88.5878468  68.9594221  38.2833695
  87.6916504  68.7397051  38.0288291  88.5851860  68.9065170  39.2391038
  95.1010418  35.1984978  42.3803139  95.6116581  34.5203304  41.9380522
  94.6353054  35.6464124  41.6741323  33.0112111   1.7892890  18.6577630
  32.5677334   2.0531421  17.8515768  32.3926865   1.2000327  19.0895391
  74.2956638  54.6617937   6.4175963  75.0556946  55.0274086   6.8702644
  74.4077253  54.9306870   5.5058002  70.6838799  91.0416985  41.2268496
  71.3227606  90.9287643  40.5230665  71.0452366  91.7437077  41.7679882
  65.0463057 102.4438858  19.9420655  64.7769022 101.5744972  19.6457124
  65.9089994 102.3068333  20.3334904 114.8084831 100.5194664  30.0447869
 115.0389862 101.3332748  30.4929090 115.4137802 100.4738522  29.3046713
  98.5728645 105.9110737  43.8888264  97.6757336 106.1060429  44.1597271
  98.7100697 105.0010204  44.1519022  11.5516524  85.8344460  21.7716765
  12.2013621  86.4921379  21.5235829  12.0531134  85.1672745  22.2403359
  99.1126919  67.9328251  21.6560388  99.9867535  67.5430059  21.6391230
  98.6939430  67.6167774  20.8554149  83.1174088  93.1767941   4.7638068
  83.0647564  92.4840832   4.1053182  82.7125072  93.9364433   4.3452185
  80.1454067  96.8989182  54.2498398  79.5274019  97.6077652  54.4282961
  80.9853172  97.3399258  54.1221189  54.8552513   8.2818377  20.7189775
  54.1191721   8.7707365  21.0869384  55.1151800   8.7850302  19.9473131
  43.6802864   4.4002068  14.2055011  44.0579748   4.6342254  13.3576667
  43.2676983   3.5493118  14.0572488  55.5320257  71.0905772  95.2927729
  55.2186102  71.9865924  95.1696449  55.8456976  71.0686653  96.1968536
  31.3143277   3.2641244   7.2883350  30.8147311   4.0333730   7.0146745
  32.1560311   3.3537543   6.8414158  69.5352554  46.0856342  26.6241646
  69.8915815  46.0331202  25.7373142  70.0310469  46.7908955  27.0401216
  11.8855751  11.4231539  25.1673245  11.0692334  11.1697853  24.7364855
  11.6117585  12.0060778  25.8754611  62.7427864  38.6439776  25.1144600
  62.0488358  38.1987929  25.6007457  63.0521441  37.9909801  24.4866681
  52.4649733 105.8889509  28.6689687  52.1269339 104.9986757  28.7657642
  52.2680586 106.3120998  29.5046735 101.2505085  89.4482868  68.4965494
 101.2763435  88.9397376  69.3070677 101.7170698  90.2573007  68.7064293
  18.6510241  37.5786519  35.5896974  18.8487947  37.7810621  36.5041089
  17.7663517  37.9184604  35.4550982  17.6391065  31.7355275   0.9219186
  17.0949185  32.5009847   1.1067617  17.4556184  31.1317658   1.6416663
  29.1625190  47.6332092  14.3953955  28.2121921  47.5437737  14.4669008
  29.5015359  46.7634058  14.6069276  75.7192421  28.7631965   4.1083378
  74.9179316  28.3893180   4.4748732  75.5807114  29.7095966   4.1453776
  24.2143219 108.3352558  17.5672102  24.9973505 108.3763040  17.0181978
  24.4071501 108.9160330  18.3032441  28.3883643  39.5004606  36.8664980
  27.6693344  39.8315930  37.4046206  28.1799603  39.7958922  35.9802008
  45.0969315  33.1027651   6.6948736  44.4329214  33.6204362   7.1502215
  45.4111433  33.6771417   5.9965932  71.9719273  80.4155272  93.5197550
  72.3569924  81.2903016  93.4675473  72.7239329  79.8253530  93.5688650
  73.8891459  26.8388748   4.7111347  74.5078135  26.6856766   5.4252881
  73.4345007  26.0032868   4.6047205   0.9687536 101.4135511  23.4354067
   1.9063490 101.2439186  23.5269356   0.8425349 101.5617431  22.4982095
 103.4799290   3.7193289  11.5286446 104.0190601   3.9293396  12.2911870
 102.5922585   3.6391044  11.8776810 102.9486877  40.4334527  87.6996729
 103.6894066  40.7440513  87.1790013 102.2081739  40.4447346  87.0932522
   9.5836371   6.6778706  81.0051718  10.1484650   5.9067820  80.9538880
   9.9695032   7.2989271  80.3874138  55.0623703  55.6550741  12.9254818
  54.3686962  55.0101757  13.0638969  55.2389526  55.6188679  11.9854069
  93.2441551  82.4410384  80.8848300  92.9505522  82.4672549  79.9741486
  92.4357921  82.4041551  81.3961282  97.6597023  20.2459598   9.6635884
  98.0539799  20.7549691   8.9552921  97.3727131  19.4346535   9.2444777
  19.8314398 108.1613825  28.0636001  20.3316468 107.3647801  28.2409406
  18.9347904 107.9426486  28.3173847  76.9731743  86.7590039  82.5795057
  76.1976964  86.2908548  82.8888634  77.6721079  86.4826458  83.1722537
  81.6977310  40.6037855   5.9147978  82.3141384  41.2803411   5.6345332
  81.3808537  40.9062004   6.7658919  53.0118036  58.0602503  18.2204556
  53.7667990  58.0551529  17.6320779  53.1808233  58.7864637  18.8206899
  84.3129826  25.2157474  18.6740673  83.9295292  24.9839807  19.5199263
  84.5361996  24.3753266  18.2739437  51.5294027  12.5214064  50.4290247
  51.4292336  11.8886650  49.7178030  50.6451511  12.6303840  50.7789564
  71.4825708  93.9571350  86.2476435  71.8507225  93.9029353  87.1295491
  70.9453756  94.7492736  86.2606171  53.1114483   9.3719971  12.1796846
  53.5377884  10.1732326  12.4838030  52.5681829   9.0949047  12.9174614
  12.8180122  36.5756130  17.1112454  12.7851784  36.3550520  18.0421078
  11.9100249  36.5058875  16.8164086   6.7634362 110.6217267  37.7890944
   7.1431893 111.4974889  37.8602386   6.0344380 110.7257320  37.1775603
  69.7522736  54.9783373  14.5175958  69.7750235  55.5340862  15.2966058
  70.6717634  54.7865009  14.3333006  57.3362684  33.3580947  14.4024801
  58.1486607  32.8833079  14.2268980  57.0529747  33.6735868  13.5443187
  72.0012665  40.6431293  41.7194700  72.2720480  41.4115191  42.2219563
  71.8297482  40.9802294  40.8401632  32.8945613  33.2312274  24.2375278
  32.6064086  32.8006339  25.0423813  33.0627751  32.5123501  23.6283064
 108.2406360  71.9274145  90.7601634 108.9713032  71.3923996  90.4501322
 107.5677854  71.2933510  91.0080942  47.3987675  17.7190745  12.9897726
  47.4874830  18.6688554  13.0690145  48.2806921  17.4129593  12.7782750
  72.3725510  15.0345004   1.9968376  72.9256868  15.8111894   2.0806639
  72.9903507  14.3097401   1.9005211  25.8897996  28.8091898   5.4504085
  26.0717344  29.7384620   5.3104663  26.2046051  28.3809590   4.6543252
  31.8367219  21.5695381  11.5454245  32.4394894  20.8995581  11.8679643
  32.3392582  22.3832154  11.5856528   7.1285671  55.8556318   2.4945939
   7.5603700  56.6846561   2.7007475   7.8371346  55.2121305   2.4861254
  26.9976878  10.5111337  21.0533619  26.6774035   9.6265161  20.8770084
  26.2054682  11.0277295  21.2008333  76.1456585   3.8005203   1.5038951
  76.0314369   3.9930147   0.5732332  77.0622873   3.5364133   1.5831119
  29.8629165  42.8554249   0.5363508  30.6856227  42.4444294   0.2708870
  29.8689842  43.7072992   0.0998829  50.9190130   4.2045879  12.3447096
  50.3255749   3.9228243  11.6485262  50.7185364   5.1322049  12.4694812
  68.4803391  29.8421621  11.3341963  68.0609798  29.6149230  10.5042970
  68.9909554  30.6275082  11.1373878  79.7538376  17.5742888  11.2216806
  79.3876696  17.1848965  10.4276228  80.3216934  18.2764244  10.9042287
  82.8951073  40.2905846   9.1773880  82.5995541  39.5522642   8.6446923
  83.0150604  39.9217105  10.0524735  56.1794567  33.9954877  12.0565021
  55.7471323  34.7382903  12.4778950  56.4666414  34.3348861  11.2088203
  63.2124567  63.8106489  13.3671844  63.3126402  64.7290087  13.6177933
  63.2323360  63.3326054  14.1962266  71.1752605  56.8130255  21.3504767
  71.8775749  56.2841129  20.9720063  71.5970087  57.6403332  21.5826964
  58.3997631  31.5697980  39.9464965  57.4770498  31.6745806  39.7144222
  58.4805965  31.9900203  40.8027172  90.3759653  54.7452331  89.6807185
  89.6887285  54.1248291  89.4377497  90.4365761  55.3402974  88.9334187
  10.6381607  27.9847169  40.9175634  10.2902782  28.8562250  40.7286644
  11.5839100  28.1144404  40.9880018  66.0137177  23.7139630  20.9885859
  65.4299450  23.9119887  21.7208600  66.6655445  23.1173086  21.3564968
  57.0156956   7.8214455  52.0261335  56.1596298   7.4586016  52.2535801
  57.5272608   7.7515906  52.8321457  35.6429529  19.8648584   3.8463059
  34.8274899  19.7519588   3.3579361  35.5655336  20.7318044   4.2446041
  32.6800299  16.6372645  22.9569411  33.4283566  16.2877238  23.4407425
  32.6216316  16.0870457  22.1758652  49.2971754  69.6283674   6.5368259
  49.9937487  69.4884348   5.8953917  49.7479534  69.6403646   7.3811531
   4.1399609  90.6032365  79.2178276   4.3360650  89.7147911  78.9204410
   3.9606701  91.0908168  78.4138670  87.8183395  65.6589376  89.9391243
  87.7659017  65.0506836  90.6763545  86.9219858  65.9747642  89.8249611
  31.0217857  43.2626820  38.6811566  30.7277584  42.4240446  38.3255363
  31.3451004  43.7453032  37.9203820  37.8391504  41.6158390  22.1826768
  38.7026501  41.2935400  21.9243622  37.7328610  41.3182354  23.0862069
  83.0695629  30.0529695  20.4293323  82.6802921  29.5901656  19.6873653
  82.4509621  29.9178052  21.1471748  92.2149372  62.4728727  33.5597062
  91.8911076  62.2354460  34.4286084  93.0944729  62.8160477  33.7174225
  34.5326638  44.7551298  22.1036148  35.4294252  44.4254637  22.1616864
  34.0577459  44.2786264  22.7845192 116.9885074   5.8006603   6.9290602
 117.7397309   5.4522216   7.4091494 116.5216808   6.3361150   7.5706154
  27.6307988  15.7563210   5.8473730  28.0234933  15.6312644   4.9834383
  27.5020528  16.7022419   5.9172976   1.1638007  41.5821791  15.5997741
   1.7798945  41.7253542  14.8813307   0.5114723  42.2751856  15.4975903
  57.1720314  29.1061044  10.1169634  57.8527927  29.7631216  10.2622950
  56.4915180  29.3211675  10.7548392  38.4859848   9.8701745   1.5694867
  38.3961105  10.2912056   2.4244061  39.0500498   9.1142881   1.7328778
  28.8221717  38.6332202  45.6581402  29.6934986  38.4267449  45.3199244
  28.4778881  37.7932835  45.9617996  55.0830793  43.3268976  29.1909194
  54.9809217  42.7917242  28.4039092  54.9011326  42.7266741  29.9140048
  52.6689482  25.8573890  30.7496190  52.0316315  26.5463448  30.5614710
  52.1370935  25.0849366  30.9411359  85.8712101  43.3731174   9.1330159
  85.5979919  42.5005054   8.8499504  85.2404118  43.6131763   9.8117661
  55.3360748  36.4266348  38.6037755  55.9336948  35.6918955  38.7424755
  55.2635384  36.5000224  37.6521540  90.2040798 106.9392770  90.4370442
  91.1406690 106.7533487  90.5038813  89.8746187 106.8335431  91.3295159
 105.2978505  76.2831707  34.9414468 105.3426398  75.3642602  35.2056932
 104.9381722  76.2601323  34.0546918  68.8040638  22.9624057  12.5021124
  69.1079426  23.8433027  12.7210045  68.8784742  22.9132986  11.5490735
  57.5729799  61.4062786  13.4780967  57.7542782  62.3446989  13.4258521
  58.4340239  61.0014534  13.5827339  91.5849590  63.1834745   8.9072913
  91.9990635  63.3420086   8.0589879  91.8623734  62.2994804   9.1477621
  47.2186661  12.2196066  31.3413596  47.3676157  13.1595910  31.2390161
  46.6968441  12.1453893  32.1403742  72.1426630  32.8779745  17.9159439
  71.5107059  32.3314977  18.3830917  72.2549772  33.6462069  18.4757972
  49.3736124   7.0954615  37.0892525  49.5060444   6.1993313  36.7799902
  49.8975277   7.6335382  36.4957738  63.3131695  16.2119412  23.0880713
  62.6351929  16.4726830  22.4646974  63.1422853  15.2848351  23.2539153
  49.0344667  26.9015956  13.2697058  48.5719109  26.9463134  14.1065311
  49.9608994  26.8767190  13.5091543  94.3821413  88.5768073  95.4170792
  93.6799604  88.4883826  96.0615594  94.0641863  88.1011742  94.6496731
  51.1176014   7.1428907   9.9952549  51.1640406   7.7031660  10.7699597
  51.9018745   6.5966034  10.0473881  53.0008698  30.5813885  24.1873455
  53.2158899  30.6234193  23.2555580  53.2094383  29.6822715  24.4409609
  53.3013964  24.8756981  41.5849209  52.7056932  25.6230021  41.6388464
  52.8936720  24.2899299  40.9470606  77.0688820  13.2634604   9.7896951
  76.5372705  12.5238180  10.0838804  76.4752579  13.7853658   9.2498326
  67.3173952  25.4257679  24.3699193  67.4093533  24.5005298  24.1425180
  68.2160282  25.7343221  24.4860506  61.3744688  24.8249269  24.3538976
  60.9179258  25.1446199  23.5756969  61.5956831  25.6167984  24.8440337
 101.0726482 103.6103004  75.8342221 100.5254537 102.9224008  75.4552677
 101.9151289 103.5185712  75.3891995   5.7275790  91.6909392  25.5977488
   6.3507336  91.0279627  25.3004718   4.9125975  91.2084789  25.7365561
  55.5663300  17.4505568  23.2171726  56.1604977  18.0786562  22.8064585
  54.9770737  17.1820307  22.5122595  33.9303851  47.9618263  52.3491240
  33.9043975  48.5660791  51.6072083  33.4200168  48.3981037  53.0313396
  85.5171013  26.1702275   7.0683283  86.1134434  25.5579472   7.4992710
  84.6848488  25.6998658   7.0197248  93.8000519  80.6977099  77.9241565
  93.3134109  81.4666670  78.2209995  94.4530231  80.5488032  78.6080327
  16.9951868  11.7222226  42.9618454  17.1221375  10.7869279  42.8026628
  16.0483086  11.8220711  43.0602598 115.8554250  80.8267611  75.3362253
 116.4457113  81.5066188  75.6611660 115.4156715  81.2292879  74.5873454
  80.9297276  14.8784387  26.8126869  80.1635551  14.4092417  27.1429205
  80.5670834  15.6354237  26.3525867 112.1444303 104.2440217  80.6344536
 112.1962387 105.0780767  80.1676610 112.7301962 104.3521016  81.3837352
  43.4488505  87.2983308  30.2660465  43.4665888  88.0501289  29.6738338
  44.3642824  87.1657987  30.5123401  39.3631744  33.2426381  25.0388217
  38.9296770  34.0808725  25.1990485  40.2778292  33.3969951  25.2750683
  61.1125231  14.9131513  25.9912872  61.7840433  14.6201813  25.3752828
  60.5803251  15.5306590  25.4896116  62.4885702  50.7586098  20.5674362
  62.7888584  50.5814171  21.4588737  62.9609537  51.5497971  20.3083944
  77.0187241  70.1953297  84.6281209  77.8576881  70.4860860  84.2705849
  77.1632487  70.1521509  85.5733624  46.4208603   9.5867342   6.9264513
  47.2430468   9.9452984   6.5922773  46.2895679   8.7816471   6.4256233
  85.2952290  74.5030451   4.3690619  86.0720253  74.3316507   4.9014515
  84.5822811  74.0712214   4.8396626  92.3927689  54.3578959  25.4294205
  92.5436974  55.1641989  25.9227014  92.8574276  53.6834717  25.9248734
  76.3009173  84.5201176  84.3712619  77.0824606  85.0111573  84.6248403
  75.8372218  84.3661850  85.1943782  41.0434484  36.2066841  34.5170856
  40.0916243  36.1054778  34.5216823  41.2039852  36.9348693  33.9169121
  24.1511416  29.9013877  12.4640501  23.2566905  29.8093104  12.1358597
  24.6925783  29.4570518  11.8116367  47.4246550  59.6434689  16.5182269
  47.5089264  58.6934280  16.4372599  46.7739868  59.8832989  15.8584189
  86.2887699  95.9008401  93.8486767  86.8788749  95.1604789  93.7077045
  86.2382490  96.3326162  92.9958874   5.9385716  98.8074678  80.2964642
   5.9791504  99.5637935  79.7111776   6.7635094  98.8351768  80.7811716
  78.0943823   2.6089522  26.1500263  77.9359913   3.4176394  25.6630278
  78.9312935   2.7549574  26.5910435  30.3120249 105.2176757  21.8626523
  29.6787089 105.5112256  21.2076926  30.3380936 104.2662401  21.7610550
  77.0591736  55.7925081  12.5844467  77.9878855  55.8180523  12.3540640
  76.7717791  56.7034054  12.5220168  80.5134964  67.3936462  26.1078644
  80.0231552  67.2563124  26.9183803  80.8551693  68.2846546  26.1826801
  52.3105723  98.5392230  66.7388680  52.1754498  98.3886331  67.6744416
  53.2447571  98.3806890  66.6032246 100.7923109  90.3757351  95.4717619
 100.8658964  91.3299578  95.4884079 101.0415251  90.1008647  96.3541283
  82.2849178  50.3439045   9.7431499  82.8623962  50.5903339   9.0206403
  81.4964485  50.8699656   9.6096879  27.7543324  17.0126818  92.5014043
  27.8665465  16.9673203  91.5518871  27.7398985  16.0985134  92.7848187
 102.1748335  77.3967260  95.3838441 101.6165096  77.7046889  96.0977530
 101.7793352  77.7658337  94.5941789  77.4238634  27.0423388  32.7680802
  77.5536251  26.8110657  33.6878133  78.2519341  27.4423838  32.5025749
  67.6668531 103.4502500  68.1078985  67.6584203 102.7231305  67.4854377
  67.3941929 104.2096132  67.5928667  39.6019363  21.8841314   7.1925348
  39.3307614  21.0115600   7.4776977  40.1820135  21.7233753   6.4482903
  62.3050601  88.7386149  80.2488234  61.8344981  88.6682146  79.4182530
  62.8446180  87.9488557  80.2861038  31.0771626  17.0052670  93.8070518
  31.2163847  17.0238922  94.7538896  30.3644579  16.3786410  93.6820397
   2.8479516  91.7486542  96.3173124   3.4525429  91.1563581  96.7643978
   3.3834206  92.5075358  96.0857802  47.1529883   9.7550009  92.6686901
  48.0295962   9.9615191  92.9929450  46.5992659   9.7695778  93.4493366
 104.8015339  63.3768397  81.5885153 104.5986158  64.1408997  82.1282080
 104.2759592  63.4959846  80.7974318 107.1571380 105.2223867  83.3574012
 107.1292049 106.0612481  83.8175836 107.2713358 105.4579681  82.4367001
  24.9057406   4.4870041  76.6415480  25.3061693   3.8663719  77.2504046
  25.6397169   5.0035141  76.3087895   8.9925545 101.9093109   7.4830681
   9.6091336 101.8092234   6.7577773   8.9906281 102.8484900   7.6679230
  14.0718191  21.8327044  93.2174668  13.4798353  21.4383457  92.5769424
  14.2484444  22.7081869  92.8731385  69.2638636  25.6452942  16.6193914
  68.5944510  24.9781179  16.7710209  69.3389320  26.1038041  17.4562716
  19.8060870  28.7119651   7.0726550  19.4178092  29.3779469   6.5052575
  20.7458496  28.7682867   6.8997240  95.7332420  75.3243589  26.4329958
  96.5914249  75.7451057  26.4852715  95.2280617  75.7217360  27.1423054
  70.7283783  76.3891411  10.3220534  70.6118059  75.5259132   9.9252093
  70.5006075  76.2620878  11.2430370  62.7395391  53.6110878  23.0047131
  61.9969988  53.1679821  22.5942016  63.0095291  53.0227709  23.7098527
  87.7787304  13.9276576  20.8482575  87.7564144  13.8577867  19.8938715
  88.1440163  13.0927551  21.1410594  11.0600697 111.1047548  74.2797568
  10.9760605 110.2014726  74.5851281  10.3842770 111.5836280  74.7595766
  63.6504364   7.3535609  26.8890977  62.8521967   7.7644289  27.2211027
  63.3536577   6.5274966  26.5072966  97.2465736 101.5007632  88.2549342
  97.0846159 102.3962444  88.5517731  96.7440492 101.4226669  87.4440065
  86.9622707  22.0562434  11.4505827  87.8530884  21.9281268  11.1245918
  86.9721603  21.6776466  12.3296738  76.4331770  38.2407784  25.7220268
  76.9435215  38.9810610  26.0502934  76.7641115  38.0960131  24.8355961
  69.7991085  36.7181063  13.4549415  69.7779179  37.3219609  14.1973317
  70.7186413  36.4630461  13.3798432  98.9792824  29.2127490   2.7061883
  98.1538582  29.6967697   2.6810238  99.1529942  29.0838051   3.6386204
  94.4151688  35.4369092  44.9844694  94.4182491  34.6102786  45.4670715
  94.8101807  35.2223539  44.1393900  65.1121950  13.3314681   4.6948060
  65.0852013  14.2881811   4.7091341  65.6312513  13.1180942   3.9193818
 117.5958003   0.7765387  93.4398690 116.9448198   0.6045817  92.7595118
 118.4343065   0.5709694  93.0264965  86.5637333 106.4941114  72.3729732
  86.2409813 105.5936664  72.3374989  87.2696955 106.4702314  73.0189422
 115.1256830  70.3091746  85.5222955 114.8252279  69.7150129  86.2099936
 115.7385141  70.8967655  85.9643403  53.8878536  24.3750477  18.7025309
  54.6652269  23.9300847  18.3649874  53.9269543  24.2403102  19.6493936
  98.6136419 100.4956144  95.0687618  99.0694982 101.3066858  94.8438334
  99.1676552  99.8021787  94.7103581  54.9319506   4.4437209  32.8655410
  54.2262650   3.8203806  33.0378485  55.2628469   4.6766880  33.7329888
  26.7685175  65.5018997   3.6065805  27.3482251  65.1901007   2.9116338
  26.3179684  66.2543249   3.2230502  85.3222752  41.7255497   1.4770196
  85.4113102  42.6524067   1.6989252  86.0014820  41.5700817   0.8207088
  68.5681009  69.7162771   9.0301907  68.2370710  69.1941404   8.2994199
  69.2166281  69.1530418   9.4525743  96.3983917  47.0877361  29.3286371
  95.8579063  46.3651133  29.6478987  97.1744156  47.0720577  29.8887920
 100.9932137  31.3573575  29.7313714 101.2577152  32.1698737  29.2999911
 100.0728321  31.4940524  29.9559689  79.0453243  40.6022167  39.6370101
  79.8003387  41.0613108  40.0049925  79.3861723  40.1699543  38.8539362
  41.7664957  14.0318060   1.2506267  41.8702698  13.1732309   0.8403683
  41.2371397  14.5317507   0.6292802  55.4460430  47.2812366  26.8727326
  56.1985826  46.7585135  26.5958142  55.0675344  46.7889929  27.6011944
  92.3094017  69.6192032  90.1778903  93.1568462  69.4227188  89.7785595
  91.6664631  69.3088990  89.5402607  97.6610088  59.2657900   7.7668470
  97.2553921  60.0922441   8.0289084  98.5408974  59.5109797   7.4806541
  64.8987341  42.5742435  16.6786778  64.9631310  41.8086433  17.2495866
  64.0278959  42.5082684  16.2868607  79.0346098  54.3032312  17.0458496
  79.9001074  54.6107531  16.7764390  79.1342402  53.3554125  17.1350038
  56.9039297  55.5560589  25.8514714  57.8532505  55.5429602  25.9733152
  56.5727997  56.0482502  26.6026950  93.3211691  66.5514856  96.2609187
  93.5218364  66.3104850  95.3565498  93.8396055  67.3404055  96.4192218
  46.4644098  37.4106216  34.0425491  45.6697035  36.9454432  34.3038511
  46.3645935  38.2852006  34.4185567  61.6712952  60.2184391   5.4838932
  62.1907425  60.8842421   5.0332093  60.8575487  60.6659508   5.7157946
 109.8223686  40.4773951  25.8859730 109.9480343  40.8634949  26.7527866
 110.6536865  40.0433254  25.6943154  60.7454681  45.5437279  41.3613319
  61.5832806  45.3026438  40.9661388  60.1935863  44.7706318  41.2430763
  53.7396765  38.2533574  13.1060946  53.9345121  39.1192555  12.7476394
  53.2134247  37.8269982  12.4297011  63.3565760  36.6060877  23.4744501
  63.3158207  36.6546178  22.5193501  62.6985168  35.9518576  23.7093282
  88.4608633 104.0288442  90.7585004  88.0605251 103.5637229  91.4930919
  89.3983633 103.8583463  90.8493724  71.7969066 103.6800712  88.6116084
  71.2876469 104.4023889  88.9792260  71.4813334 103.5982173  87.7116385
  91.5395099  81.9604152  95.4246048  91.1645967  81.1998313  95.8686577
  90.9875614  82.0829790  94.6522310  45.2900618 109.9238331   5.4692388
  45.6118601 109.4411510   4.7078612  45.9196871 109.7252903   6.1623341
  97.8757954  33.8982773  12.3909307  98.5579967  33.2491612  12.2192276
  98.2983398  34.7403216  12.2216725  68.6721247   5.7747553  82.0579901
  68.6653155   4.8184870  82.0163539  67.8346079   6.0370920  81.6759172
  31.3354206  17.5424874   8.5531461  30.9755850  18.4287870   8.5181701
  30.9442067  17.1559000   9.3365586  43.1804752  27.3846841   9.5338809
  42.7672338  26.5228033   9.5850945  43.7413740  27.4277735  10.3083277
  80.0755579 102.2336620  76.3655141  80.0666935 101.5582126  75.6873396
  79.1650469 102.2950023  76.6543773  20.5787694 100.7296079  83.7739101
  20.2310502 101.4257949  84.3312660  20.7007729  99.9873393  84.3658438
  69.6807194  18.7977588  28.7253451  70.1926517  18.1753850  29.2418838
  68.7702608  18.5976434  28.9427209  77.8612954  73.0613547  71.8994334
  78.2234532  73.0616384  71.0133913  76.9300801  73.2463699  71.7776158
   7.4937855  43.5819405  87.3851040   6.7393624  44.1215318  87.6215544
   7.8166043  43.2426005  88.2198915  66.5932655  60.9309769   0.3194809
  67.2824669  60.3170681   0.5731595  66.8484449  61.2303066  -0.5531676
  64.3163538  57.1556854  19.2386723  64.4213724  56.7085505  20.0784779
  63.5856295  56.7039394  18.8165331  35.0231695  53.1806564   7.7489066
  34.6156597  53.6075544   8.5025162  35.0364947  53.8551235   7.0698297
  84.3484974  20.3063440   5.8398616  85.0362301  20.7306647   5.3268284
  83.5361767  20.5387378   5.3900093  29.5069378   2.2326897  63.8174441
  29.6914786   2.5382279  64.7056010  30.3504198   2.2808216  63.3674982
  44.6129084  15.0761390  47.3419762  45.3762102  15.5401289  47.6859426
  44.8855877  14.1592610  47.3071527  52.8887314  81.2557595  88.3639791
  52.1311254  81.5889304  87.8830823  53.1919414  80.5099028  87.8462985
  47.2321081  20.8579397  32.3420548  48.0889511  20.5809498  32.6665902
  46.6055775  20.3416371  32.8491306  78.7178040  75.1570463   1.9304448
  79.3300772  75.0193548   1.2076753  78.4253788  76.0626411   1.8274009
  93.4773827  44.7626352  22.9592133  93.7869167  45.4996443  23.4857440
  93.9066792  44.8769855  22.1113586  38.3970707   6.4392327  80.1293734
  38.9956158   6.7045067  80.8276597  37.5270956   6.4988802  80.5241063
  82.6926231  22.1947956   8.8582140  82.6856041  21.2376261   8.8555616
  82.7904892  22.4361491   7.9371262  50.4100990  68.0716324  13.9683056
  49.5089722  67.7550793  13.9051318  50.6830359  68.2002068  13.0598962
  86.4327366 106.2252849  83.7913969  86.5316183 105.5295413  84.4413116
  85.7803709 106.8150752  84.1692808  92.7333164  14.4671333  56.6738701
  93.3520889  15.0815117  56.2790346  92.0520115  14.3542039  56.0110760
  26.6272902  58.4991264   6.1109567  26.7714357  58.3879614   7.0506889
  25.9775186  59.1993046   6.0494864 101.6432602 109.9460309  80.4982307
 101.1195308 110.4758161  79.8971775 101.6544468 110.4485410  81.3128415
  67.5728559  58.2544565   6.4320922  68.4990311  58.4451437   6.5806663
  67.2687531  57.8837347   7.2605348  73.3989906  59.3579626  49.6468210
  73.5670519  58.5113859  50.0607061  73.7864494  59.9977207  50.2441597
  89.4939518  70.5689383  12.8411579  89.9812126  71.3086033  12.4782491
  88.6334324  70.9301996  13.0538309  15.0811594   8.3553217  90.4593089
  14.1711825   8.6522482  90.4567858  15.0297945   7.4239634  90.2444520
  65.6913328  44.3965483  23.3846378  65.3217125  45.2101517  23.0416179
  66.4655924  44.2387438  22.8444076  30.6918240  40.4452753  37.8409696
  31.0344577  40.7014179  36.9846845  29.7462153  40.3759956  37.7096105
  74.4718409  52.6053572  30.0767350  73.7588358  51.9671822  30.0525427
  74.9651146  52.3835516  30.8664918  57.4804831  80.1359463  12.9307485
  56.8130541  80.6091595  13.4275806  57.1216154  79.2547035  12.8265548
  78.7307596  47.0802975   1.2740299  78.9848661  46.5704536   2.0432630
  77.8025293  46.8816137   1.1509331 105.0019962 103.6565440  87.0641801
 105.9195692 103.9007514  87.1852389 104.9926931 102.7043670  87.1616700
  34.4871140  51.9229794  11.4724720  35.1497912  52.5839090  11.2718010
  34.4751811  51.8783569  12.4285567  62.1179628  44.9183798  16.1567104
  62.1788692  43.9767504  15.9959149  63.0257559  45.2218390  16.1492789
  93.8374407  71.1465364  94.7657443  92.9770357  71.3415008  95.1371229
  93.9516336  70.2066391  94.9064050  51.7114371   3.5455702  89.5669541
  52.3483580   3.0788182  89.0259269  52.1599024   4.3513726  89.8234746
   5.8538567  60.6696107  85.3977313   6.1876713  60.8962523  84.5297244
   6.0106217  61.4520007  85.9264293  70.5220366  43.8057804  16.8734980
  71.1258030  44.0468073  16.1709273  70.6090069  42.8555012  16.9485450
  32.3501301  44.8966122  42.1883154  32.6166153  44.4350958  41.3931942
  31.6330194  44.3702841  42.5418139  57.1534681  45.6699276  40.1171970
  56.7993879  44.9292421  39.6250057  57.9515791  45.3293943  40.5212927
  37.8927946  31.9628501  31.8889213  38.7234426  31.9047356  32.3610210
  38.0145049  31.4052081  31.1205101  96.8748760  38.1676030  58.9469814
  97.0694828  38.7114310  58.1836891  97.6075649  38.3211088  59.5435047
  63.6364937  56.6344881   0.8903392  63.4029818  55.7508373   1.1747017
  64.4046497  56.8598175   1.4151208  52.4725580  20.5877852  41.5222931
  52.9829073  20.2754784  42.2694492  51.5715361  20.6188703  41.8438911
  37.7857232  42.9732227  19.0531063  38.1955862  43.7528944  19.4277382
  38.2274866  42.8506947  18.2128298  39.7279596  54.7821474   4.0623307
  40.3543663  54.2148590   4.5118085  38.9442205  54.7557735   4.6112275
 107.7810795 102.3590367  84.3204680 107.0557720 102.4002498  83.6972049
 108.5069019 102.7933448  83.8723698   9.0707242 102.0005696  79.0443054
   9.0495144 102.2284644  78.1148723   8.6552369 101.1394208  79.0893009
  80.6703281  19.3875027  21.0300112  80.2144337  20.2226639  20.9255981
  80.9452343  19.1522634  20.1438284  91.5244943  86.1720079  83.4180203
  91.5498430  86.5007132  82.5193873  90.6923992  86.4918535  83.7666634
  22.6493406  11.0837138  12.3672783  23.3761263  10.5063927  12.6011908
  21.8869662  10.5060899  12.3302829  88.7020904 102.1694701  74.0425899
  88.8514311 102.5716060  74.8982885  88.9045364 102.8621953  73.4137943
  59.5463181  54.6695518  18.3746445  59.5914364  53.7710619  18.0476725
  58.6960983  54.9911547  18.0747569  78.4866381  33.3007669   8.1862646
  78.4349871  33.4613252   7.2440416  79.3340302  32.8732395   8.3102793
  86.9883537  33.5296822  28.7465405  87.8605080  33.1952882  28.9557099
  87.0983982  34.4798589  28.7106586  64.5227528  57.8560734   8.7781030
  64.3846846  58.6734819   8.2995522  65.4681540  57.8204870   8.9236414
  98.2809807  14.2319773  66.1675194  98.5646010  13.7714718  65.3777554
  97.9742290  15.0820254  65.8519962  71.6895580  59.6436119  14.3761480
  71.6905165  60.4457140  14.8985112  71.1040115  59.8355150  13.6436570
  27.6584816  22.4016070  12.8419018  28.4471822  21.8700385  12.9496801
  27.1015358  22.1563530  13.5807467  59.4949419  82.2762864  79.9146536
  58.5820228  82.0235317  79.7770920  59.4504077  83.0114430  80.5260399
  38.6524122   7.5966023  86.9991121  38.1012171   7.3221205  86.2662557
  38.0784720   7.5439261  87.7633437  89.5203239  85.0984257  75.3489330
  89.5282203  84.7250598  76.2302783  88.6346561  85.4459947  75.2439812
  53.1805038  32.7178431   0.8543912  52.2716951  32.4239993   0.9173123
  53.4299707  32.9196024   1.7562173  64.7690725  33.9787030  27.8935671
  65.2078724  34.0983319  27.0513248  65.3413153  34.4136763  28.5256839
  14.3575161  24.3042754  81.2427273  14.8826235  24.7332857  81.9183317
  14.9996918  23.8798426  80.6737783  28.6150241  58.0698347  17.5107098
  28.8064623  57.4879694  16.7751718  27.9503369  58.6707354  17.1740460
  46.1325455  26.6624713   0.1896233  46.6919327  27.0648289   0.8540182
  46.4464140  27.0245671  -0.6389932  78.5693645  23.5649228  16.8775332
  78.8164949  24.2285728  17.5215244  77.8207016  23.9446068  16.4175570
  67.5714636  34.8623490  21.7080355  66.7900229  34.3095589  21.7065334
  68.1637096  34.4381785  22.3289657  85.9380913  65.0355959  10.6171250
  86.2383270  65.3990030   9.7840428  86.6753197  65.1639462  11.2139988
  46.3481903  25.2451754  58.6432266  45.6804180  24.6096587  58.9009714
  46.7638922  25.5028296  59.4660521  74.9943304  38.6145306  43.0868578
  74.4293118  39.2887640  43.4642076  74.5894337  37.7880096  43.3498287
  54.0813810  98.4936326  75.1022246  54.2705113  99.3773454  74.7867730
  53.6677415  98.6271518  75.9550479  71.4181900  40.4841089  25.1973510
  70.8397007  41.2137508  24.9755287  71.7925978  40.2120209  24.3594861
  82.1629429  13.0216300  29.7040915  82.8186989  13.1282830  29.0150094
  81.5417957  12.3866582  29.3474102  64.0411091  19.4858932  28.5548377
  63.3363056  20.0628996  28.2606459  63.8873434  18.6635745  28.0896711
  77.0329332  20.1936746  71.3869429  76.5797281  20.6479645  72.0971966
  76.7209053  20.6230783  70.5904007 103.8664896  96.0079902  63.4915903
 104.4961960  96.6959184  63.2760504 104.2177946  95.6013435  64.2837122
  58.0337906  35.9065557   4.0652093  58.1916380  36.8500280   4.0309119
  58.7014627  35.5309916   3.4912789  60.4887056  34.9823928  58.1068659
  60.6401062  35.9097958  58.2891512  61.2269354  34.5336533  58.5190344
  63.2503325  99.8095220  80.5583289  63.7581116 100.6207746  80.5422500
  62.3594362 100.0887340  80.7694545 115.5039692  82.8117085  18.7164032
 115.8003330  82.9420853  17.8156245 114.6061802  82.4913979  18.6291754
  77.9722118  57.8776407  31.1736059  77.9983425  57.8013515  32.1274042
  77.7948570  56.9883966  30.8669758  83.9419920  81.4209955  92.8291136
  84.8749191  81.3097423  92.6460868  83.9134819  82.0337408  93.5639354
  79.6826267  40.9540081   0.4645898  80.5316830  40.6003428   0.7296522
  79.3700027  41.4288664   1.2346595  57.5640154  37.7989435  20.7599068
  58.0509138  37.0803523  21.1633754  57.4049807  37.5063610  19.8625016
 107.3647529  77.4869817  90.2300438 106.6269666  77.9979389  89.8971370
 107.0147020  76.6025274  90.3369930  70.6076050  68.7662458  15.7767308
  70.3143120  68.0165243  15.2589178  71.3078117  68.4172297  16.3282096
  82.7915001  57.4642801  26.0488725  82.7752304  56.6896439  26.6109252
  82.1192169  57.2954035  25.3887606  98.5510475  81.2635201  68.4758714
  98.0393917  81.8336576  67.9019502  98.4890777  81.6740077  69.3383625
  76.2179899  46.8990183  19.6940458  75.6482458  46.6519976  20.4224730
  75.8432102  47.7152014  19.3629587  42.3568487  47.6981974  24.4182563
  42.7571344  48.4451056  24.8633742  42.9332399  47.5260639  23.6736965
 112.1449405  51.9195213  70.6116870 111.7253238  52.7657967  70.4568580
 111.7088444  51.5749636  71.3910034  86.4011669  71.4082718  19.5405173
  86.3955593  71.1920977  18.6080647  86.3016319  72.3599339  19.5663548
  72.4837923  30.5454016  10.1121855  71.9941950  30.1937509  10.8557355
  71.8122482  30.8990049   9.5288986 116.1826259  89.3245357  81.6483167
 116.8750507  89.9424332  81.8828013 116.2433082  88.6347216  82.3091522
 102.1469021  53.2875490  48.7250233 102.1838856  52.3337984  48.6527395
 101.2191963  53.4818363  48.8585758  86.4672375  53.4817028   7.4201101
  86.7225933  52.6756144   6.9715101  87.0743084  53.5482311   8.1571841
  52.1526814  34.3704343  11.9685161  52.5033283  33.7903953  11.2926209
  52.1597576  35.2389002  11.5660846  53.9595366  58.3780670  12.6441443
  54.3887472  57.5226736  12.6616895  53.5022402  58.3993864  11.8035161
  13.2805954  88.3189862  87.0606097  14.1432606  88.6216944  86.7770353
  12.7609002  89.1187089  87.1417841  85.2109432  26.4528322   4.4294119
  84.4166279  25.9342098   4.3016630  85.4171371  26.3502359   5.3584933
 101.6144848  24.8813319  34.0992308 101.3333035  24.0126348  34.3865275
 101.2925816  25.4740572  34.7784090  17.8407418 107.3510307  73.2225421
  18.4506070 107.0288318  73.8862327  18.3465134 107.3459809  72.4098971
  72.1836472  27.8385520   2.6502219  72.6483202  28.6645555   2.7845022
  72.2740889  27.3747897   3.4826732  98.5147667  85.2233982  11.7719209
  98.9085388  86.0437965  11.4750755  98.6131477  85.2411747  12.7238846
  29.4243735  27.6526163  89.8175117  29.3120592  27.0124243  90.5202022
  29.5727890  28.4824179  90.2709719 102.0417530 103.8318723  89.2356244
 101.7311699 102.9670709  88.9674964 102.8972370 103.9200347  88.8153776
  42.8209816  89.9103301  80.7067421  43.0726086  89.0935367  80.2757409
  42.6957737  90.5311649  79.9890223  32.1751714  68.6155891  17.1405005
  31.4712763  68.3972025  17.7512932  32.4797869  69.4774818  17.4243701
  85.0483162  99.2403358  92.8568360  85.7860166  99.6985429  92.4542445
  84.7765714  98.5998719  92.1994212  90.3241045  86.8003219  89.8603001
  90.4207260  87.7338069  90.0487205  90.5554611  86.3651508  90.6808671
  87.1444035  50.3834200  49.9533224  86.7949009  50.3815746  49.0622139
  87.4319077  49.4822264  50.0996971   6.8544423  84.9006646  77.5551918
   6.9984566  83.9544743  77.5404766   7.0890557  85.1923721  76.6742280
  73.7520552  53.7992716   9.2626816  74.1262770  54.4927073   9.8061299
  74.1885090  53.8964033   8.4163350  62.5251538 106.7154973  65.4323509
  63.0248338 107.3569720  64.9273112  62.8420479 106.8177932  66.3297608
 102.7781564  82.3534077  88.9246890 103.3053142  81.5758699  88.7409261
 103.4133512  83.0679815  88.9709624  93.4985286  93.9055484  96.0548905
  92.9297478  93.1790512  95.8000893  92.8957588  94.6154683  96.2760479
  55.8220387  85.4203606   5.7017255  55.3944826  85.3799725   6.5571767
  56.1941528  84.5471001   5.5784857  43.1422138  46.7721987  38.7072301
  42.8367615  45.8790541  38.8660431  42.3851633  47.2208357  38.3306289
   3.3020514   5.7240866  89.0490582   2.7645653   5.3012656  88.3793118
   2.8574961   5.5258797  89.8732647  14.6842610  98.2287019  93.9749476
  15.5108677  98.5456174  94.3389794  14.8425805  97.3025983  93.7919259
  83.5579205   8.0369437  31.6794682  83.4291172   8.9808041  31.7731071
  83.7139320   7.7268398  32.5715041   2.9488789  73.0423432  77.9495683
   2.5673424  73.2985073  78.7892333   2.2811925  72.4912458  77.5412622
  60.0114441  37.4513626   8.0965680  59.8201132  38.1768727   7.5022113
  59.2297888  37.3778176   8.6441439  88.8777447  51.5594816  19.0071785
  88.2073498  51.6789532  19.6798790  88.4638214  51.8643188  18.1997287
 106.4683897 107.0920747  76.1220124 107.0317919 107.5827783  76.7203572
 106.2238819 107.7268022  75.4485395   0.4731785  94.7084873  76.7337563
  -0.0160802  93.9116805  76.5289262   1.2250363  94.4039338  77.2418800
   5.4750477  97.0385497  60.1255300   4.8377644  96.4629405  60.5483582
   4.9528538  97.7650302  59.7852710  87.1569061  22.8864956  31.8994403
  87.9089832  23.2927251  32.3302531  86.7158031  22.4001360  32.5959373
  49.8874474  38.7865472  35.5249381  49.4090223  38.1926703  36.1034298
  50.6858826  38.3093500  35.2990651  38.8537138  12.5649927  85.7440784
  39.3829220  12.0134829  86.3202813  39.4072121  12.7101038  84.9767354
  76.2455034  50.9699011  21.9901204  77.1286869  51.1716175  22.2991920
  76.1231184  50.0445080  22.2020316  59.1717911  33.7319922  21.1126328
  59.2149734  33.8794041  20.1678395  59.4120264  34.5747232  21.4977598
  94.2230511  72.0579290  15.4355192  95.1599026  72.1688271  15.2735519
  93.9623928  72.8582954  15.8912659  97.5507832  47.0216322  41.2178516
  97.7076244  46.2250662  41.7249155  97.5087357  47.7182150  41.8730164
 103.9966995  93.8946884  95.0190107 103.4101135  93.3203285  94.5268059
 104.7400219  94.0369361  94.4329512  67.2701025  29.2040873   0.8894654
  67.9073000  28.8850474   1.5285492  67.8020859  29.5422649   0.1691448
  23.9041114  52.9492378  12.7570438  24.0721202  53.6619997  12.1406257
  24.7615266  52.7511978  13.1336713  69.4433165  56.5004587   4.3050858
  68.7967920  55.8059978   4.1787744  68.9833689  57.1656513   4.8171410
  86.5482235  41.2246323   3.8485858  86.0314178  41.3684559   3.0558345
  85.9226608  41.3320255   4.5650828  71.5876675  81.4354801   0.3806970
  71.9429493  80.9166431   1.1023706  71.8473959  80.9587002  -0.4076246
 102.5897962  87.1510404  93.3064899 102.3798544  88.0584567  93.0856955
 102.1589119  86.6332310  92.6264578  76.3589126  81.0995691  85.7454267
  76.7881090  81.9507402  85.8322063  77.0775134  80.4814761  85.6119957
  64.5275402  24.4141054  66.3949585  65.0735664  25.1679826  66.1718893
  64.8549843  24.1248345  67.2466230  79.3153858  70.3593874  12.2017944
  79.6318865  69.5575380  11.7857409  80.0173378  70.9949446  12.0619190
  97.6768017  78.9358330   4.3247491  98.2361698  78.2522202   4.6935451
  96.8643761  78.4836864   4.0972462  55.8874083  58.4240007  16.4712131
  56.3546991  57.8624249  15.8527458  56.5126657  59.1162968  16.6857159
  51.9163245  17.4061631  65.4928091  51.9752043  18.0918740  66.1580613
  51.2263125  16.8234442  65.8099034  74.9758911  27.2873950  16.5447605
  74.7943258  27.2561765  15.6054568  74.4907093  26.5461636  16.9072580
  90.1173782  98.3505630   9.0953135  90.6317520  98.8033199   8.4269869
  89.5700645  97.7389431   8.6027706  77.7360678  12.4702275  14.8525536
  78.1988859  12.1382582  15.6218588  77.7731752  11.7511046  14.2219055
  57.1522093  69.6518373  18.2480609  57.1445560  68.8414431  17.7387106
  56.9161749  69.3795967  19.1348553  38.6991715  55.3778315   1.3463326
  39.2165160  54.6727180   0.9572318  38.8100076  55.2634478   2.2901884
  58.8811922  84.0679073  11.7035651  58.0363369  84.1796303  12.1394253
  59.5168209  84.4418335  12.3137975  84.7088432  53.7838221  25.2282906
  84.2699623  54.3095303  24.5595241  85.5968952  54.1388655  25.2674150
  52.0131796  28.0166720  92.1038809  51.0958594  27.8931330  91.8599742
  52.4987906  27.8687094  91.2923911  70.9256601  58.8870287  30.1156044
  71.7781925  59.2630053  29.8963737  70.3226566  59.2747259  29.4813275
 111.0510540  50.9957695  31.1975861 111.7604923  50.4220724  30.9081149
 110.9698486  51.6466999  30.5005026  40.1364010  14.4224976  77.3277441
  39.8866337  13.6249207  76.8611327  40.6256502  14.9338053  76.6832104
  81.6197395  80.3511333   1.3864635  82.2164822  80.4023075   2.1331361
  81.6627598  79.4364357   1.1077185  74.4656610  17.0940924   1.7242678
  74.1300821  17.0708025   0.8281226  75.2423143  16.5349650   1.7037952
 106.5348053  26.3159847  23.4856248 106.8459320  26.6103697  24.3416452
 105.6996250  25.8858824  23.6692595  10.4993682  27.1776414  25.8442593
  10.5387645  27.4886489  24.9398518  11.2215285  27.6267147  26.2836385
  75.7806349  81.8821716   5.5610996  75.2166605  82.5277233   5.9870535
  75.1978922  81.4107227   4.9658078 105.5617905  25.9455299  37.7141809
 106.4600658  26.2675047  37.6389098 105.1404476  26.2184620  36.8991899
  72.3634768  81.5522289  28.8745046  72.8707695  81.4998341  28.0644798
  72.8383732  82.1843624  29.4140577  46.6960764  85.7955742   2.7029163
  46.9976854  86.5833569   3.1553137  46.8161678  85.0921822   3.3409256
  70.7756281  57.7140379  10.0961733  70.3094578  56.8944263   9.9313831
  71.6870213  57.5192833   9.8778445  74.1687679  74.6585131  39.2129374
  74.5007896  73.8206434  38.8904953  74.4355106  74.6842051  40.1318598
   7.7491778   6.3824366  72.3017672   8.2210844   5.5809115  72.5277951
   7.0162361   6.0849474  71.7627600  81.0525322  52.8739738  23.4816909
  81.6670418  52.1408987  23.4470749  81.4740086  53.5642004  22.9696584
  65.9969252   7.5056122  90.1957545  66.1039751   6.8606184  89.4966438
  66.8907469   7.7553461  90.4301473  90.4731274  29.4837189  11.7142010
  91.3201618  29.4693708  12.1598017  90.4078388  30.3674483  11.3522685
  71.5821934  78.7691545  29.1171336  71.8044090  79.0086079  28.2174039
  70.8768988  79.3699455  29.3576431 107.6007175  48.5197258  55.9466743
 108.3313942  48.5237169  55.3283596 107.4699688  47.5951147  56.1569881
  90.3077126  47.4211264  19.1898000  91.2486458  47.3333883  19.0375972
  89.9348831  46.6021824  18.8633621  91.8591118  61.4370441   6.6772091
  91.6017532  60.9514236   7.4609029  92.5405979  60.8986235   6.2748295
  80.8775330  65.2986622  10.7532370  81.1326599  65.2208805   9.8339480
  81.6830063  65.5506420  11.2048459  14.8923128  17.9900597  56.5494230
  14.5970696  17.0795391  56.5529135  14.5303839  18.3622931  57.3535874
  64.0073776  90.1803398  28.5726547  64.1084051  90.0943661  29.5206189
  64.3270969  91.0610104  28.3766055  80.7495213  15.6652045  29.7990060
  81.0876942  14.7700059  29.7768545  81.0354900  16.0498345  28.9704466
  74.8574972  90.0397015  11.1371720  75.7735348  90.2486897  11.3200140
  74.5230627  90.8102131  10.6781423  26.4231318   8.9400051  63.8018778
  26.7216175   8.0309294  63.7750390  25.7666939   8.9971636  63.1075790
  64.6935034  63.1141615  32.8543162  64.3772602  63.8036251  33.4381509
  64.3848085  62.3012352  33.2544327  80.8326990  80.1916736  50.7532862
  80.6669122  80.5831593  49.8956850  80.9647400  80.9392327  51.3363436
  69.1580248  45.6494331  31.4838052  69.5542479  45.7185698  30.6152081
  68.2807684  46.0171509  31.3768458 113.7921554  76.1575931  81.9561913
 113.8428289  76.6974443  82.7450040 114.6848280  76.1539238  81.6107181
  89.8327923  89.7456932  36.5064502  90.5744743  89.6048737  37.0949316
  89.7650242  90.6974316  36.4300179  60.9431171  22.0960784   5.0110531
  60.4842091  21.5278816   5.6297505  60.7859278  22.9820371   5.3375500
  70.0036287  52.3528624  33.7601233  69.0663052  52.5363016  33.8234377
  70.4101658  53.2139540  33.6627698  48.8470030  52.7253580   2.3874994
  49.2092848  52.5129604   1.5273434  49.6080732  52.7550030   2.9672638
  72.3218966  80.0429058  35.5150056  73.0162001  80.2513599  34.8899245
  72.2827578  79.0865183  35.5193734  75.9118319  41.6095638  17.8754771
  76.1567020  42.4562883  18.2487524  76.6148758  41.4076710  17.2580612
  62.2576952  56.0779905  18.0926681  61.3130522  55.9259367  18.0650723
  62.5323677  56.0456705  17.1762919  70.6120634  98.7633801  17.5720572
  69.7460604  98.5859489  17.9391992  70.4703188  99.4887924  16.9638455
  53.1451321  54.6046162  35.7704210  52.9990292  55.5177259  35.5232167
  53.1251574  54.6094227  36.7274022  98.0652523  39.4996095  21.3172698
  97.1858597  39.6191835  21.6758728  98.6485863  39.8436809  21.9937086
  43.5584879  76.1445951  11.2047470  44.1749907  75.5498648  10.7776058
  44.0588713  76.5336227  11.9220352  67.1595001 103.0793476   8.7704581
  67.8289032 102.6297951   8.2546759  67.4711943 103.9822388   8.8325274
   7.0029961  74.2893391  85.3012553   6.0699688  74.1669243  85.1260200
   7.4416291  73.9067810  84.5413330  43.4266108   0.2279805  87.1816346
  43.8778132   0.7427405  86.5125504  44.0185850   0.2412794  87.9337123
  68.3398628  50.4983759  19.4173813  69.2439461  50.3026295  19.6634424
  67.8965950  50.6673622  20.2487588  23.1633317  55.3073012  91.0098937
  23.4394394  54.8482628  90.2166232  23.6691987  56.1198943  91.0047552
  88.7652206  53.0544424  12.7208972  88.8273430  52.1292162  12.9582286
  89.5487309  53.2203627  12.1966624  87.3654461  77.7345753  10.3863049
  86.9122982  77.9912567  11.1894250  86.7053509  77.8259897   9.6991742
  51.0234373  16.1129998  73.6993387  50.0732344  16.0785721  73.5891035
  51.3482493  16.4632986  72.8698686   0.5524861 102.0612662  55.4069736
   0.6647717 103.0063003  55.3043201   0.8691632 101.6915219  54.5828131
   7.1723895  63.4970808  27.8880405   7.3082404  62.6608896  27.4424362
   7.3164992  63.3013010  28.8138556  91.2101746  33.9732265   8.2353842
  91.9389629  34.5646358   8.0474049  91.6277981  33.1388688   8.4490889
  28.3131521  24.5789908  95.7743469  28.9829272  24.0926169  95.2936458
  28.6068171  25.4893587  95.7393459  74.5947552  63.7222052  28.5448289
  75.4851341  64.0720940  28.5770249  74.6234083  63.0573559  27.8568029
 100.0715000  88.3038586  73.7597087  99.8001987  87.4894922  73.3361104
  99.2506391  88.7411326  73.9860061 101.5263206 101.8862670  91.8045389
 102.2862846 101.3043159  91.8090302 100.9253341 101.4905255  91.1733219
 104.3073750  76.6352606  14.3304777 104.6133614  77.2450113  15.0019038
 103.3602047  76.5905619  14.4612670  64.6994400  34.2906094   3.3527598
  65.5098057  33.9085388   3.0157664  64.7677231  34.1973948   4.3029597
  70.1916361  58.1609678   7.3734730  70.4179287  58.3643961   8.2810199
  71.0327005  57.9910994   6.9492209  45.3243559   8.5632942  62.8427103
  45.8782213   9.2592381  63.1964400  45.8085364   7.7573202  63.0221751
  71.5358734  34.1335893   2.6763454  72.2666788  34.0222311   2.0682681
  71.7143774  34.9650931   3.1156269  44.3170374  32.8713892  95.2574967
  44.7249525  32.0075415  95.1975761  43.4234827  32.7367304  94.9418107
   2.6111941  21.6786432   4.9964139   2.3167090  22.0554543   4.1672462
   3.5665755  21.6889977   4.9382958  47.9628038  57.9458141  13.3490705
  47.1320963  57.9640913  12.8738666  48.3925486  58.7675762  13.1118822
  19.9503058   0.1053379  79.5201245  19.4886034  -0.0598051  78.6980596
  20.4454344   0.9086417  79.3595496  45.9474754  93.9993954  13.9441347
  45.8859301  94.7937775  13.4136641  46.8560839  93.7150478  13.8450909
  41.8003321  25.6481981   0.7826200  41.3503933  25.9867787   0.0085722
  41.5423107  26.2413073   1.4882234 110.5720425  95.8904457  39.6925139
 110.8757496  95.4004097  40.4566240 109.6438313  96.0497761  39.8635888
  90.7560045  89.6242731  62.4265435  89.8726780  89.7109621  62.0681479
  91.0491211  90.5254024  62.5617555  80.0632763  24.4009590  48.5070705
  80.3898716  24.8046684  49.3111753  79.1716194  24.7368121  48.4154940
  68.2068539  52.5159359  31.0152745  68.0135965  51.8289375  30.3773761
  67.7858210  52.2190237  31.8219995  71.4545059  46.5219450  20.1588869
  70.5184793  46.3217688  20.1547980  71.7332315  46.3455582  21.0574579
  36.3354850  62.1939230  17.0094752  36.6383839  62.8530836  16.3849819
  35.3973150  62.3616409  17.0985806  70.4145670  60.0582170  11.7469251
  71.1448908  60.5741978  11.4054263  70.4705334  59.2250299  11.2790573
  44.5426863   5.8494519  95.8438685  44.7268980   6.4135168  95.0927827
  45.1230925   5.0973748  95.7266498 105.3622055  49.5300293  23.4555626
 104.6308422  48.9243317  23.3352351 105.8782768  49.1447210  24.1636825
  50.6575871  38.5840106  11.1663151  49.7886372  38.8345456  11.4799845
  51.0547113  39.4061494  10.8788991  55.1916265  63.1252670  23.2007456
  54.3881130  62.6532555  23.4193802  55.7232761  62.4861622  22.7262712
  29.2169541  34.5336340  87.9058942  28.2743662  34.3754195  87.9581585
  29.3312853  35.0347899  87.0984331  28.2866019  17.9639099  82.8122595
  27.4404400  17.7654312  83.2133189  28.9314240  17.6279782  83.4348288
   4.9597298 103.9471000  75.8378365   4.2270409 104.1042560  76.4333990
   4.5511662 103.6187738  75.0368932  70.8604765  51.9685316  47.6612997
  70.0748205  51.9515467  47.1147776  70.9443903  51.0727310  47.9879951
  32.8730648  19.9146460  87.8517201  33.1669396  19.0133570  87.9841831
  33.5422247  20.4498957  88.2782957  62.9732340  23.8587950  93.3164227
  62.2019022  23.5241507  92.8589329  63.2048624  23.1653546  93.9342570
  79.4640970  77.5175858  24.5414495  78.7912607  78.1293821  24.2427397
  79.4326115  77.5745010  25.4964375  32.3864191   5.9618662  85.2302411
  31.9450253   6.2693976  86.0219636  33.1841534   6.4885615  85.1808289
  77.2713661  54.4115877  33.7453723  77.4389696  55.2966785  34.0690351
  76.5091133  54.5058012  33.1741238  29.2707079  20.4323815  84.5823529
  28.8603514  20.2623223  83.7344625  28.6277121  20.1312922  85.2243271
  51.5658760  28.7344909  27.6342177  51.6939306  27.8312683  27.3443532
  51.1347342  28.6541462  28.4850359  78.7561750  67.2324228  13.5394478
  79.4543791  67.8586340  13.7307739  78.1646776  67.2967196  14.2892671
  24.4203776  23.8235567  85.7995453  24.0317076  24.4090174  86.4494684
  25.0481337  23.2980822  86.2955633  96.0147285  44.7147131  58.4487581
  96.6005611  44.0791655  58.8599825  95.1531506  44.5198154  58.8174486
  78.6590815  81.9002247  33.4365845  78.1318235  81.1605835  33.7385130
  78.0175352  82.5581837  33.1687379  84.8828602  42.1159983   6.1181062
  85.2594376  41.6972351   6.8920982  84.4647980  42.9087639   6.4542234
  62.9126549  83.3290386  23.5877728  63.4446001  83.8212967  22.9625130
  63.1391716  82.4131870  23.4261155  55.6199091  36.1856650  66.6034010
  56.0453528  36.9024275  67.0740154  56.0101717  36.2078570  65.7296541
  50.6472510   3.6847924  54.8409250  50.4868239   4.4206236  55.4317263
  51.3492411   3.9883946  54.2653683 112.4450285  81.9725578  84.4779840
 112.7644521  82.3647302  83.6653343 111.7244989  81.4054769  84.2032209
  80.3320789  57.9120016  39.9913669  79.6201563  57.4684000  39.5302582
  80.8074188  58.3797312  39.3046975  59.7102087  13.4922503  66.0897806
  59.0112704  13.6052130  66.7339542  59.4962805  14.1126679  65.3929689
   3.2144391  94.3126529  79.7943321   3.6729180  94.8768538  79.1716710
   3.9029633  93.9860671  80.3735724  84.3826311  37.2760676  96.1643687
  84.4030207  36.4361666  95.7057100  85.3035086  37.5190256  96.2602542
  75.3871870   9.0738451  18.2564855  75.7014084   8.5842395  17.4963653
  75.5065680   9.9925411  18.0157018  59.8317575  43.2834291   5.5171114
  60.2175713  43.4567022   6.3758063  59.9472523  44.1011953   5.0332183
 109.0296173  42.4045992  57.7533054 108.7355709  42.2714520  58.6544371
 108.6639309  41.6636562  57.2700787  91.1906719  75.2043438   6.9975877
  92.1432304  75.2467299   7.0816171  91.0268211  75.3305387   6.0629970
  57.3830717  18.8755558  91.2086972  56.7879217  19.3272970  90.6104073
  57.9250735  18.3288000  90.6399014  60.0667667  41.2353611  14.2548370
  59.4703674  41.9397449  14.0011084  59.9207592  41.1246777  15.1943374
  74.5846796  67.8052473  33.1440377  75.1631975  67.9293156  33.8964701
  74.9997902  68.3012199  32.4383998  57.8326988  55.9312630  32.9854774
  58.5593700  55.6574965  32.4258018  57.2599554  55.1654053  33.0260968
  83.0432398 102.7708095  85.9750703  83.4763653 101.9236940  86.0800961
  82.1135647 102.5819200  86.1025694  24.1997218  88.0198479   9.9809307
  23.7461019  87.3933125  10.5447662  23.8159800  87.8839779   9.1146088
  91.4201450  26.1978650  23.2802105  90.8182335  26.8876481  23.0006909
  92.2630024  26.6407824  23.3784032   2.3738991 104.8605674  93.3323556
   2.9061829 104.2135089  92.8695154   1.7326104 105.1511996  92.6838812
  77.6907778  50.9855366  29.2583203  78.5087156  50.5031109  29.3786192
  77.9622698  51.8992567  29.1708732  86.9135475   7.4162471  15.1512706
  87.4917126   7.2750324  14.4015944  86.0622597   7.0873749  14.8625028
 102.2099001 103.9380067  83.9844611 102.5295669 104.4699376  84.7132233
 102.9818899 103.4616321  83.6789527 104.2152882  22.7918243   4.4297999
 103.8069725  23.6568260   4.4655553 103.5808086  22.2465062   3.9647222
 105.8582765 109.6845287  89.3129447 105.7725364 108.7437099  89.1588691
 106.3027603 109.7492784  90.1582119 106.9359333  88.5699790  95.1573950
 107.6502306  89.0613430  95.5630666 107.3009426  87.6982563  95.0054172
  22.4736422   9.4760798  77.0747319  21.9744414  10.1935242  77.4649933
  21.9056767   9.1379164  76.3824251 109.1239292  95.0377863  83.9952651
 109.7340233  94.4439262  83.5578289 109.2342264  95.8725160  83.5399726
  79.1205645  61.4913034   5.8386487  79.6780157  61.8777466   6.5140307
  79.3097782  60.5538750   5.8794022  77.5010586  72.5431633   8.6280531
  76.7746592  72.0438337   9.0012127  77.9640102  72.8965139   9.3876904
  67.4510193  63.7649918  14.0989888  67.6007366  63.8704920  15.0385034
  68.3255196  63.6433792  13.7292707  35.7421528 105.7597726  74.8208168
  35.0691163 105.1818126  74.4613603  36.2669217 105.1934522  75.3866246
  62.0309258  27.6652026  12.8683138  62.1408415  28.5978723  13.0534482
  62.8080559  27.2529197  13.2455683  48.1759661   3.5863112  86.6436133
  48.7436884   4.1073273  87.2114697  48.2666033   3.9888619  85.7799175
  31.1886853  10.5018185  95.9011944  30.7483691   9.6543072  95.8373488
  31.3825815  10.7398890  94.9945754  75.3974342  75.5294752  12.1061862
  75.7025814  76.4329576  12.0234883  74.9616957  75.3466988  11.2737465
   0.6471859  96.6226094  91.9805634   0.3571831  97.4545520  91.6063976
   0.2025448  96.5726131  92.8267476  13.7642514  94.6231001  91.0481796
  12.9057156  94.5923274  91.4703050  14.0815102  93.7207382  91.0845426
  25.0035988  94.9822300  84.2307678  25.7670056  94.6168750  83.7836066
  24.4286381  95.2741545  83.5233572  78.8713455  62.0453548  39.1565418
  79.0442657  62.5888443  38.3878088  78.6264277  62.6687241  39.8403978
  93.6696911  34.3072081   6.9290900  93.6906052  34.3908405   5.9757793
  93.5980415  33.3655810   7.0854014  68.8816452  42.1880960  11.5546930
  67.9715967  42.2920418  11.2767756  68.8981533  41.3467503  12.0108747
 100.9868431  82.2070885  35.1507664 101.1182117  81.2691212  35.2893567
 100.8624268  82.2944450  34.2057157   8.6052929 103.0948251  88.8893613
   8.8007294 102.5902503  88.0997768   9.2404496 103.8108581  88.8793608
  21.2132662  11.1649178  86.2187448  20.9373778  11.3595913  87.1144107
  20.4359549  11.3344334  85.6864992  78.9783723  96.2263721  93.5535884
  78.4390313  95.4633682  93.3458090  78.6768586  96.5044540  94.4184527
  99.8280525  47.2308111   8.7658250 100.0024605  46.7314720   9.5636207
 100.1222229  46.6593742   8.0564898  30.5091351   9.7234629  81.5041008
  29.7412937  10.2867745  81.6007271  30.6578749   9.6812628  80.5594709
  50.8095503  80.0100899   4.7823662  50.8795118  80.3837872   3.9039081
  51.6793060  80.1300240   5.1636374   0.4635386  51.7205238  19.7260380
   1.2475924  51.4921236  20.2253628   0.5705409  52.6500368  19.5240664
  12.3558938 104.2456191  72.4058154  12.5368821 105.1750034  72.2653916
  12.4441945 104.1245835  73.3512166  78.1111860  87.2290039   8.5596508
  78.9447880  86.7761326   8.6871302  77.8054285  87.4219227   9.4459504
  84.4841766  83.5574722  18.6367977  85.1502705  84.0518284  19.1144657
  84.8976421  83.3451557  17.8000176  67.5748682  57.2882366  16.2063777
  68.0960369  56.5563726  16.5365040  67.0505476  57.5667906  16.9571960
  70.2406979  64.1441011  18.7428951  70.3579950  63.9133406  19.6644282
  69.6610117  64.9056482  18.7585986  35.6600904  35.3478551  14.8197520
  36.6074657  35.4692364  14.8828483  35.2928591  36.0385489  15.3713989
   2.5436436  84.2616838  61.8414429   3.2037198  83.8672345  62.4114707
   3.0496060  84.7186845  61.1695912  72.0544481  49.4472837  41.0256147
  72.6958704  50.1458454  41.1553240  72.2284794  49.1234016  40.1418447
  93.2465076  58.4694195  23.5726857  92.9363251  58.7634706  24.4291615
  93.4280014  57.5370407  23.6908484  67.8548908  68.1585217   1.8063077
  67.5783873  67.5950718   1.0836019  67.3394775  68.9577484   1.6976212
  52.5911236  64.5866776  24.7759223  51.8890190  65.2325344  24.8543239
  53.1206846  64.7117853  25.5634165 103.4064484  50.7895374  45.1076460
 102.9078770  51.6066027  45.1000834 104.0188408  50.8893728  45.8365154
  73.2938099  22.2676802   9.9911022  73.9044189  21.5370250   9.8934764
  72.7816582  22.0494127  10.7697511  48.1555462  36.8777871  16.3255525
  48.7523031  36.7145753  17.0559466  48.1454802  36.0552549  15.8360934
  79.6772575  21.8472266  20.2991009  80.5783939  22.0110965  20.5771875
  79.1870213  22.6056910  20.6163311  88.1197483  99.3811267  91.1918887
  88.5459501  99.1991847  90.3543433  88.1251413  98.5411399  91.6508323
  29.6310364 110.1272338  90.2467707  30.3975998 109.6691888  90.5914661
  28.8951909 109.7708505  90.7445177  72.0816135  42.7683783   1.3580115
  71.2604618  42.6540995   0.8796011  72.5191975  41.9198704   1.2888430
  95.8282471  50.8905602  19.3007123  95.3710556  50.9449768  18.4615171
  95.2227592  50.4195595  19.8732281  88.0287838  36.0243106  32.4970984
  88.9321232  35.9334803  32.1938562  87.7976322  36.9305086  32.2931194
  98.9652157  35.4558039  17.8860998  98.8760662  34.5387721  18.1455946
  98.9886475  35.4328275  16.9294620  72.4914503  56.9718266   6.2895316
  72.1361732  56.1152315   6.0523492  73.1085873  56.7874479   6.9976139
 105.9201145  61.7062616  15.0577283 106.6137409  61.1572409  14.6921015
 105.4258823  62.0072174  14.2952394 105.0553066 110.3548425  78.2281628
 104.6311647 110.3096288  77.3712519 104.8949510 109.4965261  78.6203590
  74.9645090  61.2832451  12.1974075  74.7206593  60.5907631  11.5832055
  75.8472157  61.5400219  11.9307160   3.0997818  11.9035624  75.1875952
   3.9569729  11.4946125  75.3068068   2.4730843  11.2178086  75.4182985
  38.1914258  99.3364334   9.2953706  38.8932610  98.8676357   8.8438284
  38.5169315  99.4530773  10.1879358 114.1634065  90.3664749  80.1207712
 114.3114073  89.6184366  79.5421806 114.7173006  90.1937001  80.8820727
  68.2681274  36.3442516   8.8311189  67.7456856  35.6084967   9.1504151
  67.7483797  36.7155313   8.1182086  81.8898869  81.6683674  24.0375686
  82.2225666  82.5609589  23.9435697  81.9838238  81.4747334  24.9702597
  65.0060415  57.6303816  15.3798926  65.8971691  57.3623610  15.6041491
  65.1019382  58.5199118  15.0396430  45.9742689  76.8575668  12.4465585
  46.4978600  77.2946119  11.7749381  46.4361238  76.0359097  12.6132905
  60.8509398  78.9688015  39.9529958  61.1467886  78.4615326  39.1970968
  61.5793133  79.5594263  40.1450062  44.4681358  40.2190590   3.9213914
  45.3311586  40.6117582   4.0525848  44.0625048  40.7545137   3.2394949
  90.4443199 102.2484821  79.0363172  91.3100702 102.5115340  79.3485883
  90.6228239 101.6215318  78.3353892  68.7539196  55.5105877  21.2221885
  69.6141958  55.9228992  21.1436915  68.1323004  56.2262201  21.0891628
  57.6800871  39.7980952  15.1334596  58.5480213  39.5707607  15.4669809
  57.8531218  40.3692293  14.3850660  74.0846252  71.9029474  36.4436817
  74.6233034  71.8453598  37.2328186  73.1856108  71.9435740  36.7698097
  85.5167103  80.0911713  27.2738481  84.6640110  79.8993301  27.6641417
  86.1067295  79.4416285  27.6562142  66.8533564  39.2075944  18.9351892
  67.1043348  38.8235569  18.0950975  66.6512060  38.4553838  19.4915593
  96.7440987  24.9302888  23.5758352  97.0545959  24.8091340  22.6785350
  96.2397099  24.1387486  23.7636781  48.4999466  19.0949619   7.1359581
  48.4420919  20.0487661   7.0798987  49.4144011  18.8981259   6.9328231
   6.0125607   3.0925988  77.0241609   5.3872841   2.4283407  76.7342892
   6.4621561   2.6902483  77.7672675   8.5699975  99.3777888  81.3729241
   8.9967381 100.0326532  81.9254401   8.4058224  98.6395877  81.9597319
  90.4822159  71.8051195   3.7545297  90.6562424  71.8012762   2.8132898
  90.0747967  70.9561491   3.9262399 112.0066864  88.7538164  74.7802165
 112.3692447  88.0814570  75.3570321 111.0681278  88.7499374  74.9681619
  97.8852177  92.3578644  18.9808655  98.6621666  92.8929806  19.1428626
  97.3119640  92.5360394  19.7264266  58.5751724  59.6268225  16.9866586
  58.5643768  58.8627625  17.5631368  58.9926291  59.3151283  16.1836600
  55.4989338  61.0879040   9.8792654  56.0349846  61.8778944   9.8099649
  56.0342789  60.3997755   9.4841510  38.5086107  50.3349161  21.1257100
  39.1747570  49.7417593  21.4730549  38.1843781  50.8065748  21.8929410
 109.9649269 105.4339307  93.4069615 109.7820312 105.0156635  92.5656333
 110.3888971 104.7510856  93.9267704  20.6634873  25.5206869  67.8237656
  20.7085341  26.2489794  68.4432700  21.4208763  24.9762533  68.0386713
  82.2985203  93.2381004  75.7653048  82.1124346  93.6080139  74.9023059
  82.6290161  93.9768904  76.2763741  50.6825018  53.5474539  11.5739310
  50.2249002  54.2886877  11.9706726  51.5578127  53.5715914  11.9605601
  88.6354828  42.2051620   8.5081351  87.6982880  42.0206928   8.4458029
  88.7851906  42.9029226   7.8702104 111.2068207  98.1417268  93.4066954
 110.8275873  97.2661632  93.4828558 112.1213037  98.0300754  93.6664802
  59.5352030  12.7494228   1.3857856  58.6111832  12.9962468   1.3470984
  59.6734715  12.4805653   2.2939862  33.3081089   2.7315192  31.7571020
  34.1082894   2.4036269  31.3466930  32.7088582   2.8831058  31.0262442
 117.4288940  76.5138578   7.0055532 117.1556854  76.8820477   7.8458089
 117.3884964  75.5662823   7.1347892  65.6624889  57.0427179   2.4815759
  66.1280346  56.5462589   3.1546518  65.7329798  57.9543829   2.7646419
  83.5465145  85.9880543  20.5946064  83.3305359  85.1710987  21.0442519
  84.5016575  85.9818554  20.5322599  91.1602688  48.6422968   3.6799970
  90.7919979  49.0200520   4.4786909  91.1711407  49.3672705   3.0550772
 110.5875969  19.7969759  31.7414713 109.7551727  19.7421551  32.2108340
 110.8885670  20.6931591  31.8914747  80.2296543  49.7215462  28.8101196
  80.5762768  49.5131063  27.9425740  80.8879089  50.2974749  29.1990137
  94.9266655 105.8819335  93.6285558  94.9427635 106.8249648  93.4652605
  95.4070789 105.7727330  94.4492337  11.7060791   2.7997260  15.4294086
  11.1699234   2.0327907  15.2279961  12.0625054   2.6209502  16.2995994
   6.0583149  28.1137042  12.5804782   6.4412343  28.9069991  12.2059321
   5.1442181  28.3442359  12.7463353  80.4698181  83.9069176  29.4371748
  81.3140392  83.5459900  29.1664982  80.0175667  83.1726933  29.8526502
  25.6404274  18.2768200  89.7795567  26.1418503  17.4647377  89.8526069
  26.2018746  18.9416645  90.1782921  76.1565733  44.3716669  10.5156386
  77.1106720  44.4436741  10.4885328  75.8779144  44.5412970   9.6157455
  72.9201746  35.1066017  19.1984916  72.1239424  35.5151415  18.8588715
  73.4672737  35.8417010  19.4751632  33.8014048  27.0664976  73.6192468
  34.6189755  26.7121504  73.2696012  33.3772581  26.3190268  74.0406874
  14.5231776  41.0792351  49.1096449  13.7598853  41.0788965  48.5320520
  14.1876559  41.3920164  49.9497795 101.4599037  61.0502243  36.9564462
 101.7633629  60.6949139  37.7918482 100.5457306  60.7729435  36.8961644
  89.0686321  63.8006163  24.8634458  89.0442276  64.6535873  25.2971220
  88.2920265  63.3446836  25.1878476  14.4877391  66.3805056   7.5043112
  14.9830870  66.6408014   6.7277122  13.7634616  67.0048904   7.5468242
  93.6325550  80.8635521  32.1562076  94.2635250  80.1836300  32.3924685
  93.2881355  81.1723042  32.9942250  55.5830812  81.9657803  14.3801939
  55.3306103  81.2780476  14.9962389  55.0244379  82.7087498  14.6085286
 102.4795276 109.7683900  93.1827465 103.1371719 109.0880626  93.0382064
 101.6448004 109.3375772  92.9987186  76.5883875  62.7653027  16.5738773
  76.0778093  62.8383684  15.7675266  76.3306570  61.9214249  16.9449258
 111.0739983  23.0635260  87.8942230 111.5297235  23.8997744  87.9903468
 110.7685722  22.8543518  88.7769422  97.6149082  83.4597778  67.0085430
  97.0952606  84.1816616  66.6548777  97.9152489  83.7758636  67.8606653
  49.8895836  39.4762182  32.8004026  50.0020409  38.6750960  32.2887516
  49.7353363  39.1699791  33.6940789  71.4699888  45.9263849   4.7892568
  71.2349558  46.6883564   4.2597395  70.6643867  45.6999731   5.2539909
  97.3448116   2.2163539  36.3373566  96.8008072   1.6189437  35.8241415
  97.4016124   3.0080180  35.8023190  39.7281491 105.2344745  85.0260821
  39.6516263 104.3251937  84.7369638  38.9899575 105.3590816  85.6225458
  87.6906872  74.3486261  42.1580219  87.2717857  73.5922861  41.7472887
  87.6801300  75.0252390  41.4810324  87.1604347  54.4667435  22.4045467
  87.6200294  53.9552307  23.0703950  87.8390980  55.0184441  22.0156121
  95.0818348  85.5106354  17.7045500  95.5092049  84.6643829  17.5725245
  94.1456795  85.3122520  17.6822317  90.1667118  20.7611942   4.2107621
  89.3920040  20.6553078   3.6586305  90.8433247  20.2419710   3.7762013
  96.0680676  40.5481863  22.7838612  96.5171432  41.1582804  23.3689690
  95.4418564  41.0918236  22.3057961  61.0617685  44.2699909  32.7538943
  61.3730812  43.5051060  32.2698855  60.5118799  44.7417498  32.1283531
  47.3382872   4.1145466  95.5079767  47.6405924   3.2214640  95.3429147
  47.2113817   4.1530941  96.4559430  95.4146957  69.6430397  21.5740967
  94.9656010  70.3381157  22.0551491  96.1894512  70.0682449  21.2064171
  86.1435699  50.5351114  23.0352139  86.5528393  51.2608671  22.5640392
  86.8547344  49.9103737  23.1772327  12.6274907 100.9284299  82.4721554
  13.1468045 101.4603227  83.0751815  12.4264561 101.5178292  81.7452255
  44.7653788  24.2469405  95.3109087  45.0691527  24.9012087  95.9401049
  45.0794237  23.4134911  95.6615807  36.1961842  92.7185154  37.3406172
  36.9118047  92.8966618  37.9508495  36.5901232  92.8179646  36.4739227
  88.2674789  67.2072029  48.7144852  88.6809635  66.4943552  48.2275438
  88.9912033  67.6377773  49.1695166 112.9116756  94.7814983  93.2268494
 113.3960373  94.4926232  94.0002692 113.5663206  95.2220147  92.6849833
  63.5097075  46.0539436  22.5153470  63.8642406  46.6178608  23.2027626
  62.6007605  46.3377285  22.4178219  79.4466829  44.2948198  18.6528516
  78.5993004  44.2465353  18.2103038  79.2800426  44.8251200  19.4321108
  57.9787827  72.4703646  20.7506156  58.2310915  72.5305653  19.8292303
  58.0497122  73.3672333  21.0774589  87.7061081  38.5924077  42.4545527
  88.5124493  38.0825496  42.3765373  87.8929043  39.4084907  41.9904995
 109.7172260  78.3223295  60.0097179 109.5936680  79.2291355  60.2901936
 109.4564915  78.3188438  59.0887213  65.8543413  29.3584822  89.1802946
  65.4650038  29.4852351  88.3150866  65.8331412  30.2270315  89.5820525
  78.0423832  80.3708935  46.6667461  77.8577995  79.4481039  46.4917326
  77.2820473  80.6777477  47.1606684  61.7315578  79.3766069  20.9983897
  61.4448214  78.5102797  21.2873363  62.0278311  79.2428970  20.0980711
 117.3435593  55.7067108  30.1331425 116.8627262  56.0129166  30.9020829
 117.3190498  54.7521496  30.1997852  72.4716806  62.1700716   1.6200726
  71.7816877  62.5795221   2.1420790  73.1285048  61.8992281   2.2615221
  66.6778278  99.7094536  48.7269640  67.1457672  98.8767338  48.6650705
  67.3368120 100.3707790  48.5157251 108.7914085  58.9968824  16.4129174
 109.0489674  58.1958580  16.8692696 109.3787289  59.0421009  15.6584370
  76.0321903  77.3004532  18.2422125  75.7581472  77.0612574  19.1276050
  76.7542076  76.7036009  18.0455077  60.0733089  76.0923147   8.9282262
  59.2424202  75.6774092   9.1599739  60.7259703  75.4014349   9.0420520
  57.2738647  66.7609930  32.4236822  56.3478565  66.5424490  32.5284457
  57.6470041  66.6480446  33.2978916 103.4136963  40.3162003   6.5689182
 102.5695896  40.0203371   6.2280685 103.7014866  40.9853888   5.9479547
  99.8260212  73.9148521  48.2592726 100.6506252  74.0545750  47.7937126
 100.0898647  73.6883783  49.1510820 108.3359814  83.2517624   0.5760671
 109.1208649  82.9907227   1.0577846 108.5757160  83.1509018  -0.3451204
  31.0461825  39.1394900  78.5093441  30.2250975  38.6865137  78.3173755
  30.7912176  40.0530241  78.6385241  92.2793674  59.5102501  20.5335283
  91.3361168  59.5902729  20.6753087  92.3580837  58.9914131  19.7330022
  82.3381329 104.3610096  25.6229281  83.0697250 104.7511768  26.1012316
  81.7936611 105.1060677  25.3686309  23.2240742   8.7512158  94.9432574
  23.2784289   9.5001267  95.5368963  22.2876566   8.5632227  94.8799574
  74.0802383  51.7310715   6.1148459  73.6882591  51.4125109   6.9279295
  73.7490511  52.6244688   6.0232455  86.4391232  67.2685146  70.1875830
  86.1346149  66.4549446  69.7855711  86.5251064  67.0586157  71.1175203
 111.7004871  80.9973240  50.9436607 112.3398876  80.7718086  50.2679777
 111.3030434  81.8115997  50.6350851  79.9249649  58.8589096   5.4481560
  80.4857731  58.6635542   4.6974480  79.1350794  58.3393240   5.2986830
  80.9065723  54.7628736  56.8548393  80.8146286  54.1850996  57.6124382
  80.6571198  55.6274176  57.1812820  18.9377820   4.1413932  74.0720892
  18.1327187   4.6456008  74.1898966  19.5090138   4.7174506  73.5640717
 100.8358097  62.8617668   5.0025994 100.8050156  63.4126759   5.7847631
 101.3603592  62.1047354   5.2633524  86.0677129   1.5249114  18.6120033
  86.1685497   0.6611209  19.0119195  86.6165334   1.4916377  17.8284740
  57.7192402  71.7210531  24.2325759  58.1740713  71.4163685  23.4473825
  57.7784586  70.9867811  24.8437810  57.5664759  75.7299614  36.2351966
  57.5064516  76.6845274  36.1973906  57.9380131  75.5473328  37.0982385
 114.8266220  77.1333456   1.2139298 114.2218304  77.3841381   0.5156747
 114.4253731  76.3610601   1.6124305  98.6467838  85.3074265  30.6301618
  98.1018257  84.8409271  29.9964237  98.2111168  86.1519814  30.7448816
  45.5209463   1.8153332  85.9953430  45.5549925   2.2048662  85.1216522
  46.3849562   1.9890879  86.3688829  45.5756617  59.0714741  19.5102167
  44.6348286  59.2100000  19.6191907  45.7197905  58.1697083  19.7970462
 102.2863674  66.9318295   0.5078036 102.2203445  67.4135303   1.3323241
 102.8672123  66.1971378   0.7054813  70.0491142  80.4901505  21.9338059
  70.1866722  80.6052780  20.9935617  69.6053219  81.2917328  22.2108555
  87.0191097  33.4284949  32.5174904  87.2160816  34.3645167  32.4814510
  87.8179359  33.0287004  32.8613877  41.3905924  15.0044392  91.6432342
  40.6792944  14.9096249  92.2767112  41.3077658  14.2394827  91.0738340
  83.7531090 101.8140984  33.4330368  83.5103321 100.9212208  33.6781001
  82.9417324 102.3147964  33.5179543  83.7591553  96.0542488   3.0727968
  84.2345142  96.5129089   3.7655407  84.1099930  96.4183521   2.2600384
  65.6161898  19.6999358  95.4913073  65.2429884  18.8296746  95.3512874
  65.7442778  19.7560929  96.4382351  91.1304283  66.9117022  20.4785943
  91.7869949  66.2446880  20.2779698  91.0484695  67.4178457  19.6703064
 105.1630211  64.1242790  55.5927849 106.0763645  64.4106865  55.5964756
 104.6789742  64.8719215  55.2421284 109.2808437  51.6561699  49.9361134
 109.1247749  52.4725437  49.4613457 109.9005699  51.8947363  50.6255054
  68.0581188  64.8287487   9.9181068  68.3194208  64.5047331  10.7800627
  67.6775217  64.0668964   9.4811201  46.8501013  11.7541550  96.2131871
  47.0548647  12.5957678  95.8057591  46.4608782  11.9848011  97.0567181
  53.0823708  49.2079210  33.9233470  53.7131310  49.0511942  33.2206345
  52.2624207  48.8380098  33.5961080 102.4313831  97.4646759  35.0569534
 103.2128811  97.6288700  35.5847049 101.8355656  97.0044041  35.6480455
  89.4222927  68.7972069  15.8362424  90.1124096  68.3887196  16.3588417
  89.8529720  69.0359497  15.0154233  85.5598831  58.0327129  33.1829858
  85.5617619  58.8845873  32.7464795  86.4793873  57.8689575  33.3925796
  73.1849957  82.1175575  26.2413955  74.1134071  81.9702816  26.4219403
  72.9548073  82.8778362  26.7754650  22.2982519  13.2372521  94.3158045
  23.1383818  13.1897448  94.7720468  21.9027203  14.0516756  94.6264438
 103.5915565  73.6124372  21.8640137 103.6099815  72.9984474  21.1299086
 103.6239529  74.4768429  21.4541531  83.5097694  58.8557959  20.3260851
  82.8384399  58.3046389  19.9238908  84.3216324  58.3598089  20.2206612
  80.0062466  56.1471844  12.9224360  79.8202085  56.9191360  13.4569585
  80.9617329  56.0926056  12.9049110  75.8601904 102.5532341  21.8917346
  75.9923840 101.7664623  21.3628244  74.9469709 102.7949619  21.7373681
  15.9393441   5.3865390   5.9513396  16.5690457   4.7378306   6.2658137
  15.6160580   5.8113055   6.7458767  44.6962452 109.2893887  11.6983461
  44.0837336 109.8614025  12.1607935  45.5112123 109.3593216  12.1955049
 103.7861061  52.3849392   1.4144704 103.8984013  52.1634436   2.3388943
 102.8732109  52.6640940   1.3442503  78.5140085  73.8937569  31.0194016
  78.3792686  74.1027832  31.9437313  77.6797247  73.5212612  30.7339978
  44.1428107  14.5056294  81.8366936  43.4302252  14.2921351  81.2343028
  43.7292689  14.5246027  82.6997438  65.5795717  86.9443798  29.2600965
  64.6967793  86.6699886  29.5083261  66.1560965  86.3089561  29.6844602
  63.5326672  77.2218418  39.3387294  63.6822033  78.1406212  39.1157651
  64.1120863  76.7356539  38.7521076  55.7491732  80.8926678  20.4899573
  55.9283924  81.1903667  19.5980549  55.7394791  79.9376392  20.4262853
  70.1530313  71.3271809  13.9822030  70.2560854  70.6861734  14.6855652
  69.9500847  72.1468401  14.4329858  92.3453236  80.8148670   2.4779056
  92.2933483  81.7703438   2.5025189  93.2694340  80.6211472   2.6351255
  71.2531137 101.6173077  26.1757994  72.1171427 101.9172382  26.4581609
  71.3719845 100.6859875  25.9893727  66.4362621  43.2112598  51.0236979
  67.2829819  43.2783365  50.5823421  66.6429806  42.8468609  51.8843460
  47.8725928  20.5495690  95.9817172  47.8878039  19.6415613  95.6791964
  48.3199614  20.5277108  96.8276577  85.0864601  92.9741478  20.8879113
  84.9785709  92.4182510  20.1161766  85.8473682  92.6104069  21.3406157
  74.8907011  48.7050627  84.7560969  74.1207236  48.3555411  84.3075433
  75.3353995  49.2326926  84.0927091  94.9283504 103.4714508  45.4591227
  94.6647739 103.0363274  46.2699413  94.1572285 103.4141159  44.8949242
  69.4338512 102.8288651  24.4548607  68.7584352 102.1640491  24.3204498
  70.0508547 102.4236679  25.0642490 112.3343372  63.3766079  33.3561945
 111.9742107  64.2633343  33.3725643 112.7946377  63.3204603  32.5188184
  77.4706650  74.6952581   6.9809270  77.5271082  74.2541218   6.1333150
  77.4716139  73.9840794   7.6215971  69.8879576   7.4173063   9.2835510
  70.6942892   7.8382367   9.5816815  70.1843405   6.7145592   8.7051606
  19.3876874  79.8056954  52.5935533  18.9884125  79.4536203  53.3890751
  18.6564957  80.1857393  52.1065691  41.0435503  23.2633494  95.2732012
  40.8112257  24.1912936  95.2389404  40.4772776  22.8996371  95.9538504
  97.8917391  78.5552400  75.7832554  98.6760074  78.3057302  75.2944830
  97.2620422  77.8586667  75.5975082 114.5203001  71.7369550  89.3336055
 114.1162044  72.2088628  90.0617799 115.4320270  71.6198819  89.6005937
  77.4325085  21.4484978   9.6922666  77.4630594  21.2111449  10.6190681
  78.1939125  22.0143867   9.5647252 115.6655103  72.1893936  63.2816055
 114.7836906  72.5236338  63.1175616 116.1516363  72.3939686  62.4828198
  25.3052777  99.1779668  28.0505514  26.0031575  99.5525415  28.5880351
  25.4279726  99.5747752  27.1881580 103.5760099  99.0295404  73.1862929
 103.2150919  99.5813840  72.4924329 104.4209940  99.4282525  73.3942798
 115.3914291  47.0976757  78.2184735 116.2161857  47.3947995  77.8341189
 115.2235920  46.2525719  77.8015056  78.3738470  18.6817634   1.2602666
  78.7044191  19.5787477   1.2115347  78.1859779  18.4460533   0.3517645
  37.0039749  34.9539566  18.0098331  36.5578675  34.7116613  18.8213217
  36.4754844  35.6659985  17.6493835  11.1738985  16.0885094  70.0694302
  11.0755080  16.1701392  71.0180548  12.0403593  16.4517687  69.8863605
  13.5578858  83.6588090  59.3901494  13.6906182  83.9054125  58.4748342
  14.3890988  83.8663357  59.8170689  98.9460356 110.5305045  76.5722814
  98.7254650 109.7762244  76.0257986  99.7831566 110.2984136  76.9742670
  63.5683966  20.6324863   6.1659557  63.7835169  20.4906821   5.2440840
  64.2435169  21.2341952   6.4796299  87.6780224  27.4595046  38.3586073
  87.7834511  26.9492412  37.5556445  86.7323971  27.4828362  38.5051417
 115.3942949  91.6459602  88.5380658 115.8883125  90.8847755  88.8426581
 116.0446626  92.3458403  88.4795782   8.7960755 103.0694431  81.5563407
   8.8402592 102.7076905  80.6712344   8.9899956 102.3269742  82.1284988
   9.4169747  96.1671966  75.7461980  10.3133236  96.4668077  75.5944207
   9.2278325  95.5922311  75.0046661  23.6865841  71.5210825  88.8976142
  24.3515050  71.1780279  88.3005956  22.8576218  71.3768416  88.4412685
  72.5856686  44.4212151  18.6188257  72.2871256  45.1895905  19.1053545
  71.8916178  44.2574978  17.9802918  79.7449970  63.5650587  26.4393592
  80.5145168  62.9958010  26.4425111  79.7760773  64.0051079  25.5898762
  82.3453171  92.2797721  82.7230969  82.8216392  91.4797610  82.5009945
  81.4860183  92.1675771  82.3165861  57.4955940  18.2013893  55.5600309
  58.0509901  17.4234068  55.5099535  57.1178102  18.1698012  56.4389563
  58.6142367  36.5800570  86.5349224  58.7724036  36.5236853  87.4772802
  59.0660399  35.8190440  86.1702826  60.2842921   4.8084734  52.9582766
  60.7990187   4.1679810  53.4492472  60.5512255   4.6829031  52.0476654
  75.1876593  14.8333657   8.7239605  75.2128935  15.4966533   8.0342901
  74.4270277  14.2933953   8.5092366  99.2177517  95.2803558  83.5174671
  98.6036569  94.5461147  83.5147312  99.4662172  95.3882116  82.5993898
  89.1389179  32.3453665  22.8956747  89.8374271  32.9618049  22.6758575
  88.4053707  32.6060462  22.3387218   3.4600770  94.1742557  93.6963564
   3.9890610  94.0406769  94.4828462   3.8766705  94.9113553  93.2498535
  43.9044779 106.1721249  31.6676617  43.9486998 106.7244424  30.8871365
  43.8879412 105.2775777  31.3274503   4.0240704  81.5328830  60.7359388
   3.8705479  80.9947532  59.9593571   3.4412514  81.1658972  61.4006761
  85.2920515  90.5338805  85.6580153  85.2305109  90.9797400  86.5027943
  84.3967373  90.5375975  85.3194442 105.1018047  35.8466458  12.8816020
 104.4896889  35.2066970  13.2449353 104.5762253  36.3585949  12.2668624
 113.8869745  96.8691199  79.2324164 113.4339554  97.7006095  79.3725148
 113.5959083  96.5805667  78.3674028  49.5654774  32.7819753   3.6950529
  49.0674686  33.5621428   3.4510094  49.9249840  32.9875445   4.5580304
  15.9219014  75.9253376  74.5691946  16.4518582  75.6158417  73.8346317
  15.3599774  76.6016501  74.1909411  58.2955950   1.8563412  89.5480975
  58.0471056   1.7921780  90.4702535  57.5514143   2.2885559  89.1290328
 104.1274834  69.8916245   8.0551219 104.9340153  69.6778393   8.5241973
 103.9096451  69.0918589   7.5764185  69.0056467  42.5858450  41.4037228
  69.8235416  42.8065729  40.9581232  68.8297749  43.3385658  41.9682741
 112.4683077  98.6552566  84.0130630 113.2669193  99.0714067  84.3375197
 111.9367391  98.5137027  84.7964087  78.3913803  64.7355986  12.2407687
  78.4721041  65.6011200  12.6414979  79.1971970  64.6296644  11.7351341
  62.9172325  32.0686364  28.8768172  63.4311104  32.8061771  28.5478854
  63.5544395  31.5152097  29.3283844  20.3176343  78.2586806  86.1478618
  20.3857743  79.2059487  86.2673226  21.2158047  77.9405516  86.2390044
  61.9739246  10.0585091   7.2963077  62.2799015   9.3782902   7.8962338
  62.7303123  10.6335533   7.1803910  85.4813225  84.4328349  76.9481316
  84.8272974  83.7376469  76.8760529  86.1593849  84.0658849  77.5154176
  48.2881260  26.7891979   2.4662694  48.1915903  27.0262909   3.3886033
  47.9932261  27.5639391   1.9876862  62.4907589  78.7976265  33.5287309
  61.7326641  79.2120123  33.9408112  62.9313374  78.3389854  34.2441106
  90.7395918  58.7737867  57.6299789  90.5480558  58.4301131  58.5025814
  90.7812244  59.7225141  57.7500394 106.2270815  85.5716294  92.0563140
 106.2123567  86.4597266  92.4131074 107.1484501  85.4104393  91.8530026
 111.2603456  96.4191430  54.7091988 111.4600164  96.9816869  53.9609316
 110.3183634  96.2614530  54.6456793  60.2569628  14.5462418   6.8241084
  59.9926233  13.6444438   7.0060915  60.5455637  14.5317209   5.9115678
  83.4334850  27.8819633   0.5658071  83.4201431  28.8229179   0.7408997
  82.5726604  27.5734639   0.8487298  24.3143975  56.7758968  93.3526906
  24.1509949  55.8368282  93.4403324  25.2626645  56.8446845  93.2418606
  62.3768806  19.4997561  36.9043756  61.8452501  20.2554631  36.6543555
  61.8138504  18.9942551  37.4906301   1.1955678 103.5122388  85.1885465
   1.0851180 102.6609557  85.6120434   1.3297497 104.1241735  85.9122613
   9.0841996  92.4784487  96.1784345   9.1646325  91.5247601  96.1939309
   9.9804246  92.7962154  96.2881285  86.9887764  81.9229954  76.4933994
  87.5910312  81.3368767  76.9516352  87.4267942  82.1161979  75.6645182
  91.0243702  48.5866785  25.7866120  91.7860603  49.0323210  26.1573720
  90.3511906  49.2652512  25.7356167  26.8125218   9.5361183  81.3160994
  26.0830467  10.0843046  81.6052213  26.4080399   8.6982058  81.0913196
  12.6000630  70.6962174  70.5354002  13.1192433  70.3191250  71.2456730
  12.6829945  70.0676447  69.8182872  98.5254795 108.8285535  74.2739180
  97.7680427 108.7426608  73.6950019  99.2532522 109.0343326  73.6872056
 113.1412536  87.8776162  83.0615714 112.3724634  88.4125632  82.8640154
 113.5975343  88.3595174  83.7513617  33.6691128  41.1080461  72.7097490
  34.2389714  41.7919534  72.3579362  33.2117783  41.5284973  73.4379604
 104.0976841 105.5529159  82.6242938 104.0865452 105.5396026  83.5813358
 103.7542326 106.4158529  82.3927489 103.7139381  12.1401690  79.9485209
 104.4436897  11.5343760  79.8192444 103.9700497  12.9290865  79.4707706
  68.3645647  21.5127657  72.2109321  69.2783182  21.6936348  72.4313047
  68.3128470  20.5578945  72.1687272  63.0229807  31.1629081  15.8781028
  63.3769512  31.4816451  16.7083716  63.7681389  30.7479787  15.4435825
  72.6862257  35.0444125  87.7535406  73.0935877  35.7592963  87.2644409
  73.2870692  34.8782919  88.4799114 102.4063015  61.2461281  43.5223961
 102.0312405  62.1267033  43.5346699 101.8668461  60.7474518  44.1360188
  16.6502511 106.2790721  86.6901746  17.5006997 105.8846086  86.4968374
  16.8220460 107.2205012  86.7108568  34.0892475  14.7406147  95.8938614
  33.8148087  13.9887474  96.4188476  33.6446112  15.4876040  96.2945403
 106.6131527  86.6286987  86.6489646 107.2000963  87.1987026  86.1521509
 105.8510906  86.5159982  86.0808125  65.7804441  31.3490629   2.0063050
  65.9893656  32.1812320   1.5819475  66.4245319  30.7334518   1.6564405
   4.9716412  77.9203242  63.1793573   4.5907055  77.1169036  63.5338095
   4.4222390  78.1333798  62.4250343  78.4411001  76.3042784  10.0950468
  79.1268301  76.8996382   9.7924674  78.0323792  76.7630005  10.8290446
   9.5663868 110.9355777  79.4532433   9.5875393 110.5182880  78.5920504
  10.3402173 110.5961745  79.9029258  61.9542551  21.5432334  20.1800561
  62.3224640  22.4071240  19.9947274  61.6652679  21.5964580  21.0910368
  31.8662709   3.2014464  94.6259704  32.6029175   2.7564810  95.0449999
  32.0216292   4.1310881  94.7929066   8.8216626  92.4654668  82.1252075
   9.7436368  92.4104231  81.8738630   8.6579835  91.6586846  82.6136175
  43.9661234  36.0230254  75.8077553  44.0767210  35.6332777  74.9405196
  44.4652861  35.4524706  76.3921788   6.8067013  97.0439904  76.6192129
   6.9783436  97.8955405  77.0212522   7.6745068  96.6625016  76.4865115
  59.2437267  53.1080341  24.4862914  59.1692972  52.1544170  24.5223570
  58.4245920  53.3971691  24.0842319 114.2679197  98.8504165  96.5357067
 114.2670900  98.8414281  95.5785493 113.3481342  98.9643901  96.7749550
 103.1128675  72.7118879  73.3645704 103.5500080  72.6181489  74.2109468
 103.3397037  71.9132965  72.8880933 116.3839722  36.5022326  23.6295009
 115.8252430  36.3423705  22.8689146 116.6438484  37.4197912  23.5471654
  97.7673942  83.0954545  61.7990592  97.5514681  83.7391656  62.4737742
  97.1757538  82.3624843  61.9692209  86.5349579  50.7989931   6.3199580
  86.6494751  49.8508692   6.2553698  86.4265823  51.0894012   5.4143363
  24.7958600  86.2568801  84.4932881  24.1654240  85.5523890  84.6432176
  24.5925366  86.5772288  83.6144999  74.3868160  41.3800907   8.2713562
  73.7106228  41.9813299   8.5836142  74.2687893  41.3592577   7.3216891
  62.4776537 102.5108236  88.9742818  63.3664233 102.7433580  89.2430678
  62.5896317 102.0711511  88.1314406  76.3933849  15.2521062   2.1020320
  76.9436407  15.0843453   1.3369802  76.9170952  14.9508035   2.8444436
  52.5722122  21.2894201  31.4314151  52.4205351  21.0945678  32.3562193
  53.4710026  21.0022163  31.2704110 109.7234947 106.0788673  90.5180862
 109.4428093 106.6016000  89.7669539 110.6795294 106.0867351  90.4715302
  83.6154062  85.2230566  74.2255547  83.1435186  85.6961482  73.5401776
  83.5095484  85.7652872  75.0072267  59.6894121  24.5079446   6.6630995
  59.0116072  24.4105768   5.9942734  59.3881989  23.9634156   7.3904145
  35.4997765  79.1990297  92.2331717  36.1689030  79.1703098  91.5493044
  34.8546254  78.5448926  91.9646364  56.4768267  29.2283940  36.8977356
  55.7646561  28.9201355  37.4581146  57.2030020  28.6332822  37.0841289
  48.0592489  23.1589580  12.8508043  48.5383606  23.7897182  13.3882332
  47.2903824  23.6401176  12.5449312  87.3313267  80.6063002  67.9151848
  87.8555090  81.3008302  67.5163153  87.8112156  80.3698700  68.7089351
  89.1998083  98.7907355  85.4922095  89.2401821  98.4496682  86.3856712
  88.3981306  98.4149783  85.1284006  77.2817612  17.9053080   4.0172908
  76.5394592  18.5086322   4.0521923  77.7831793  18.1865048   3.2519525
 102.1910858   0.0225733  11.2119114 101.7348576   0.8572777  11.3184571
 101.6564274  -0.4642696  10.5847359  78.5335732  26.8923855   4.1330716
  78.3922434  25.9964657   3.8271546  78.5228634  26.8239832   5.0877643
  49.8549778  90.0786012  78.5421052  50.2795119  90.7578057  79.0662089
  50.1206536  90.2691882  77.6424804  56.5494156  50.2987862   7.4040329
  55.9373522  49.8484659   7.9861200  57.0240545  50.9020138   7.9759288
  64.2850882  91.1037176  74.5670321  64.4019467  90.6880062  73.7127736
  63.3941156  90.8699244  74.8272994  73.9541531  27.8817892  52.5832081
  74.0872335  27.2474647  53.2875872  73.5744762  27.3702383  51.8687868
  17.0732056 104.5311158  76.2157753  17.6482045 105.1041692  76.7229357
  17.4384438 103.6550372  76.3395360  77.7936792  82.0798683   1.2072331
  78.0934525  82.0658779   0.2982925  76.8442583  82.1843910   1.1447306
  50.7148314  34.9441671   1.7987959  50.8917570  34.0335941   1.5626067
  51.5797281  35.3513670   1.8474878  42.3652458  50.9421968  12.6949954
  41.9290829  50.1065874  12.5284040  43.0793667  50.7243872  13.2940114
  69.9810999  10.1665209  90.6271019  70.6324023  10.6976221  90.1688871
  69.1858023  10.6990336  90.6142327  32.9475915  73.5909515  90.4169354
  32.5502144  72.7819889  90.7392755  33.5367142  73.8650375  91.1198178
   6.7655503  96.8419116  88.3835080   6.0540902  96.4923375  88.9200255
   6.7526280  96.3064664  87.5901827 107.9355526  27.2710419  29.7185588
 107.0782852  26.9854784  30.0344324 108.5373783  26.5840316  30.0050020
 102.3917770  49.2618704   9.3600458 101.9573498  48.6019659   9.9004501
 103.2855034  49.2998981   9.7006935  45.1992243   7.5653218  93.4473681
  45.2468031   7.5392054  92.4917081  45.1726168   8.4981249  93.6604509
  94.6623707  56.0164547   7.4389613  94.9816418  56.8221951   7.0326620
  95.4397488  55.6245279   7.8368533  57.8236979  47.8955553  95.5306268
  58.3026617  48.7205313  95.4516670  57.4220579  47.7685736  94.6710956
  17.9211937  77.2651261  68.0499890  17.8441273  76.3148325  67.9649451
  18.7955891  77.4028748  68.4142378  93.1427383  42.7409410  41.2539577
  93.0086422  43.4654045  41.8650246  93.6701870  43.1166649  40.5490732
  64.6248102  42.4662733  35.0503540  64.2989111  43.0892086  34.4007587
  64.4826698  41.6078615  34.6514106 111.6618252  59.7508860  21.2961626
 110.7963181  59.3598223  21.1770034 112.1515369  59.1000891  21.7990327
  98.6875088 102.0032352  49.8826387  99.2132789 101.7652076  50.6462744
  98.0415518 101.3007873  49.8082045 104.9962234  49.4265175  10.0033844
 105.3724480  50.0152206  10.6576920 105.5236626  49.5727873   9.2181182
  27.1370810  27.0880125  80.6105926  26.8350476  27.9241274  80.2557459
  28.0753964  27.2130297  80.7525864  91.5679550  78.2852030  36.2133455
  91.5385818  79.2074060  36.4681244  92.4782848  78.1362295  35.9577131
 114.9458122 105.1122379   6.3251835 114.9650860 105.6388664   7.1242619
 114.0716362 105.2577782   5.9634453  47.9240149  14.2058276  86.8766585
  47.7335470  13.2698677  86.9394079  47.2760695  14.5410870  86.2569812
  73.7856054  73.7559938  18.4928107  74.3498325  73.3210564  17.8535056
  72.9166174  73.7455654  18.0915821  78.9607477  26.2455320  17.9326141
  79.6213722  26.0606551  18.6001694  78.2390404  26.6487813  18.4150684
 114.2510254  85.4914039  70.3808597 114.8700029  85.0968354  70.9952000
 113.9635355  84.7634500  69.8297980  14.4248711 106.2957709  92.5725752
  15.1776825 106.1103862  93.1339523  14.7260319 106.0815852  91.6895932
 109.6575546  29.6799183  29.6486855 109.7782612  28.7922311  29.3115354
 109.7670937  30.2438736  28.8830566  79.5529032  84.1017056  19.3707144
  80.4240894  83.9121628  19.7190630  79.1206980  84.5998001  20.0644994
   2.0840680 110.3014463  93.1922874   1.3377129 110.0712102  92.6389602
   2.7427517 110.6311124  92.5809824   4.4392794  66.6164969  73.4498074
   5.2185028  66.9377898  72.9961470   4.1697377  65.8475111  72.9475787
  78.5138798  86.6319847  14.7801757  78.4309673  85.9132957  14.1534114
  78.6147642  86.1997509  15.6282485 109.2548210  85.2596229  73.6143973
 109.2036039  85.0705188  74.5513323 108.5291559  85.8622497  73.4516647
 108.2180435 111.1487239  85.3443685 108.7199861 110.3750842  85.0879279
 108.5912639 111.4079612  86.1868265  22.2490519  44.5680617  63.4707048
  21.3055867  44.6891211  63.5776880  22.4376648  43.7452982  63.9220598
   9.7565495 108.9880078  96.3893226   9.6827828 108.0338376  96.4079752
   9.2497384 109.2524522  95.6215706 103.2870674  70.1021719  38.2476187
 104.0038300  69.9903250  37.6231480 102.8803253  70.9322882  37.9992127
  66.4128876  88.8370132  17.6132190  65.6107473  88.8101864  17.0916092
  66.2408352  88.2477283  18.3476424  85.5406666  63.5574961   6.0962152
  85.6847382  63.5233688   7.0418948  85.8199310  64.4373369   5.8429897
  88.5175419  70.7773304  20.9329605  88.3600903  70.0211143  21.4982700
  87.7459049  70.8189058  20.3680921  94.9599075  80.3702831   2.4551894
  95.0778103  79.4684458   2.7535588  95.8346272  80.7556629   2.5060001
  78.0679703  55.3463602   0.5522143  78.2173777  56.1035347  -0.0139998
  77.5641632  54.7383738   0.0111417  41.1857432  27.8455256  88.6621901
  40.5729454  28.1000708  87.9723182  41.7570513  28.6062430  88.7677243
 112.3600609 105.9875386  77.8246859 111.9059545 105.5474895  77.1060970
 112.1118337 106.9078296  77.7370253  33.0808562  23.6817787  75.1244667
  32.4128025  24.2486857  75.5098918  32.6701992  23.3306311  74.3343475
  56.5061014  17.6573799  93.6256069  57.0769423  16.8904970  93.5780194
  56.8183916  18.2321595  92.9267984  62.2353125  82.7370358  34.6333170
  62.8850794  83.4339523  34.5419669  62.1116161  82.4067593  33.7434578
 114.0351803  80.0297278  60.3487280 114.1460640  79.1728681  60.7607105
 114.9274999  80.3283017  60.1730755  89.8579884  73.7337828   0.8777729
  89.0966606  73.5071468   1.4118522  90.3863907  72.9357767   0.8631134
  10.7037865  92.1703737  60.0741723   9.8640095  92.2106593  60.5317595
  11.3538395  92.3663467  60.7488993  75.6084871  90.0145054  36.6777182
  76.4191198  90.5062866  36.8090725  75.1661539  90.4689407  35.9607410
  91.5886116 108.4261322   6.4360094  91.2930965 109.1236305   5.8508563
  90.9626484 108.4396553   7.1600413  25.8991337  22.0936370   6.6412145
  25.6641579  22.8364038   6.0850513  26.2756181  22.4917579   7.4260664
  27.7801835  86.4162963  64.4823626  28.5778081  86.7793506  64.0973714
  27.5329720  87.0460289  65.1595309  92.6962376  59.6038580  26.0224438
  93.5292149  59.8553896  26.4213300  92.0847702  60.2889538  26.2925935
  62.6891184  43.5355854   5.0240922  63.1916475  44.3282986   4.8362091
  61.8637180  43.8558626   5.3879213  72.2228146  74.1055012  31.8894219
  72.8504324  74.7872210  31.6494584  72.4171972  73.9131308  32.8067231
  97.7521498  86.9907706  96.3795688  97.0525867  86.5083068  95.9390342
  98.4584028  86.3521879  96.4778208  82.4262810  81.4235878  18.9652634
  83.1441402  82.0132732  18.7346566  81.9549084  81.8809319  19.6615958
  40.4563492  12.7758787  83.3222678  40.7596987  12.3734186  82.5084856
  41.2572783  13.0645321  83.7597886  60.0020998  19.0171526  75.4970625
  59.4570654  19.2226885  76.2566140  60.6202143  19.7459172  75.4415634
  95.2826691  20.1988840  48.9964008  95.1521969  19.2624366  49.1456509
  94.4650650  20.6037617  49.2859411  55.4032439   8.3973168  94.6030238
  55.4288595   9.0353535  95.3161042  56.2703722   7.9920719  94.6129581
  62.3472834  52.0804405   5.3832328  61.7541981  52.7900743   5.1364499
  62.5444412  51.6355038   4.5589805  74.2198277  40.7629442   5.6367218
  73.9611387  41.4554739   5.0286829  74.7409916  40.1605415   5.1059324
  60.3831625  65.8880043  14.0295267  61.3022709  65.8859062  13.7621903
  60.3752422  65.4183578  14.8635542  63.8884085  25.8373545  89.9045858
  64.8322695  25.8346175  90.0637653  63.6213702  24.9270438  90.0320676
  34.9603783  99.7619336  74.3032363  35.2677857 100.0597947  73.4470752
  35.4686772  98.9698833  74.4779590  51.1121481   2.1968506  86.7605713
  51.9023054   2.6404236  86.4521494  50.4816740   2.9026936  86.9038185
  75.3851700  69.4088125   2.6264369  76.1477280  69.2760181   2.0633148
  75.4349041  68.7001944   3.2680136   6.0650765  91.5339010  90.6007936
   5.1538693  91.7052024  90.8386573   6.5762841  91.9566601  91.2908473
  70.3312206  67.5663710  36.6932106  70.6930304  67.5739384  35.8070564
  70.4418230  68.4646654  37.0047569  77.6857948  49.5989943  17.5428796
  78.0486059  48.7142324  17.5852585  78.4445429  50.1618814  17.3889697
  53.7428522  74.6754885  14.1972113  52.9076052  74.8966217  13.7852776
  53.5605526  73.8790083  14.6958327   2.8026997  89.1133493  66.9291738
   3.4411751  89.8017710  67.1153357   3.2524048  88.3006709  67.1605828
  24.4581955  14.7484301  91.2032202  23.5410660  14.4862603  91.2830725
  24.7427338  14.3736409  90.3696701 112.2457123  45.1359463   6.2266058
 113.1274986  44.9537849   5.9018165 112.2674656  44.8639488   7.1440899
 106.2673759  45.2065706  23.4662366 105.9681606  44.2974424  23.4525514
 106.2962151  45.4631329  22.5445127  13.3739298   3.2670878  83.7493232
  13.0591553   2.6955794  83.0489495  12.6465004   3.3081053  84.3701270
  56.3065147  66.0129976  13.5426950  57.1107435  66.5310097  13.5093319
  55.7459021  66.3973761  12.8687501  90.9033394  53.6622000   0.8298504
  90.8929157  54.6167755   0.8998813  90.0269127  53.4352589   0.5190346
   3.2744651  52.0278502  14.0456200   3.2142882  51.1748314  14.4757044
   3.0658393  52.6587152  14.7346139  75.9657383   6.8231899   4.2341712
  75.5703926   6.1993444   4.8430616  75.4517603   6.7331785   3.4317032
 115.5821592 106.9834941  88.7197193 115.6389887 106.2532657  89.3359712
 115.6591017 106.5755647  87.8572205  34.9599331  21.6828106  54.9560574
  34.2013567  21.8842505  54.4081333  35.5943840  21.2947796  54.3534544
 109.1394455 110.7262891  90.0985774 109.9362308 110.2402681  90.3110525
 108.4784824 110.3753131  90.6953838  57.0735455  62.6347208   1.5884075
  56.2596130  62.1318960   1.5581331  56.9092321  63.3174801   2.2388454
  57.3623007   0.4872130  93.2917860  56.7682474   1.2353371  93.3521536
  56.7997950  -0.2456905  93.0414292  82.7858257  49.3676710  44.0749598
  81.9909382  49.4409704  44.6031761  83.2505703  50.1907206  44.2260933
  12.4050635  10.4944371  79.0002671  11.6603106   9.9750899  79.3033340
  12.2486609  10.6134938  78.0634668  76.6712809  32.6029873  -0.0431839
  76.7878723  31.7887449  -0.5327230  77.3178005  32.5537753   0.6609634
  33.2669514  34.0703581  76.1124471  33.7242239  34.9048994  76.0091355
  33.8007801  33.4428213  75.6251624  16.2600058  33.6687086  85.0258174
  15.8850020  33.0581187  84.3911627  15.5125254  33.9612292  85.5472961
  44.6167010  10.5986355  90.6136635  45.4097861  10.3146361  90.1591351
  44.8589533  11.4301871  91.0211781  41.4659405  50.3942013  34.3265772
  42.2234297  50.7271528  34.8078036  41.4934349  49.4470549  34.4622016
  82.2885227  49.3415308  41.2617731  82.6571465  49.4022036  42.1430540
  82.4488640  48.4357834  40.9969139  16.0275303  85.9513395  92.3378274
  15.8294713  86.8159145  91.9779473  16.8924271  85.7384055  91.9873309
  86.2388229   0.6953760  10.3418207  85.3138828   0.9314042  10.4125810
  86.2337494  -0.1792604   9.9529535  64.1716593  39.6277331  92.1857685
  64.2318648  39.7742461  91.2417647  63.3780020  40.0929354  92.4502086
  57.6159876   0.4048346  74.9250153  56.8578356  -0.0859119  74.6078423
  57.2505778   1.0355566  75.5454162 110.4720497  47.2303486  17.7023327
 110.0444126  47.7638006  18.3722484 109.8266220  47.1673298  16.9982839
  86.1753082  52.2388887  29.3265676  86.1369038  52.4933624  30.2485228
  86.3369846  53.0580521  28.8585305   1.1756741  91.9044250  87.0819601
   0.3069579  91.6360777  87.3812255   1.7779004  91.3138645  87.5344959
   0.7375323  99.3280929  72.7266863   1.4562165  99.2448180  72.0999577
   1.1483609  99.6784967  73.5170439  21.7405736 107.9324573  96.6124359
  21.8340527 107.0114129  96.3691798  22.2267663 108.4085172  95.9392210
  19.9713194  94.4040012  85.6733131  19.4805634  93.8523769  86.2824917
  19.9178219  95.2825832  86.0494423  36.3898328  18.6449485  65.1391602
  36.5885839  19.2851977  65.8224010  37.1994579  18.5753780  64.6332979
 108.7152602  80.6847000  72.9196215 108.3981045  81.2824535  73.5966253
 108.2330377  80.9370995  72.1322250  34.1371870  86.1043167  70.1853466
  34.3927097  85.4113579  70.7942390  34.8427916  86.1273766  69.5389557
  22.9619908  96.3872051  70.1251698  22.1628475  96.0755634  70.5500078
  22.6521063  96.9470978  69.4133234  24.9846458  66.5557671  78.2111025
  25.3182626  65.7851601  77.7516603  24.0325522  66.4747238  78.1546879
  12.0709991  85.8466148  82.9160213  11.5404928  85.6998253  83.6991215
  11.4806938  86.2894440  82.3063660  43.8683644   8.8095431  82.5473213
  43.4705127   8.1597953  81.9678593  43.3257720   9.5907073  82.4395847
  54.4336933  26.0960059  88.2173920  54.3732113  25.5493598  87.4339771
  55.2398283  26.5980106  88.0975151  72.0889169   6.9224982  69.3802643
  72.8104264   7.0749622  68.7700081  71.3225872   6.8013625  68.8196421
  96.5044804  75.3649187  59.1722775  95.6117649  75.0219393  59.1315222
  96.7750998  75.2212095  60.0791121 109.5072021  97.0402145  31.7006850
 110.1851965  96.7773056  31.0782433 109.9642809  97.1059227  32.5391316
  99.8969538 109.5696163  65.0354385  98.9850981 109.5658588  65.3265333
  99.8458166 109.4573402  64.0862226  83.7782665  73.0833340  40.9473610
  84.6347566  72.6732922  40.8268690  83.1680937  72.3487282  41.0127211
 100.2203406  20.2669627   4.0410397 101.0111059  19.7349316   3.9523480
  99.7735156  19.9061066   4.8067829 116.1969013 104.8754787  39.8194814
 116.3829844 104.5392323  38.9428163 115.7067533 105.6834126  39.6670699
  42.4364519  50.5169010  40.7955742  41.7435455  51.0449505  40.3989935
  43.0621672  50.3709316  40.0860643 115.8434022  28.6323602  18.4163162
 116.6051353  28.0557401  18.3571503 115.0932730  28.0525071  18.2847187
  73.6026855  75.1498604  48.6713648  73.0116220  75.4525757  49.3607378
  73.1409736  75.3469658  47.8563786  22.1016550 101.7200184  89.1273689
  22.9185987 102.0714378  89.4814014  22.1715260 100.7742691  89.2573357
 110.0363906  84.6588135  53.6154890 110.0937332  85.5949116  53.8069820
 110.7320388  84.2637730  54.1410828  20.1248360  90.0448990  56.2067509
  19.3435562  90.5969524  56.1741018  20.4032612  89.9696636  55.2940321
  98.3054753  54.7560167  14.6213806  97.7501269  54.6448374  15.3930402
  99.1853399  54.8839378  14.9759316  63.3733803  22.2775607  69.2445517
  62.9664261  22.8700118  69.8767090  62.6393277  21.8042522  68.8529158
 113.1168432 106.5172958  63.6266851 112.6229896 106.6766167  62.8223467
 113.5886718 107.3351288  63.7840176  52.5225598   9.2465644  63.6465740
  51.7519314   8.9723258  63.1494284  53.2192094   8.6603122  63.3512449
 103.1098647  80.1260185  28.8526964 103.0987127  79.4958305  28.1322980
 102.2253461  80.4916859  28.8647580  27.3091817 106.1399746  85.1050949
  27.5278473 105.9971046  84.1842270  26.3529730 106.1806107  85.1206970
  20.8646560  59.7386408  94.6090221  21.3142753  59.5622301  93.7826061
  21.5028834  60.2264404  95.1295471  38.4649975   8.4022479  17.3056591
  38.3713601   8.8201480  16.4496052  38.8003612   9.0948730  17.8749001
  30.1512241  98.5273838  68.6116648  29.7222090  98.7706566  69.4320297
  29.6801925  99.0202045  67.9397345 110.9691198  94.4111347  67.8921270
 110.7204558  93.8198757  67.1816254 110.1879091  94.9423790  68.0461264
  24.4423819  73.7037659  69.7084236  23.6341023  74.1575909  69.4697666
  25.0632143  73.9422989  69.0200138  24.9264050  77.2148228  23.6434960
  24.8698688  77.8099537  22.8959274  25.2653980  77.7567673  24.3559670
  10.3697777  78.9857006  35.9977913   9.9657881  78.5753155  36.7623878
   9.6718085  79.0120173  35.3432846  24.0900970  67.2536469  64.2956161
  24.3044758  67.8238010  65.0339890  24.5009947  66.4166737  64.5121145
  41.5258217  82.3300362  81.8651962  41.3964415  81.5772915  81.2882423
  41.4043570  83.0908489  81.2971687  15.5567038  68.5425186  53.3566284
  14.9380124  68.3131695  52.6631927  16.1022532  69.2293215  52.9733419
  15.2108014  62.0909786  49.8184013  14.8497915  61.8516588  50.6720018
  14.4436610  62.2057247  49.2575455  32.0126236   4.1896110  53.8220882
  31.6660989   4.2239719  54.7137022  31.5463382   4.8842101  53.3569670
  39.9113734   7.3418956  90.5867481  39.6870861   6.4258628  90.4230118
  40.7355246   7.3036246  91.0720730  36.7097322   2.1217208  56.1755514
  37.5612459   2.5291305  56.0168934  36.1673198   2.8287559  56.5250111
   3.4137106  96.4891624  74.9047041   2.6673019  95.9413528  74.6617651
   3.0824167  97.0469570  75.6085062  79.2894251   0.4771285  63.1292057
  79.1417009  -0.4127927  62.8091192  80.1985676   0.4761081  63.4286928
 100.3612728  51.7550468  51.0679483 100.7976682  51.2503052  50.3816319
 101.0641487  51.9969749  51.6709948  24.3486309 106.0481644  46.9789267
  24.9805450 105.8400726  47.6671219  23.4956193 105.8713245  47.3755789
  10.8389878  84.1606426  51.4743328  10.5853879  83.6935902  50.6782293
  10.5932188  85.0704575  51.3068438  78.3866197   9.1269450  55.2182579
  77.5831968   9.0145927  55.7263088  79.0904052   9.0451293  55.8618593
 107.7607341  81.7054844  41.2714863 108.6249687  81.8090439  40.8732367
 107.1532150  82.0553970  40.6197882   7.6661336 104.0590286  66.7725182
   8.4518754 104.1224575  67.3154926   7.3660803 103.1576729  66.8897820
  31.9312716  81.9106293  30.0378823  31.2385988  81.9978905  29.3830395
  32.5658369  81.3162422  29.6375513  99.6973868 106.0015678  53.7046242
 100.6523128 105.9575844  53.7537289  99.4120903 106.0391903  54.6175432
  11.0566306  87.2727871  67.2830868  11.9199538  87.6852608  67.3107624
  10.8227134  87.2688484  66.3549185  22.7325320 104.3114376  44.8628998
  22.2541952 103.5429096  45.1740170  23.1459451 104.6703053  45.6480932
  19.4214046  95.6241703  79.1986704  19.3487287  94.9076462  79.8291874
  19.7497034  95.2090073  78.4011173 107.1101804  73.8172913  62.8037214
 106.4736326  74.1090488  62.1510935 106.6435988  73.8781118  63.6372852
  97.9901977  86.7288303  45.0735426  98.0873509  87.6793766  45.0164318
  97.1205373  86.5548992  44.7134495 114.6455200 108.5438633  64.0977240
 114.8073341 108.7287235  65.0228596 115.1502223 109.2084408  63.6288404
  18.6470294  99.6254349  73.0248117  19.3269587  99.3686676  72.4019146
  18.7023556  98.9723873  73.7224483 107.0305343  33.9410424  10.3323317
 107.7718373  33.9290214  10.9377718 107.3750980  34.3529296   9.5399570
  95.5389829  76.7277670  54.5004225  95.7276840  77.6128626  54.1885996
  95.9321518  76.6921234  55.3724194 106.3441069  63.6493921  85.8528805
 106.7255039  64.4956779  86.0864735 105.5516227  63.8706541  85.3637505
  59.4714309  30.9096486   3.3161137  60.3981174  30.6876141   3.2256481
  59.3756331  31.7355687   2.8418610  28.1761432  93.8258362  35.7821012
  27.2431445  93.7477303  35.9812164  28.2865572  93.3474445  34.9604082
  12.5531316 102.8939438  92.5526142  12.5437152 103.8438797  92.6699734
  11.7318273 102.7002907  92.1007442  11.8636727  94.4862938  83.6831760
  12.5380886  95.1648712  83.7136555  11.4666510  94.5039177  84.5539761
 109.3916978  80.3773785  31.2336779 108.9202340  81.1466980  30.9141445
 108.7570049  79.9192238  31.7845821  68.5883327 104.3843365  49.9720955
  67.9777522 105.0633621  50.2590466  69.4522233 104.7877979  50.0565863
  22.2408909   4.4609504  68.7843132  22.6214153   3.8998561  68.1085825
  22.9024071   5.1360469  68.9355516  97.5546999  96.0821819  20.3881598
  96.7865296  96.6506577  20.3335810  98.0172796  96.3791943  21.1717629
  66.9722921   2.2762065  67.8064013  66.2871486   2.9254871  67.9652834
  67.7643544   2.7940898  67.6626587  53.3715445  12.3575740  76.2797451
  53.0580169  12.8697925  75.5343819  52.9231889  11.5158801  76.1975145
  76.2041170  19.4490199  59.1739082  76.7786223  19.7816615  58.4843254
  75.3790004  19.2592006  58.7273836 101.8910809  98.7713623  60.4553461
 102.5700636  98.8055134  61.1291790 102.1789272  99.3998146  59.7932148
  10.7175231  82.1337986  39.7692895  11.2516963  82.0842743  40.5620289
   9.9280018  81.6357231  39.9809742 101.3073762  78.5682011  47.1126080
 101.6758294  77.9675341  46.4647818 101.9614239  79.2622185  47.1949959
 112.0998003  90.9670639  48.3403063 112.4363448  90.6409073  49.1749239
 112.7024050  91.6699600  48.0973148  24.4904870  14.2131572  52.4512482
  24.8347158  15.0866180  52.6378107  24.3254680  13.8315539  53.3134413
 113.6277576  75.5300045  85.9007549 114.2423411  75.2267122  86.5689850
 113.5884218  76.4783812  86.0242844  96.1806102  80.0655079  51.9771719
  96.9438024  79.5696259  51.6807461  96.1604614  79.9304771  52.9245901
  10.1563764  81.3542461  45.5611658   9.6210527  80.5794430  45.3898764
  10.1539719  81.4410591  46.5144205  24.5768070  94.2116547  69.2156696
  24.0026140  94.9599075  69.3789101  24.3413258  93.5769272  69.8923540
  18.5636997 104.4184113  57.3676872  18.9128101 103.5424232  57.2033644
  19.1840792 104.8123169  57.9810381  37.5862479  84.3466759  64.2443752
  37.4490285  83.7511539  64.9810886  37.1542454  85.1587677  64.5091677
 111.0744186  78.5627937  84.2546177 110.5422629  79.2938519  83.9406204
 111.8676115  78.5969162  83.7199116  11.6481566  88.7511826  84.5653915
  11.7293179  88.9619350  85.4955673  12.5508773  88.6550713  84.2619324
   8.2254010  96.7729473  58.9916134   7.6180679  96.4601231  59.6620798
   9.0570080  96.8806076  59.4532108  76.1619706  91.8962860  43.6207533
  76.1935754  92.2048473  44.5263052  75.7223745  91.0475445  43.6721277
  34.7241620  13.6351161  47.4431992  35.2996910  14.0225463  48.1026649
  34.5848966  14.3354087  46.8056774  98.2994611  78.3808899  62.7833986
  98.3118410  79.1460419  63.3583975  98.3211894  78.7457323  61.8987226
   0.1773415  71.9919062  32.7656627   0.6371133  71.8595982  33.5947180
  -0.5822567  72.5269699  32.9957724  18.0075872  90.4775429  60.5272484
  17.9965472  89.5367527  60.3511524  18.3210289  90.5488014  61.4288616
  15.3604817  88.2280254  63.4349537  15.0575709  89.1197681  63.2638597
  14.6700466  87.6682472  63.0797386  32.6208282 109.7791290  78.0325556
  32.5795698 110.1999760  77.1738291  33.2616472 110.2952194  78.5216713
  16.9002640  76.9166183  51.3368607  16.9549561  77.2527695  52.2314215
  17.5012422  76.1717129  51.3237476  72.3712332  16.6233211  30.0704837
  72.6492864  17.1006351  30.8522105  73.1846101  16.4376884  29.6012425
   6.0134339  78.9169645  28.9519119   5.9473109  79.5002460  29.7079825
   5.5010217  78.1468296  29.1980052  28.0542142  51.7498641  74.3597507
  27.9083568  52.2851997  73.5797691  27.3799998  51.0719161  74.3144464
  83.6610742  92.6573753  93.4429264  83.6642308  93.6137199  93.4830761
  83.4770293  92.4567795  92.5252628  24.3456292 109.7906017  44.0010834
  25.2688456 109.8486519  44.2471218  23.9585137 109.2122936  44.6582985
  98.4014828  89.2881584  68.0833149  98.4982486  88.3993340  67.7414846
  99.2939873  89.5619392  68.2947683   8.5592937  51.2610960  36.9943857
   8.7729400  50.5114317  37.5498915   8.2805479  50.8729124  36.1650229
  -0.0564979  90.9552097  48.7530565   0.5209225  90.7601929  49.4911528
   0.5286724  91.0018921  47.9969978  12.3258710  84.7982121  65.3299141
  12.6464248  84.3132114  64.5694828  11.6316760  85.3578281  64.9818516
  76.4724753  61.3518674   4.7851440  77.3425574  61.0023267   4.5927593
  76.6376256  62.2302014   5.1279137  98.6867388  75.3641653  91.1542511
  97.8557916  75.4389620  91.6234684  99.3281646  75.7710409  91.7367077
  63.5558588   0.3019767  13.2215369  63.1634838   0.0953632  14.0698195
  62.8087861   0.4333167  12.6377022   0.2960522  51.9481230  48.1669903
  -0.2618027  51.7351437  48.9151049   0.8479479  51.1745644  48.0518579
   0.6233822  59.3117857  79.3293858   0.7028508  59.5428276  78.4038925
   0.0823159  60.0067902  79.7041464  31.0023260  90.2653313  62.7306128
  30.9346914  91.0205746  62.1464396  31.8998981  90.2981281  63.0615520
  25.5666351  72.4073935  62.9435825  26.1368489  71.9108772  63.5305786
  25.9393430  72.2679567  62.0730209  41.6961427   7.9203944  50.2949333
  41.0411731   7.3629813  49.8747683  41.4970796   7.8612571  51.2293386
  97.1580549  98.2015800  71.5638781  97.7595515  98.3854771  70.8423424
  97.6941986  97.7449989  72.2122002  14.1924739  55.8544207  81.6436195
  14.2021191  56.4396715  80.8862400  14.2070007  54.9746752  81.2666988
  19.9340308 105.2240944  64.9777889  20.1325250 105.1480293  65.9110880
  18.9780962 105.2023315  64.9336767   7.3159790 101.7005920  30.2067637
   6.4067233 101.9854450  30.2981210   7.7021426 101.8517113  31.0694766
  97.4079104  69.8469830   0.6435075  97.2634645  70.4008150   1.4107364
  98.2282658  69.3899965   0.8290196  11.6909206  84.5351982  38.6884570
  11.1518753  83.8895798  39.1454411  12.5785410  84.3765926  39.0097117
  10.7194245  60.3584003  55.6287289  11.4984190  60.8584929  55.8722639
  10.2792060  60.1809025  56.4599562   1.5215175  77.4955463  58.5508633
   1.3035494  77.6857662  57.6384306   1.0474852  76.6874027  58.7468910
 106.9246478  87.2957134  76.2660408 106.5765817  87.3579025  75.3765392
 106.1822410  87.5137520  76.8295336   1.9402592  74.5238352  47.6583958
   1.0305216  74.7693539  47.4900818   2.0689185  73.7207699  47.1536589
  23.1261945  96.5093327  49.4324923  22.7593613  96.9364834  50.2065849
  23.7198806  97.1603680  49.0584278  20.1696301 107.9358292  75.5717993
  20.4073477 107.1548653  76.0716248  20.9705567 108.1745052  75.1051283
   5.6741524  85.8246040  72.3288488   6.3015944  85.1466656  72.0779419
   5.8991861  86.5747356  71.7784929  19.7757453  17.6592689  69.1164255
  19.0773279  18.2189422  69.4558573  20.1869804  17.2891002  69.8975134
  60.4694826  26.6939025  54.3519735  59.7198111  26.4161639  54.8783588
  60.7676489  27.5028186  54.7678900 115.3220268  73.9277506  56.8035507
 114.9269114  74.7659254  56.5635824 115.8781765  73.7028503  56.0576630
  43.4478143   4.4794135  47.7526236  42.7588854   3.8569884  47.9854250
  42.9917890   5.1756911  47.2798920 107.3670347  89.2694855  41.5396833
 107.5621541  88.8665104  42.3857164 107.3794456  90.2105808  41.7140913
  26.7858547   0.2912002  65.6362247  27.5094074  -0.1103921  65.1551533
  26.0078913   0.0774341  65.1211405  11.6189086 110.1355648  56.5240479
  11.8593240 109.6703148  57.3252869  11.9046199 111.0365105  56.6753340
  30.7768965  90.5954647  47.4591398  31.1912298  90.0578499  48.1340694
  29.8419213  90.5532646  47.6598167  98.3630212  77.6190042  55.8719730
  98.7419517  78.4959221  55.9324646  98.2152505  77.4860096  54.9356461
  12.9323888  77.5576639  60.7473040  12.2245586  77.5485373  61.3916063
  12.5816691  77.0741701  59.9993324  45.4823155  13.4551578  69.5506620
  45.7801855  14.1756778  70.1059532  44.6100402  13.7214999  69.2600965
  41.1856372  29.0048938  80.5460072  40.5323142  28.6509376  81.1494255
  40.7993676  28.8862662  79.6782780   2.2412123  88.2672596  29.9033022
   2.0421924  88.5511589  29.0111017   1.9043398  87.3725510  29.9507093
  46.1838770  84.2895794  55.8492756  45.5465651  84.5492840  56.5145731
  45.6620932  84.1513920  55.0587845   1.2676592 108.6254120  35.8744478
   1.5720436 109.1969109  36.5794063   0.4469315 109.0219116  35.5821681
  49.8959780  68.6402273  80.7183743  50.4902840  69.1844749  80.2018261
  50.4604912  68.2156801  81.3643742  52.4948508   7.1305804  49.9091387
  52.7438659   7.9345279  50.3650808  53.0730230   7.0985847  49.1469526
  78.2117945  44.0842969   8.1031105  77.4636189  44.4678075   7.6455185
  77.9844759  43.1596333   8.2008335   1.8336394 110.2233982  37.8390050
   1.2137902 110.9362984  37.9932404   2.2543287 110.0840282  38.6874318
  36.6700834  12.6950793  77.6788855  36.7659069  13.5407214  77.2407770
  36.0467285  12.2130637  77.1354532  57.3706717   7.1937709  60.0624943
  56.7327744   7.9026752  59.9801350  57.1487624   6.5884833  59.3549585
  35.9155250  87.3285770  76.0357332  35.6867790  86.9905186  76.9015408
  36.3531613  88.1614780  76.2117720  22.2369081   8.0545669  36.9102859
  22.7361376   7.3062186  36.5832138  21.3317484   7.7445655  36.9389200
 114.1044392 106.7210197  69.9780655 113.2349069 106.3222122  69.9449301
 114.5753620 106.2141514  70.6395435  29.2125487 102.2253895  47.1638203
  29.5223999 103.0203438  47.5977230  29.7534156 101.5259838  47.5305939
  20.6671459   2.5335746  55.9192610  21.5215880   2.9506450  55.8087444
  20.8464390   1.5963988  55.8431673 115.0606991 106.7811584  19.4524419
 115.9886919 106.9203186  19.2635071 114.6089546 107.0692825  18.6592555
  62.9480726   1.8946986  85.0852585  63.1451947   2.0295196  84.1583347
  63.0305440   0.9496074  85.2126694  17.4156523  92.7600384  34.5229053
  17.7172625  91.8530941  34.5751667  16.4963663  92.7223206  34.7869563
  56.0432071  13.6783557  62.5664425  56.2498397  13.2534080  63.3988857
  56.1487633  12.9876285  61.9122314   6.1006308  95.9034538  81.7914391
   6.8254936  96.4912701  82.0042229   6.3037318  95.5808067  80.9134388
  32.8553581  97.2194004  67.7816010  31.9165134  97.2664261  67.9621267
  33.2701564  97.3550987  68.6335182  25.9930038  87.3132801  72.2670460
  25.1396585  86.9422531  72.0426083  26.0950613  87.1313477  73.2012415
  29.3315816 106.7052841  92.5420761  29.1885638 106.9048119  91.6168976
  29.1791105 107.5359535  92.9925919  49.3170977  97.0083809  67.9297400
  50.1659632  97.1233845  68.3568668  49.0468884  96.1217594  68.1687117
  11.1747062  74.9176788  38.7079525  10.8915460  74.9250650  37.7936244
  11.9069839  74.3015289  38.7269378  52.0137877   6.8320613  54.2621040
  51.9385285   6.3266139  55.0714779  51.9148308   6.1838107  53.5648155
 109.0403064  63.4144402  38.6268783 108.1996508  63.3696508  38.1713319
 108.8098247  63.5997486  39.5372486  46.4537954 110.0494099  71.5156651
  45.5206490 110.1905155  71.6755438  46.5396929 110.0725746  70.5626106
  41.2083053   1.5903716  56.9909191  41.6668678   1.2209277  57.7455521
  41.2674806   2.5376563  57.1149111  44.2733717 105.9283161  43.2650995
  44.4333172 105.0214005  43.5261488  44.9785280 106.4249611  43.6802244
  86.1926491  21.4069228  93.1193256  86.3309509  21.8084102  93.9771843
  86.5286953  20.5157714  93.2149696  10.6125259  95.9352684  26.2141323
  11.1252630  95.5512905  25.5028677  10.6467021  95.2825737  26.9134545
  44.6790463  15.4111915  55.0138903  44.2216969  14.6170097  54.7375965
  44.2424286  15.6688457  55.8258057  83.9927692  38.6193083  88.8411632
  83.5915462  39.4242476  89.1687837  83.2874204  38.1739901  88.3716908
 113.7936316  55.1754951  73.6689043 113.0179919  54.6417809  73.8414240
 114.2793213  55.1658154  74.4936705  28.7044210   6.6602855  46.9580078
  28.2648606   7.3718600  47.4234962  29.6314294   6.8979983  46.9774818
  34.5021725  91.9206715  63.4384537  33.8635468  91.2140179  63.5335064
  34.7715306  91.8782520  62.5209141  64.8411394  14.9054820   7.8666756
  64.0220643  15.3350360   8.1133148  65.2720822  14.7150761   8.6999008
  65.2742845   7.0997100  85.5785847  65.5911810   7.0890193  84.6754265
  66.0564095   7.2655826  86.1048889  90.6914032  77.7287824   0.1943562
  91.6103853  77.8463322  -0.0462368  90.4725266  76.8507726  -0.1177624
  17.6493990  79.2282677  61.2787628  18.1370831  79.4468784  60.4846573
  16.8928838  78.7320232  60.9662533  40.1075192   5.5328994  66.3364935
  39.4659045   5.7698875  67.0061159  40.6595605   6.3098579  66.2480927
  46.7101049  86.0274220  70.1218843  45.9749889  85.5036354  70.4404497
  47.4521160  85.7507610  70.6595755  43.1936136   6.5343051  54.2885685
  42.6445055   7.0988517  53.7445068  43.8602740   6.1989455  53.6891222
  19.5335305  78.3331871  89.5227242  19.8014629  77.4223137  89.4012642
  20.0324440  78.8191938  88.8661289  13.0312383 101.0773182  31.5031195
  12.1926689 101.5304565  31.5908551  12.8206015 100.2735996  31.0278201
  21.0551381 103.1293583  69.9512434  21.1228776 103.6910534  69.1791439
  21.8406916 103.3273029  70.4611015  38.7621495   6.7852454  62.2552299
  39.2377257   7.4608092  62.7386332  39.2592198   6.6760593  61.4445353
  36.0199830   5.1695685  37.9577613  35.3159479   4.6193366  38.3010006
  35.9676385   5.9745937  38.4729600  30.4033780  87.0311546  88.2568836
  31.1082864  86.3840103  88.2333851  30.6503367  87.6287937  88.9626217
  43.1490421  86.9270802  66.3188410  43.7973881  87.0189762  67.0170069
  42.3089361  86.8872738  66.7758608  15.9154510  82.0582390  48.5415268
  15.6777227  82.2349167  47.6313066  16.7904043  81.6734600  48.4901953
  51.3658149  15.6523090  47.0809269  50.7660968  16.2007194  47.5867033
  51.8294615  16.2663798  46.5115643  63.2638723   6.0155063  75.5057621
  63.5421807   6.9033008  75.2808332  62.5734050   6.1387496  76.1571455
   6.7165369 101.7286396  67.7198458   6.6127461 101.2470055  68.5405111
   5.8395571 101.7403412  67.3364401  17.4803925  98.1886864  86.0642338
  17.4066877  98.4451199  85.1449680  17.0592368  97.3302269  86.1079216
   3.9546666  92.5614166  48.2818890   4.7876304  92.0904732  48.2570314
   4.1999581  93.4850025  48.2266188  48.9689445  94.5258808  78.6999750
  48.1238985  94.1485786  78.9444637  48.7792683  95.4487228  78.5308313
  91.8878401  75.8106191   2.5069305  91.7132760  76.6486413   2.9352734
  92.4647773  75.3469807   3.1139061   9.8257452 103.9266682  33.9803839
   9.3693942 104.7653294  34.0484071  10.6567729 104.0687370  34.4336390
  48.6094994   0.0443893  46.3720083  48.8017029  -0.0212903  45.4366064
  49.4343263   0.3274112  46.7667103  94.4563247  70.8841378   4.8318646
  93.6122609  71.0948521   5.2311012  94.2457808  70.6784398   3.9210484
   3.8786667  65.6415040   3.0381271   3.6635702  65.5000073   3.9600441
   4.6460026  66.2134225   3.0562565  21.2370133  87.2259617  85.9455299
  21.1078572  86.5108967  85.3224468  22.0599985  87.0140934  86.3860226
 100.3844030  80.8093071  81.9484997 101.1332925  80.5549526  81.4093304
 100.3838558  80.1800728  82.6698112  17.9602706  95.6187057  43.6481237
  18.5568833  95.0911236  44.1791010  17.6497853  96.3010979  44.2432451
  40.6927726  29.2482333  21.8616033  41.1848763  28.9776664  22.6367545
  40.3835154  30.1298289  22.0698953   5.4504776  91.3451004  64.4564342
   5.2519679  91.0038948  63.5844231   6.0918635  90.7308960  64.8136616
  36.2181136  10.2300315  52.4162817  35.6836170   9.8351627  51.7273521
  36.7409367   9.5051246  52.7589226 100.2098830  88.7312508  29.0922213
  99.5956142  88.1096363  29.4827318  99.7715409  89.0335178  28.2967830
  99.0627826  45.0573212   2.2318623  99.3073953  45.9203107   2.5660202
  98.1191874  45.0008351   2.3824188  12.5861406  92.7030087  61.8105507
  13.4782028  92.3562527  61.7959833  12.6502073  93.5476875  61.3648558
  10.2750957  78.5798693  50.5704355   9.5154881  78.8748980  51.0726166
  10.8245564  78.1277227  51.2106609  46.1953384   2.2056823  40.0774670
  46.4316011   1.9024615  39.2008400  45.8038110   1.4402442  40.4982281
  75.0154136  19.8505074   9.9401066  75.4820968  19.0244633   9.8132393
  75.7064889  20.5110318   9.9885914  14.9163437  56.2479544  60.4355097
  14.9894321  56.6862774  61.2833071  13.9849019  56.0443735  60.3506422
   9.8460674  72.2808599  47.5531483  10.7952189  72.1750689  47.4887085
   9.7171247  72.8127146  48.3384752   6.6937321 107.4549484  30.4660320
   6.5416056 108.0566788  29.7373319   7.6386309 107.4924278  30.6143379
  18.6714292 107.2798920  38.1507635  17.7531838 107.0870209  37.9614043
  18.8135862 108.1523323  37.7834940 102.8558904   8.3539062  61.4967918
 103.0241424   7.4910979  61.8755960 103.6554653   8.5636478  61.0141754
  40.4418039  75.0615692  68.1087637  40.6081724  74.5701981  68.9131927
  40.6898355  74.4611835  67.4057341 113.0344380  93.1666946  88.9592648
 112.3333420  93.1793594  88.3077049 113.7730910  92.7576447  88.5083771
  25.1686645  90.2754593  63.9847708  25.2852297  90.4260159  63.0466986
  24.4322157  90.8365822  64.2277098 102.8920639  44.0049512   4.0558598
 102.2532404  43.8513047   4.7519371 103.0281676  44.9524075   4.0605423
  36.8154240  88.1190872  88.8820744  37.3078609  87.4010563  89.2797756
  36.1442709  87.6859665  88.3546448  28.6351943 100.3544140  56.5518093
  29.5036077 100.5945206  56.8749762  28.1267810 101.1635208  56.6074371
 116.0741530  90.0580215  76.5399551 116.5942289  89.7197628  75.8110285
 115.9249306  89.2970657  77.1011257  43.3695731   2.0459418  76.2400818
  43.9773393   1.4116054  76.6201687  42.5930009   1.9973617  76.7975807
  55.9945983   5.5003314  57.8149509  55.4557425   6.1748462  57.4015570
  56.5171689   5.1390987  57.0989513  17.2975576  91.1877251  79.7528887
  17.9009318  90.4665184  79.9318933  17.3274350  91.2946320  78.8021469
  12.6543028  16.5381770  52.0730019  12.9670006  17.4384074  51.9833422
  11.7718846  16.6259151  52.4333811  61.6100222  33.9350944  73.6066341
  61.5409834  34.8881488  73.6627865  62.4361808  33.7286334  74.0437460
  47.5225449   4.6700244  52.8273535  48.1307722   3.9311652  52.8078699
  48.0608124   5.4293113  52.6037884   0.4978650 103.3606434  51.2379169
   1.3852070 103.0019093  51.2251186   0.1522785 103.1760597  50.3645706
  21.9602561  78.1428480  48.2525301  22.7934790  78.6137247  48.2367849
  21.8486953  77.8839684  49.1672802  15.2349782  99.9668217  51.4136076
  15.7045746 100.6177998  51.9350767  14.3172920 100.0774097  51.6623116
  81.2139780   0.9498077  79.8619556  80.4261810   1.4866977  79.9477243
  81.9363004   1.5570407  80.0224209   2.3654471  98.2052708  76.5107775
   2.0908771  98.8783646  75.8880424   1.8285541  98.3639622  77.2871733
  95.6336184  86.0668850  33.7162113  94.9818106  85.4106903  33.9627504
  95.3853364  86.3299179  32.8299856 106.8342729 106.3837337  39.2915392
 106.8223603 105.9175873  40.1274776 107.7594288 106.5744877  39.1368389
  73.0082560 110.4723263  42.9784393  72.4428272 110.2100754  43.7049055
  73.7118721 109.8233700  42.9762316  11.0096753 108.1112194  36.3932514
  10.6286001 108.9843559  36.3003254  11.4874208 107.9701710  35.5758786
  50.1855177   5.9345203  48.0956650  50.3105063   6.0453944  47.1531582
  51.0058421   6.2392383  48.4835434  22.2028637  96.7047215  37.4307537
  21.3448858  96.3009167  37.3002052  22.7844882  95.9716225  37.6320100
   7.2493821  74.1050673  20.1979375   6.6982621  74.8349333  19.9154592
   7.0683467  73.4095573  19.5656967  14.6790850  89.6207619  57.6856613
  14.1996861  90.4388714  57.8164482  14.0853465  89.0750408  57.1700048
  65.3735191  32.6873069  37.6204228  66.1230880  33.0733638  37.1672797
  65.6344396  32.6675944  38.5411644  55.1197380  25.1967006  33.7898660
  55.7891399  25.3137450  33.1157494  55.1029939  26.0313182  34.2582393
  64.1850096   3.2955413  20.1950026  64.0876657   3.1134181  19.2603433
  63.5008365   2.7729564  20.6133771 115.9233959  78.6783457  58.1706667
 116.2360783  79.5118046  58.5225201 115.7538319  78.1404018  58.9440298
   9.6606833  98.7074947  52.5933838   9.1874880  99.3863773  52.1123075
   9.4745523  98.8923836  53.5139275  74.7120900  63.6157758   0.9218666
  75.3247906  62.9259068   0.6671116  73.8630659  63.1763608   0.9697983
 114.7433095 107.8686333  67.4474239 115.4246659 107.2104359  67.3104763
 114.3930335 107.6735115  68.3165979  13.8592100  94.8670864  86.8739605
  13.2594335  95.2226448  87.5297642  13.7196219  93.9207935  86.9097710
  47.4483299  93.5413933  56.6395807  46.6406775  93.0476570  56.7815399
  48.0586624  92.9018211  56.2725878  24.4564605  65.4391956  49.9417686
  23.5218763  65.3273630  50.1157761  24.5145798  65.5225754  48.9899778
  55.2809233  20.6591849  31.5652585  55.5009050  21.1916785  32.3296475
  55.9352142  19.9605231  31.5637422  43.1583929 110.3257084  65.2791166
  43.9491701 110.7763958  64.9828386  42.5488234 111.0304928  65.4980612
  13.0949736  84.8654366  31.0039663  13.0729198  85.7748222  30.7060313
  12.6165736  84.8733425  31.8330026  22.2613263  96.1072540  52.5347090
  21.9545078  96.9414330  52.1794081  21.4744568  95.6947231  52.8909254
   6.8389112  21.3222623  22.8590083   6.4044154  21.0098004  22.0654011
   7.2446787  22.1496058  22.5999951 113.6841617  45.6115437  27.9340982
 113.0236383  44.9388695  28.0997777 113.6367230  45.7665968  26.9907331
  43.4087992  64.3612242  63.0453348  42.9943895  63.7305546  63.6341953
  43.3246326  65.2012539  63.4964418 113.6202089  42.5981569  46.5707254
 112.8475918  43.1456757  46.4310265 114.0269007  42.5328636  45.7066822
 100.1658864   6.7861623  19.0656567 100.4883702   5.8884418  19.1452479
 100.5588479   7.2483480  19.8060608   2.4370550  71.4325333  73.9495897
   2.2976135  71.0593271  73.0792427   2.6643902  70.6819773  74.4984198
 112.1633626  75.1978588  54.1343737 111.4229377  75.7592726  54.3641949
 112.0187910  74.3942976  54.6339941   5.9288770  91.6052246  39.7583103
   5.4223388  92.3149204  40.1532555   5.3602570  91.2591171  39.0704775
  85.1756544  59.6515322  57.8100109  84.2676182  59.7877693  57.5395632
  85.1959367  58.7519503  58.1364632  11.2869024  67.2381449  27.5297999
  10.9132957  67.9491806  27.0091486  10.5422759  66.6709042  27.7297950
  49.2274744  20.6283527  35.8394909  48.6709881  21.3633494  35.5819368
  49.9679810  20.6649356  35.2340627 107.9858644  58.5982513  61.3655043
 108.1898756  58.1110048  60.5672550 108.5161604  59.3927002  61.3033152
  98.0792208  63.3563185  48.7601519  98.1760974  62.5154114  49.2070532
  97.2496147  63.7061071  49.0851641 114.2686285  56.1628914  67.3680782
 114.2245082  56.5025520  68.2618999 113.8321815  55.3121853  67.4133205
 112.2665138  39.4950676  54.1260433 111.8637063  38.6289120  54.1873026
 111.5281303  40.0961828  54.0276480  13.5075843  73.4671450  51.3162613
  13.7721062  74.3681431  51.1306190  13.5986459  73.3814907  52.2652626
   8.5840750  85.6129551  67.1068621   9.1324782  86.3436890  67.3923492
   8.8957268  84.8657894  67.6176023 106.8583627  39.9324751  56.9675732
 107.2393687  39.4628024  56.2256336 106.2493677  40.5547523  56.5699196
 101.3210674  85.2067089  39.9745727 100.6207247  85.2966595  40.6208420
 101.7309184  86.0711670  39.9436474  43.8475084  52.2523069  86.9466591
  44.1840029  52.4014711  87.8302670  43.5564184  51.3404560  86.9519901
  12.3407197  54.3641806  74.1177225  12.3243058  55.2398586  74.5039225
  11.5537298  54.3273735  73.5740995 107.7943630 109.8848534  47.8074551
 107.7348061 108.9493561  47.6137686 107.5140698 110.3150272  46.9996071
 100.9011193  60.1119137  74.4368792 101.3457735  60.7685375  74.9729347
 100.4875763  60.6153154  73.7355947  80.8074637  52.5047684  49.8998356
  79.9261995  52.3277760  49.5707798  81.3753076  52.3891163  49.1379881
 111.2170894  78.0724430  52.9875422 112.1560426  78.2108259  52.8632498
 111.0714693  78.2400799  53.9186287   1.0488187  57.9886436  36.9469380
   0.6656116  57.2956324  36.4092350   1.5360439  57.5227737  37.6265025
  22.0930338  70.4824686  49.4594002  22.5260353  70.1758099  48.6627150
  21.6543984  71.2918472  49.1972256 117.7814891  46.8679237  71.1315489
 117.8237108  47.4823046  71.8643427 118.5813153  46.3477755  71.2087011
 109.2488344  58.8699675  22.7055120 109.9299385  58.8610506  23.3780074
 108.4932531  58.4578133  23.1243920  33.9536357  57.7210331  64.3984032
  34.6196604  58.3804464  64.2039347  33.4910274  58.0658436  65.1621628
 104.9568506  94.2939091  57.2618437 105.8523889  93.9629269  57.1933079
 104.4574769  93.7640858  56.6404390 112.7388646  33.8207722  47.1533775
 112.2628046  32.9904175  47.1638823 113.2788391  33.7773061  46.3642168
  85.8723493  91.8628407  67.4651575  85.1824661  92.4396038  67.1370745
  86.0654493  91.2790489  66.7315865   7.7116925  60.8003569  55.8709002
   7.2402894  60.0419664  55.5261469   7.1448994  61.5455341  55.6716728
 116.1196187  57.3572111  59.9587202 115.6749372  57.7758265  60.6957722
 115.5834539  56.5895176  59.7602034  16.9461095  31.7922211  69.0415573
  16.6624200  31.4506364  68.1935787  16.4662814  31.2686682  69.6833420
  74.8907657  84.7832394  45.7684565  74.7082706  84.7033215  44.8322153
  74.1167970  85.2174759  46.1271238  27.1729779  53.8561964  29.9374175
  27.4135470  53.0348778  29.5087051  27.2873163  53.6812401  30.8715200
   3.8701954  52.9743671  46.4565659   4.0538731  53.0244446  47.3946428
   3.0833378  53.5063362  46.3378429  84.4152065  61.0476828  44.0811729
  85.0556274  60.6649399  44.6808434  84.1347714  60.3160381  43.5313749
 113.6964376  94.8945904  83.2927990 112.8845818  94.3980217  83.1901169
 113.7233709  95.4702663  82.5285339   9.8483789  53.5218287  36.6391110
   9.7159475  53.3310604  35.7105088   9.5532042  52.7310658  37.0905471
  10.7628810  55.8712959  89.0469837  10.7670021  55.5491734  89.9483395
  11.5304410  55.4654121  88.6440659 115.3901865  59.0911245  27.0486641
 115.7462932  58.3590126  27.5520873 114.9867351  58.6817169  26.2832594
 107.5671334  51.2087250  24.5163965 106.6399069  50.9716320  24.5000076
 107.7506383  51.3943768  25.4373145 101.9925733  33.1999564  16.8373036
 101.8271394  33.2402277  17.7792382 101.1920817  33.5413885  16.4387202
 113.2511286  55.3377247  19.0135062 112.8598405  54.7157335  19.6268976
 113.6097942  56.0292339  19.5697486  20.7149291  66.8286562  81.5921974
  21.0116720  66.4641428  82.4260521  20.4517102  66.0657835  81.0774422
  68.2661338  89.6969223  49.4342327  68.9171596  89.0975380  49.0693617
  68.2164378  89.4614697  50.3606892   1.9100463 106.3948154  56.1829758
   2.0538390 105.8231068  56.9371080   2.0331557 105.8251667  55.4236507
  91.9079132  65.7234573  15.2767432  92.3993845  66.5318298  15.4224312
  92.4071927  65.0524139  15.7421982 111.7782541  90.6848717  56.4498234
 112.0622475  90.9298515  57.3304892 112.5877173  90.4603577  55.9909153
  16.4027870  74.9575043  65.1828337  17.2913718  74.8666096  65.5269051
  16.4591360  75.6848574  64.5631409  27.2602797  82.2240829  51.1515188
  27.5664735  81.4170647  51.5652657  26.4298511  81.9827271  50.7411909
   6.8015879  80.0987720  22.1479988   6.7214656  81.0424232  22.2870064
   6.2291819  79.9170160  21.4026475  20.2852559 103.1213570  42.0617247
  21.1455870 102.9386902  41.6839743  19.9286985 103.8231945  41.5171957
   3.0643430  62.1004343  46.1931276   3.3946157  61.2025642  46.2243938
   3.5733268  62.5188208  45.4987812  10.7724333  75.2918053  31.9426823
  11.5140474  75.8454323  32.1870995  10.0041890  75.7671261  32.2590780
   7.8508598  55.8301401  36.8875837   8.3268660  56.3947725  36.2786150
   8.4649664  55.1242304  37.0895672  18.9720702  47.7838087  51.5072298
  18.8586271  46.9844913  52.0214796  18.0837655  48.1196928  51.3875341
 104.5358033  74.6508217  50.3642988 103.6341341  74.7846365  50.0722075
 104.4949420  73.8712120  50.9181738   2.7236286  66.1599207  47.4501324
   3.0318776  65.8806705  46.5880203   2.8891468  65.4079628  48.0188084
   5.7433754  67.6224756  67.3976231   5.4401469  67.4246979  66.5115261
   6.6494644  67.3143673  67.4150562  96.7668553  52.4638796  44.7502899
  97.4247689  52.3454046  44.0652037  97.0703430  51.9127798  45.4716921
  15.2469385  64.7406054  60.4913092  16.1538982  65.0346708  60.5760431
  15.1149642  64.1535234  61.2357235  59.7475208   8.7545727  94.0195295
  58.9813603   9.2657994  93.7589928  60.1269461   8.4539221  93.1937709
  24.9429440  76.5578079  80.8238792  25.2994037  76.8273115  79.9773932
  24.1593838  77.0960188  80.9361076  28.2690549  62.7347040  25.0377560
  27.6047039  62.9657269  25.6869864  28.8254905  62.0947838  25.4817295
  11.9225979  57.8362656  55.5928898  12.7985048  58.1725025  55.4032564
  11.3427567  58.5843277  55.4500008   8.7080640  81.3664913  56.4760733
   7.7825391  81.1665440  56.6162825   8.8744551  82.1302891  57.0284843
  20.2978063  91.7316246  58.3391666  19.4470954  91.9847107  58.6976004
  20.1032734  90.9981346  57.7557516 111.9103731  81.8126202   5.4763615
 111.9382127  82.7132702   5.1534444 111.0835726  81.4640808   5.1429552
   7.6335871  74.5906591  67.4441719   7.3801559  74.7671986  68.3501768
   8.5649729  74.3754578  67.4935913  18.8926470  74.5772600  39.4891357
  18.7403429  75.5197001  39.5587420  18.4893620  74.2107058  40.2760458
   9.2771649  92.5916386  50.3067350   9.8601341  91.8326187  50.2905798
   9.8382503  93.3189011  50.5760145 116.7774287  78.3884478  53.8882828
 115.8421974  78.3150673  54.0785170 116.8517610  79.1787910  53.3534384
 112.3269571  69.8456526  21.4121294 112.9361726  70.5689669  21.5601182
 111.4722039  70.2670097  21.3222075  51.9176227  13.0104976  53.2013559
  52.1044392  12.6313453  52.3425341  51.0348183  13.3707862  53.1172085
  26.3015842  51.3026810  49.2653275  26.5319395  50.6778240  49.9528742
  27.1251726  51.7435741  49.0566397  42.5405025  80.2384949  60.8060598
  41.7318964  80.2855206  61.3161325  42.9669046  81.0824776  60.9547424
 106.2672229  83.1830215  57.3574495 106.4170737  82.4679565  56.7390060
 106.6938074  83.9401245  56.9561338   3.0648643  42.5763512  80.2595997
   2.9073077  41.8378830  80.8478832   3.1273991  43.3353710  80.8394337
  19.3096900  55.1233339  36.2531829  18.3631229  55.0210762  36.3521075
  19.6817660  54.6251726  36.9809389   9.3841261  86.1807346  40.2039289
  10.1541603  86.6117764  39.8331380   9.7201991  85.6981754  40.9591913
 105.5862947  73.6951399  42.0639801 105.8198269  74.0362453  42.9273129
 105.6908329  72.7470970  42.1447277  18.0177903  83.5521889  67.2800922
  17.5891113  82.9033852  66.7219496  18.3738971  83.0435562  68.0085945
 105.4768951 107.3985100  66.6655397 105.4016347 106.9014740  65.8509731
 106.1864395 108.0198956  66.5022707 101.9629009  81.7832947  26.0402369
 102.1137448  80.8468151  26.1686516 101.8861373  82.1372318  26.9262767
 114.2183138  48.9882851  33.5913110 114.1615082  49.2353106  32.6682806
 115.1524608  48.8459730  33.7441134  19.4386315  21.3267255  65.0802231
  18.8545096  20.6034732  64.8523283  19.1353393  21.6176772  65.9402180
  80.8066888  42.6191187  49.8266268  81.4433475  41.9334364  50.0284529
  81.3284607  43.3262730  49.4472599   5.8612722 109.6989727  59.9498320
   6.7767161 109.9665642  59.8686552   5.7881308 109.3634892  60.8433294
  17.8079939  60.7357597  87.9710579  17.7545583  60.8012009  88.9245224
  17.7408099  59.7980118  87.7911949   6.9910598  47.8294754  69.7796869
   7.8016639  48.1575441  70.1689434   7.2248727  47.6280165  68.8736057
  29.7365451  26.5295649  68.3791828  29.4047356  27.0491791  69.1113997
  30.3570461  27.1085048  67.9364204 102.4616189  71.5105057  66.8082476
 102.2645016  70.6642103  66.4067984 101.6251631  71.8054867  67.1681929
 115.3948222  59.2928553  62.3664427 116.2961344  59.1794729  62.6681280
 114.9021737  58.6100340  62.8217316  29.4582486  56.1611080  64.1325474
  30.2720594  56.0514212  63.6406994  29.0695429  56.9604254  63.7772560
   2.8650382  52.7466488  33.6141276   2.0455721  53.0034304  34.0369415
   3.5471866  53.0232477  34.2260098  99.3138231  23.7749909  94.5786747
  99.2865695  24.7077750  94.3655956  98.5026158  23.4220169  94.2131844
   2.8394660  43.8926268  38.3497024   2.4353886  43.4302998  39.0840077
   3.2956478  44.6309805  38.7533927   7.2420925  59.5409584  60.0796223
   6.4926589  60.0039530  59.7051668   7.1015412  58.6248398  59.8404455
  20.0852704  82.6462460  34.6033692  19.5405579  82.9817200  35.3153920
  20.3006482  83.4194565  34.0818453 106.9618018  70.5192423  56.3754797
 106.8257482  71.1241770  57.1047068 107.8872855  70.6178904  56.1519194
   9.0039921 104.7262096  75.0536919   9.4678932 105.1542664  74.3341112
   9.6802914 104.2265320  75.5110550 102.1303566  88.1438732  32.0762753
 102.6085563  87.4012566  31.7073798 101.5165134  87.7495193  32.6958847
  16.5738714  47.6743793  16.1517406  17.2950828  47.2373104  16.6045713
  16.6682386  48.5975981  16.3862443 108.7569161  56.2662840  47.0983887
 108.5170932  55.4803753  47.5893688 108.8896204  55.9575653  46.2021065
 104.1789313  71.3137960  61.5350103 103.5134180  71.9591141  61.2965107
 104.2656846  71.3988972  62.4844646  79.2068691  56.5694809  54.6849537
  79.4409676  56.6855431  55.6057978  79.6602698  55.7686472  54.4216585
   1.2009787  51.4701700  44.2106676   0.4144217  51.6653585  43.7012911
   1.1529228  52.0617437  44.9616432  14.5346439  51.5202141  28.6936212
  14.7444570  52.1786499  28.0312991  14.0342152  51.9973326  29.3555593
  28.7119937  65.1073837  78.0765772  28.1606603  65.8776093  78.2144833
  28.6930799  64.6460629  78.9150620   7.8762776  77.6357174  53.9709997
   8.0697149  77.7393198  54.9027061   7.2666657  76.8986988  53.9334536
   5.4196650 105.4902363  10.7203496   4.8137683 105.6371117  11.4466751
   5.1436192 104.6548271  10.3433633 114.5511441  88.7879944  61.3653183
 115.2715473  88.5910416  61.9640350 113.8364954  89.0714550  61.9355440
 106.1708362  79.2780256  25.5025506 105.8736785  80.1706886  25.3262734
 105.6783433  78.7356091  24.8865438 114.9626674  31.9306946  47.4001122
 115.0927944  32.8468776  47.1553564 114.3861879  31.5808511  46.7207670
  22.3446584  77.2683048  38.8415599  22.7876568  77.1207857  38.0059648
  21.7605805  78.0082750  38.6756372 115.1200290  68.3662033  46.7043781
 115.7258736  68.7698507  47.3258734 115.1186697  67.4383211  46.9394588
  88.6124058  56.1013508  44.2743111  88.1482954  55.5983162  44.9434805
  89.2283268  55.4775381  43.8899517  22.7938104  52.5721169  74.0995359
  23.2400393  52.6962996  73.2618666  23.2442737  53.1649590  74.7010756
   9.1289818  63.1538296  33.4815574   9.1439998  63.7455130  32.7292848
   8.2016718  62.9553556  33.6117005  32.8602028  93.3408260  41.9771528
  32.2452712  93.6413193  42.6463318  32.3324728  92.7940178  41.3951445
   1.5203112  48.1229494  94.1381101   0.9255188  47.4413107  93.8253489
   1.0441511  48.5472773  94.8518710  23.9512324  84.6935272  42.5215673
  24.5670080  84.6192074  43.2506275  23.0886912  84.6012878  42.9262209
  55.2059841  82.8122425  61.6369343  56.1102772  82.8799820  61.3305044
  55.2403164  82.1679211  62.3439693 103.9173229  70.5485249  24.2860675
 104.3513901  71.0020399  25.0086594 104.5566268  70.5658674  23.5738730
  21.2226200  57.3832130  66.2546110  20.6197166  56.7901850  65.8062077
  21.9984722  57.4046135  65.6944084  48.4000928  14.4571929  58.1179190
  47.6086605  14.9928241  58.0634356  48.4568459  14.0262847  57.2650909
  18.7432206  71.0630798  54.6240330  19.2425501  70.4676342  55.1829147
  18.7387753  71.8926191  55.1016092   7.7787751  56.1980247  57.3738098
   7.5053102  56.2257099  58.2906961   8.0841875  57.0859718  57.1880436
  11.4984214  80.7583046  53.8630104  10.7526183  80.6037235  53.2832527
  11.2593293  80.3240108  54.6818209   8.3988643  77.5639057  46.4588499
   8.2935011  78.1219912  47.2293520   9.3452179  77.4468756  46.3754797
 109.8194350  69.7291088  73.9562130 110.2486731  69.4668770  74.7705936
 110.3324605  70.4746151  73.6443520  24.8234558  67.8557348  23.5178661
  24.8558664  68.5923624  22.9074907  24.0031052  67.9767752  23.9959908
 116.1195807  75.7610559  37.9706979 115.2095418  75.9107447  37.7144670
 116.2416214  76.3042545  38.7493324   6.9973749  59.3448973  48.4655190
   7.1953613  58.4257603  48.6450195   7.1325934  59.7871256  49.3035984
 107.8348108  99.8404789  50.8238316 107.3059077 100.1934910  51.5392828
 108.0896969 100.6086540  50.3127861  11.0163748  98.7550449  57.1244287
  10.2619934  98.1680584  57.0736456  11.5355527  98.4153271  57.8533173
  21.7763019  65.7234287  50.5126333  21.0528946  65.2863741  50.9619617
  21.6699600  66.6491508  50.7316351  31.5739346  98.9626789  45.7902050
  31.7450476  99.8841095  45.5954647  31.9615531  98.4866714  45.0557661
 111.6808839  48.4490776  39.3975997 111.5212233  47.5269651  39.5987272
 112.5941349  48.5935879  39.6452332  16.5354121 108.8657761  70.8527803
  17.2841382 108.9103413  70.2580929  16.4216220 107.9310989  71.0249949
  12.9404366  80.6377506  94.0128326  12.3566091  81.1130238  94.6040058
  13.8142681  80.7727337  94.3794727 113.9430587  45.9590530  41.2434912
 113.1206776  46.0813236  40.7691813 114.6017100  45.8519554  40.5572414
   9.6520543  30.3978658  40.7732487  10.4748297  30.8820295  40.8429384
   9.1082209  30.7468796  41.4794111  11.9511819  85.0667572  43.5649204
  11.8264854  85.4435921  44.4359398  11.1457098  85.2804089  43.0939627
  64.9248595  91.0837460  51.3155651  64.3357368  90.3949356  51.6233158
  65.3964229  91.3637638  52.1000719  33.6904573  97.2606659  34.6716881
  32.7665615  97.0806694  34.8456120  33.7365890  97.3810959  33.7232161
 112.7738239  86.7570782  59.6418858 113.2839076  86.3079739  60.3159428
 112.3149057  87.4528217  60.1126003 104.7926946  75.9434319  39.9568605
 105.0890501  75.5743122  40.7888222 104.1081901  76.5662193  40.2014399
  37.8644085  96.0288525  44.3672657  37.1941614  96.1655331  43.6977005
  38.2647347  95.1902294  44.1377497  28.7202430  54.8172140  46.6484022
  29.0137529  55.1061678  47.5124550  28.4742713  55.6244707  46.1966705
 116.7900865 101.9974899  67.8093529 115.9792067 101.7265797  68.2398367
 116.5336056 102.1727562  66.9039631  19.7136903  82.2699738  42.7174425
  19.5353544  82.2303104  41.7778397  19.2131460  81.5426540  43.0871439
  11.5403724  97.1621037  28.2519746  11.1520541  97.0308876  27.3869753
  12.4689972  97.3146439  28.0769944  79.6242256 110.1634789  57.3623514
  78.7009855 110.3792286  57.4939203  79.6430845 109.2074013  57.3199892
 112.5716527  89.1002750  35.1508904 112.3604824  88.7063885  35.9973478
 113.1500281  88.4650517  34.7287416  24.0435839  39.3741345  88.8821030
  23.4149551  39.9138451  89.3614483  23.5068369  38.8594866  88.2793808
  12.8089893  99.0036201  48.8366413  12.0110941  98.6756039  49.2513704
  12.5640690  99.8622894  48.4917736  10.7479167 101.9997978  53.5565805
  10.6748152 101.4888763  54.3627119   9.8716557 102.3605061  53.4213352
 110.9139974  90.1042843  33.3405089 111.5709336  89.7227478  33.9228249
 110.0826974  89.7425365  33.6476040  93.4956880  79.4092274  53.9438534
  94.4082113  79.5721054  54.1826105  93.0100413  80.1271725  54.3499804
  17.1692848  96.1649036  51.5843678  17.3740792  95.6292725  50.8179522
  16.3209975  95.8387280  51.8847847  19.1181636  95.0667286  16.1886704
  18.8325524  94.5274067  15.4512513  20.0670838  94.9452972  16.2208509
  36.7562342  86.9872665  65.0277138  37.6454997  87.3170471  64.8985386
  36.2966800  87.7031612  65.4665089  51.3707895   5.7446914  56.7649126
  51.2661344   6.6188579  57.1405554  52.0051843   5.3126197  57.3368263
  13.3656013  70.7625294  54.3430233  13.3313310  70.4316378  53.4454918
  13.8703907  70.1049757  54.8216057  21.3551259  82.1124649  61.2412405
  20.8218408  81.5536690  61.8065548  22.1194887  82.3321438  61.7738962
  12.6184785  70.3444910  74.8708057  13.3124793  69.9849224  74.3182611
  12.3373461  71.1384201  74.4159698   4.5837486 100.6785202  46.1045837
   4.8039722 100.7647038  47.0321083   3.9017150 101.3340378  45.9584379
 109.2323489  70.6421041  51.3547087 108.8573600  71.5223074  51.3254690
 108.5768147  70.1176405  51.8145418   0.7299681  82.6524925  47.4001884
   0.7272175  83.5746002  47.6569939   1.3283284  82.2334003  48.0186939
  83.4887678   5.6852775  67.1550322  84.0773947   5.3408961  66.4833498
  83.4289104   6.6213088  66.9639921  37.2144437  65.7760000  12.7473009
  36.5242267  66.4089584  12.9452872  37.7999091  66.2395334  12.1484709
  67.2703934  88.9875031  11.6695070  67.2996950  89.9442005  11.6788912
  67.3144245  88.7556171  10.7418633   3.5837919  73.5829306  43.9926434
   2.8139991  73.9003658  43.5205364   4.2196482  74.2947245  43.9200544
  90.0468321  87.6197624  56.6295004  90.4709931  88.4760475  56.5738583
  90.1020189  87.3848820  57.5557947  10.5139494  61.5344667  30.1419926
  10.1934946  60.8616257  30.7426763   9.8313105  61.6045666  29.4746661
 116.2323373  47.9894590  50.8369017 116.3313526  48.8286400  51.2865782
 117.0391056  47.5143719  51.0360193 118.2368159 102.0481586  82.4287319
 117.6216379 101.6104698  81.8403244 118.1899874 101.5449333  83.2416344
  20.6804848  72.8528643  48.7406206  20.6592131  73.8098288  48.7419367
  20.4356599  72.6090765  47.8479528  19.8172688  88.5932732  43.6418247
  20.7321191  88.6911488  43.3778143  19.8599315  88.3376598  44.5632744
  19.1758251  76.2486076  44.3228579  19.5310855  76.6174269  45.1315594
  18.3350420  75.8708763  44.5809937 110.1981778  83.2934666  50.2000046
 109.6677048  83.8852024  50.7335615 109.6249224  83.0464363  49.4743443
   1.5056887  47.6726437  23.8705015   1.1625765  48.2856417  23.2203126
   0.9121661  47.7578306  24.6166277  27.9786587  85.0716400  47.7010822
  28.3624458  84.7292519  46.8937969  27.1490121  85.4613781  47.4253559
  16.8695784 109.5849037  45.4563379  17.5301731 109.2099476  44.8738813
  16.5339518 110.3444958  44.9803066   8.8524622 101.6294003  44.8891163
   8.4128481 101.4618683  44.0555096   8.1988269 102.0885086  45.4165745
 108.7789567  98.4090042  48.7206888 108.0792005  98.5467052  49.3591309
 109.4880439  98.0099392  49.2248487  12.6321888 106.1091328  30.2671146
  12.4558544 106.8863392  30.7972956  12.4075544 105.3740501  30.8375669
 111.3593037  90.6013107  22.2093153 110.9559728  89.8608589  21.7562294
 110.6699349  91.2644196  22.2453046  50.7536692   2.6834540  63.7598944
  49.9105698   3.0798583  63.5401726  50.8292729   2.7914195  64.7079802
  21.9987369 110.8647251  49.5224953  22.6261711 110.3535271  49.0113783
  21.8871450 110.3666210  50.3322315  16.0042334  78.0693674  80.9434986
  16.4799225  78.0464363  81.7738152  15.4049563  77.3244333  80.9901428
   1.3080269  84.0526295  13.1071091   1.5135710  84.7852898  13.6877966
   0.3783574  84.1599083  12.9060173   3.4015259  66.3832617  27.7348518
   4.1331232  65.9686613  28.1921315   3.8160607  66.9573498  27.0907879
  19.0619338  36.7962790  15.3997588  18.8655114  36.7569757  14.4637549
  18.5787582  36.0610986  15.7769608  92.9606886  62.5532913  48.3185291
  92.5525685  61.7108059  48.1187963  93.2830138  62.8693771  47.4744749
 108.6987771 100.5477905  30.0680065 108.8624038 101.0920715  30.8382177
 108.0401750  99.9160290  30.3567052  69.0781207  76.7472839  24.5175672
  69.8905940  76.2980461  24.2845345  68.4852548  76.0456944  24.7868538
 115.8330709  81.1499023  10.1500905 116.1252043  80.6958485  10.9404850
 116.5706091  81.0752296   9.5445383  97.0002861 101.5827084  45.1173973
  96.6404886 100.6957245  45.1109076  96.2330384 102.1519852  45.1764631
  22.4060082  54.1771078  48.9124107  22.6245260  54.1782093  49.8443317
  23.2486367  54.2737246  48.4687042   3.2570890  67.0442295  68.7889147
   2.9244757  66.6806602  67.9682922   4.1470540  67.3290539  68.5813808
  15.7986140  68.8661528  47.1995354  15.0693059  68.3642817  46.8355751
  16.4681900  68.8457918  46.5158033   9.8491806  75.2116394  36.3681293
   9.1447234  75.5254507  35.8011246  10.6200254  75.1871204  35.8011818
 106.8748291  83.3214855  11.6161561 106.7724605  84.0997601  11.0684013
 107.2329326  83.6534405  12.4394417   3.8164449  92.5719357  51.7928171
   4.7621498  92.4249268  51.8090296   3.5589033  92.3753548  50.8921194
 102.3189087  79.7860479  33.2084346 102.0280977  80.5070686  32.6500487
 103.2704933  79.7724056  33.1058073  15.1351595  54.0705633  27.1657133
  15.1174569  53.9906120  26.2120223  16.0444891  54.2878342  27.3710108
   6.3461381  90.9975910  48.2918453   6.2156314  90.0651073  48.1195879
   7.0876509  91.2419701  47.7380657  19.6167326  77.0131350  59.4029045
  19.6274769  76.0598850  59.4890881  20.4803014  77.2909832  59.7083187
  50.9204721 105.9324551  61.6102839  51.4035130 106.7418957  61.4438200
  50.6634951 105.6238842  60.7413864 109.7700621 104.7184849  71.2201977
 109.2885508 105.5426121  71.1480665 110.2687879 104.8028183  72.0328426
   6.6251266  70.2178335  36.6398263   5.9641415  70.5522442  36.0336089
   6.8831241  70.9805536  37.1574426  15.5498517 102.6194954  67.7443600
  15.5585539 101.6626263  67.7679729  15.0624752 102.8739929  68.5278940
 114.0921108  68.8018227   9.3882906 113.7109388  69.5346260   8.9046240
 113.6919440  68.8537073  10.2562809   2.6761401 104.0623188  18.8994503
   3.6256599 104.0781879  18.7794840   2.5536835 104.1100979  19.8475826
   2.2903116  64.3567181  18.8167834   3.0499804  64.4175053  18.2376111
   2.5303832  63.6870766  19.4572353  27.2233278  23.0619578  44.3276834
  26.7043895  22.4385791  44.8359394  28.0270738  23.1744342  44.8352003
  28.9059186  76.7539024  63.4283257  29.3637800  76.5141201  62.6226616
  29.2302084  77.6301289  63.6363935 109.2001088 103.3177662  38.5734105
 109.4042267 102.4155998  38.3271217 109.0878768 103.2871151  39.5235157
  53.6778766  17.6390700  53.9373732  54.3431551  18.2886939  53.7101460
  54.1740352  16.9040732  54.2976904   5.0243789  46.5256214  42.5271225
   5.8446467  46.3093710  42.0836926   4.4565707  46.8578005  41.8317938
 114.6640886  76.0440683  53.8451719 114.9390890  76.4519787  54.6662760
 113.7860776  75.7087803  54.0265846  98.4030767  89.9368668  77.6030540
  97.9979129  90.8032322  77.6416302  98.2540913  89.6425819  76.7044830
  24.7333509  11.2518554  74.3707514  24.7066755  11.8802886  75.0922680
  23.8143415  11.0503726  74.1945124 112.3942138  59.8105431  37.5990891
 111.6210444  60.3372288  37.3965049 112.9417743  59.8782015  36.8168926
   7.0532167  61.1701679  15.5910313   7.7500099  60.5206108  15.4973185
   6.4078122  60.9265137  14.9274671  49.7494251   5.6108050  41.3306522
  49.5206851   4.7010474  41.1402512  49.0964532   5.8929401  41.9711685
 114.2659636  99.1136646  32.3549867 114.9626018  98.9935112  33.0003476
 114.7099243  99.4749165  31.5877628   8.6384511  69.5805168  60.3132725
   8.1202608  69.4691324  61.1103344   7.9961109  69.8016644  59.6389437
  39.6785130   6.1453967  52.4263239  39.6941113   5.5713325  53.1921148
  39.9389566   7.0023399  52.7640343  24.3036485  60.8739614  18.2031131
  24.3948531  60.7175446  19.1430318  23.4575963  61.3127565  18.1143153
 108.3126695  96.7007828  45.3545523 109.1830082  96.6151524  45.7436657
 108.1273384  97.6393318  45.3864574  26.6229749  87.0027828  25.8138323
  27.4508286  86.6340637  26.1219454  26.0869598  87.0805836  26.6030502
  32.4791312  52.3865795  13.7594151  33.3920240  52.0987511  13.7566638
  32.2291660  52.3814678  14.6833861  15.2239978  78.3584452  36.2931061
  14.3855333  77.9642582  36.5335751  15.7485783  78.3118248  37.0924044
   5.3067136 100.3554821  15.4487228   5.8323503 100.7102776  16.1657000
   5.9395027  99.9096012  14.8856890  14.8533785 107.1401405  63.4370613
  14.6505475 106.8610859  62.5441885  15.4690158 106.4820004  63.7596703
  12.9317057  91.5182018  58.3931732  13.1114602  92.4198437  58.6595583
  12.3335755  91.1854744  59.0623283  39.5065618 106.6385078  52.6800632
  38.6713481 106.3640594  52.3014736  39.3813515 107.5637054  52.8911734
  60.2519161  17.8498225  38.0096483  59.8608381  17.5823073  37.1779466
  59.5065409  17.9626422  38.5994959   3.9849812  97.6443768  45.0999832
   3.7462303  97.7920914  44.1848850   3.4262314  98.2449913  45.5932379
 112.0537396  74.7294903  79.8125887 112.5489230  75.3353214  80.3639412
 111.2224163  74.6121550  80.2723408   6.0213584  49.1843939  40.5042028
   5.4047394  49.8192167  40.1394939   6.2397403  48.6125851  39.7682834
 107.0703538  76.5589714  54.2438316 107.9287036  76.1754608  54.4237852
 106.7740793  76.1196280  53.4466934 109.6665730  59.3143892  26.6867423
 109.7092535  59.5874214  27.6031828 108.7427826  59.1109943  26.5401959
  40.1337814  95.2979755  20.9519911  39.7558689  94.4894314  21.2979126
  40.5604649  95.0334263  20.1370144 113.3906765  66.3311243  46.2551355
 113.4752418  65.5805302  45.6671810 112.7343757  66.0598707  46.8969536
  34.6245289 111.2868690   4.0635553  33.8455796 110.8919048   3.6718041
  35.3130317 111.1561680   3.4115496   1.8567260  88.8519573   8.9932114
   2.7409509  88.8896084   9.3578488   1.6030632  87.9325676   9.0745354
  11.5783334  59.5486212  24.8341155  11.7936397  60.2540112  24.2239523
  12.3874140  59.4000053  25.3235340  98.2202621  76.5071297  53.3274078
  98.3211918  76.7025709  52.3958254  97.4617715  75.9247351  53.3691406
   9.5997179  49.7383928  59.7272062   9.3603498  50.1024771  58.8749266
   8.7832898  49.3751574  60.0703335 108.6105163  85.0306225  46.0225964
 109.4846506  84.7673988  46.3104057 108.7076099  85.1992893  45.0853872
  26.9308972  69.5519400  27.8517771  26.1928654  70.0501108  27.5005412
  26.5330648  68.9365482  28.4676147   6.2852979  92.1367455  67.7777290
   6.4635760  92.9187489  68.3001518   6.8112230  92.2523594  66.9863605
  17.6704729  87.9967785  24.9384618  17.3127592  88.4976959  24.2054152
  17.2062957  88.3308792  25.7060218 107.4831720  97.7887154  39.9621797
 106.7936964  98.2613754  39.4958687 108.2866301  98.2615566  39.7451401
 106.3176568  68.5820961  32.4286675 107.0515712  68.7692881  31.8433809
 105.7174630  69.3170547  32.3028302  20.9874272  51.6165352  38.3631468
  21.2664628  51.0641336  37.6329255  21.3653922  52.4749613  38.1721520
  24.9035192  66.2308836  52.6553965  24.2286468  66.5630388  53.2473898
  24.4265532  65.9833527  51.8632698  31.3154411  82.5031662  68.7926388
  31.5677404  82.2181225  67.9143810  31.6213298  83.4084988  68.8477230
  34.1142678  67.4859190   3.6898616  34.3925500  68.3848047   3.5143813
  33.4931207  67.2864294   2.9894251   7.8130305 102.0555305  38.4197783
   8.4331697 101.4662933  38.8492656   7.5928038 101.6147041  37.5991678
  16.2195313  65.8360004  56.4693737  16.3865972  65.9220505  55.5308056
  16.5137601  66.6670609  56.8422079  14.6318340  59.1173840  56.5317822
  15.5584383  59.2558384  56.3356447  14.6087551  58.9508677  57.4741030
   6.0935599  78.3771420  35.0244451   6.0484350  77.7119732  34.3376112
   5.2760708  78.8673735  34.9371767 116.2767093  81.9302273  82.4401665
 116.2413731  82.7079296  82.9970932 116.2871349  82.2752571  81.5473747
  39.9622583  66.1354923  74.1634464  40.0506926  65.2430201  74.4979620
  39.4408989  66.0418797  73.3661699   0.3442792  56.0353136  35.3052306
   1.2336220  56.1279011  34.9635744  -0.0858126  55.4367542  34.6945095
  61.7925269  21.0525947   8.2489365  62.2715432  21.0894256   7.4210376
  62.3274094  20.4914050   8.8103658  28.9218378  84.4526863  65.9764671
  28.1383395  84.8476887  65.5939245  29.2194724  83.8249397  65.3179932
  27.7378011  89.2970181  41.1274195  27.6507330  89.1428280  42.0680952
  27.0859361  88.7204266  40.7288551  15.0953460 102.9630756  46.2890387
  15.1471794 102.5763988  47.1631241  15.9990895 102.9641533  45.9736395
  28.3654070  91.6013908  52.8521395  29.0601921  91.8202496  52.2311687
  27.5541115  91.7772675  52.3755884  20.5135036  70.7615662  81.8811989
  20.3347921  71.3587236  81.1547661  21.4667487  70.6752205  81.8912983
  12.9577529  68.4710407  34.9321914  12.5706911  69.3367910  34.8022270
  12.2072482  67.8872395  35.0424266  98.8503750  77.2508383  50.8908033
  98.6921306  78.1719589  50.6840897  99.8025377  77.1582603  50.8584595
  36.8694782  97.6700974  23.9119697  36.8290353  97.7218533  22.9570246
  36.8694139  96.7317867  24.1012001   6.9070292  72.1635437  52.1777391
   6.2635392  71.6889668  52.7039766   7.0150858  71.6283321  51.3915396
 117.1948215 101.2551689  74.3767643 118.0606132 100.8511448  74.3184185
 116.8564331 100.9746742  75.2270889  16.8078613  72.0903921  52.6273584
  17.5315142  72.6186466  52.2904491  17.1459556  71.7104053  53.4382439
   5.2598017  51.2117624  49.7445393   4.3829545  50.9548759  49.4592667
   5.2233142  52.1666288  49.8004866  13.0906630  69.4563866  51.8208647
  13.5541785  69.0237665  51.1037731  12.2102463  69.6106958  51.4783955
  18.6251175  81.9411659  84.8985863  17.9082608  82.4707508  84.5494652
  19.2325187  81.8467426  84.1648388  23.4060836  83.4979820  56.8630838
  23.9706421  84.0423965  56.3143396  22.6459432  83.3101749  56.3124990
  10.9010327  80.9188175  48.6222172  11.6855216  81.1413574  49.1234970
  10.6631839  80.0428104  48.9259815 100.3316773  35.8934878  86.6136131
 100.2862586  35.3366946  85.8363464 100.0177444  35.3364752  87.3259386
   2.1866047  62.6137114  75.0056744   1.2970915  62.5857019  75.3581142
   2.7180961  62.9571104  75.7238817  54.7005939  85.8071136  64.3605471
  54.1297913  86.3654137  63.8326025  54.1391277  85.0821781  64.6352243
  36.0117006  91.5300369  32.6788497  36.3662553  90.6461143  32.7747440
  36.3003492  91.9906616  33.4667206   4.0857515  88.8074875  49.9451447
   4.0179700  87.8547287  49.8828125   4.5183063  88.9624023  50.7848644
  43.8807964  87.2014046  79.2133331  43.8916826  86.3866425  79.7156048
  44.7926331  87.4925613  79.2094278  14.9777412 108.9275551  35.3259039
  14.7433317 109.4286537  36.1070490  15.8163106 109.2958927  35.0477672
   4.2202502  40.2245140  37.1047711   3.6148533  39.9569750  37.7962565
   4.9206507  40.6867123  37.5652528  38.0009747  26.0596776  27.8833342
  38.2061553  25.6337929  27.0510173  37.9549170  26.9917750  27.6704884
  95.0508232  83.7385750  73.1830120  95.6273957  84.4613934  72.9353714
  95.4106946  83.4176254  74.0098858   5.7481933  77.1591616  66.4016867
   4.8581913  76.9177198  66.1451054   6.2738580  76.3849735  66.2003422
   2.6190713 110.0297165  67.5876284   2.2788961 110.3676414  66.7591858
   1.8461451 109.7041035  68.0489206   8.6103875   1.5593677  43.7129164
   9.0617472   1.3171058  44.5215082   8.8926274   2.4577098  43.5409880
  16.9296956  73.5987616  37.6013589  16.9534385  72.7779055  38.0931568
  17.3892999  74.2258644  38.1596947  18.8236177  77.2513723  39.4418740
  17.9351556  77.5874043  39.3237567  19.0636361  77.5158787  40.3299379
 116.6158892  59.7759914  72.0703506 116.7124794  59.2726755  71.2619162
 117.4512041  60.2328110  72.1693277   8.9021152  91.1004448  12.2519803
   9.3661261  90.9877110  13.0815685   9.5850241  91.3428593  11.6265988
   9.5497638  63.6871195  46.7210102   9.4713742  64.4444942  46.1409521
   9.9310863  63.0027103  46.1710930  10.5709231 102.7178383  20.9306765
  10.1703262 102.9832268  20.1028323   9.8419416 102.6861191  21.5502000
 106.8287535  82.4940968  43.8403463 106.5455706  83.3656693  43.5639429
 107.2261722  82.1120262  43.0578423  25.4793596 101.7106819  55.5862045
  25.6127810 101.8491936  54.6485281  26.3303828 101.9025421  55.9801388
  81.3138933  67.7924490  57.7491331  81.2811609  68.7323046  57.9275608
  80.6610985  67.6561451  57.0624638   4.5579633 106.8780041  78.2236099
   5.4776913 107.0604038  78.4161282   4.3065530 107.5535583  77.5937986
 108.8687660  90.9621620  57.2530937 109.7108014  91.3762951  57.0641613
 108.9823224  90.5733490  58.1203651   8.1336063  43.0607653  18.1120479
   7.7521145  43.8065481  17.6489019   7.8268725  42.2949600  17.6265705
   4.4581360  86.7601585  45.8903980   4.0984097  85.8750343  45.8321905
   3.6922345  87.3329926  45.8517694  14.9836993  47.8648901  42.4442530
  14.9744081  47.5406694  41.5436840  14.1945422  47.4950790  42.8401089
 109.8624881  90.9962368  45.2946281 109.9717857  91.3078117  46.1930752
 108.9154579  90.9938526  45.1554871  18.7327218  84.9395847  30.1287436
  18.3111513  84.1047287  29.9249625  18.7338388  84.9801922  31.0850811
  27.1873999  99.4150829  10.7806110  27.6946187  98.7126064  10.3738129
  26.8685174  99.9374199  10.0445986  16.9529045  80.6345844  51.5000439
  16.0047460  80.7657242  51.4944458  17.3155308  81.5002251  51.3118696
  16.5412218   4.7659640  54.1697979  16.8757040   5.1213794  53.3463669
  17.3202116   4.6464019  54.7130394  44.8830241   0.3760772  14.9688923
  45.0466466  -0.2786298  15.6477225  45.6678993   0.3547435  14.4213998
  37.7336550 107.9873276   3.5443723  38.0807495 107.3518181   2.9183653
  37.0420814 107.5143814   4.0072757 116.3628423  39.3492627  40.2562380
 115.6419955  38.7433100  40.4277992 116.4359724  39.3704724  39.3020725
  10.9262234  21.0827785  32.7919030  10.3851969  21.8605285  32.6554370
  10.5340344  20.6480556  33.5491586 107.7161164  75.8195877  70.0496006
 107.6991494  75.8696604  71.0053396 107.1503885  76.5362072  69.7621346
  19.4172430 105.1667595  72.0294142  20.1831460 104.6868610  72.3445654
  18.6700606 104.6498775  72.3307133  23.2480890  14.1946750  50.0695038
  22.3941190  14.5581393  50.3037167  23.6166758  13.8945251  50.9003401
  34.0075707  47.3493242  58.0417871  34.7964430  47.8905201  58.0098963
  34.2171669  46.5882874  57.5003767   4.4278523  90.5632401  37.9185557
   4.2454574  89.7269249  37.4901271   3.7317538  91.1453056  37.6138043
  95.6319852 105.2346706  61.2017536  95.0613375 105.8264732  61.6920233
  95.0500913 104.5381737  60.8975792  85.5235559  16.1684375  53.8667393
  84.5983249  15.9791331  53.7106943  85.9366113  16.0675864  53.0091572
  29.1992855  73.2269096  61.9916916  29.5517707  72.6783943  62.6924896
  28.5100007  72.6945496  61.5945673  32.4828506 105.2157497  49.5028257
  33.1821060 105.8193588  49.2519665  32.7040315 104.9507427  50.3956223
   6.7142206  94.5312119  63.9148760   6.0925168  94.7851753  64.5969439
   7.3132157  93.9248562  64.3505096  47.4548006 105.5518532  71.7247629
  48.2508707 105.0297260  71.8241835  47.0395517 105.2072811  70.9341478
 105.5588289  75.1128340  90.6916523 105.3845949  74.9583721  89.7632027
 104.7986670  75.6066704  90.9990788  31.1913371 102.5261974  25.6199670
  32.1226120 102.4060822  25.4341435  31.0842586 103.4736061  25.7046914
  60.1864320  14.4332366  16.8909979  60.4858929  15.0106292  16.1887407
  60.8626277  14.5048480  17.5646913  19.7582519 102.5778961  37.4153447
  19.3530083 101.7671204  37.7230024  19.8405099 103.1178379  38.2014275
  31.2337351 109.3570518  23.5694838  30.8971834 108.9529133  22.7697086
  30.5464792 109.9672508  23.8370085  62.4291260   3.1590419  53.9752483
  62.3780424   3.1169944  54.9301624  62.2610909   2.2619777  53.6866808
  17.5379550  89.9374199  46.8122530  17.6213408  90.8878517  46.7351675
  17.5659251  89.7701550  47.7543116  15.1098526  82.7879810  46.0579634
  15.5926025  83.5758495  45.8080721  14.2953146  82.8374004  45.5576468
  37.9471684 109.9541092  39.3139744  38.1731486 109.3894768  38.5748124
  38.2633376 109.4799232  40.0830126  36.8483901  81.3789082  68.4808922
  37.7752304  81.1731815  68.3589220  36.4237475  80.5259514  68.5723829
  39.8824048  88.3750057  28.4910917  39.4871306  87.6569748  27.9967093
  39.7236919  89.1513634  27.9541469  51.5269667  10.8452182  16.8340528
  51.5610499  11.8015437  16.8565667  52.4322099  10.5769305  16.6766071
  15.1193106  91.0088730  49.4575977  15.2029216  91.4650059  48.6202288
  15.5349278  91.5935421  50.0913620  84.8126728   8.5210281  66.8106890
  85.5912191   8.9388137  67.1788597  85.1553613   7.8048186  66.2760544
  22.0038843  94.0948200  25.6493282  21.2182832  94.5637798  25.9306383
  22.4255514  94.6862602  25.0259376 116.5397163  95.2206421  20.9891200
 117.4091527  95.4750729  21.2982798 116.6666186  94.3533993  20.6043863
  13.0705559  52.0591402  41.7749262  13.9621544  51.8463326  42.0506001
  12.6658833  51.2101889  41.5967464  92.4231096 103.5848331  64.0079594
  91.6301246 103.0699253  64.1572189  92.8687639 103.1355572  63.2897806
  38.3322072  93.2931614  43.5785818  37.8674889  93.3462811  42.7434492
  39.2221403  93.0324841  43.3413076  86.0125286  11.7145782  14.0608943
  86.4715511  12.2792010  13.4390187  85.1931555  11.4893680  13.6202812
  69.8638851  16.7675071  60.5817938  69.7313148  15.8702712  60.2758026
  68.9793760  17.1082931  60.7149744  30.9846902  83.5032463  64.2726660
  30.9735489  84.4603062  64.2601109  31.2366939  83.2549667  63.3832407
  16.0793912  68.5644531  79.7277546  15.7308078  69.4482756  79.8442936
  16.8747354  68.5485506  80.2601147  21.1792278  92.6044846  23.6234832
  20.4611802  92.1038532  24.0107894  21.3534880  93.3016586  24.2557836
  53.5701138   9.8750644  89.3930626  54.2075879  10.0407939  88.6985207
  53.9326030  10.3164630  90.1611805  21.7004466  80.9964085  23.8577485
  21.1041784  81.7442131  23.8961840  22.1285152  80.9871483  24.7138453
  15.9309793  72.5656652  50.1523399  16.1465120  71.7767525  50.6497335
  14.9767148  72.5494528  50.0792122  87.0592720   1.5006786  76.8067217
  86.8767959   1.1201911  77.6658869  87.6947147   2.1946960  76.9821930
  18.1522322  98.5019398  49.0349865  17.2288430  98.3139324  48.8669443
  18.2294643  98.4893417  49.9889851  52.3863029  98.5259533  42.0604229
  52.2493219  99.4566536  42.2372532  51.8045664  98.3337307  41.3249874
  23.6791968  78.8496637  15.6792831  23.0997658  79.3436527  15.0992262
  24.3781352  79.4651222  15.9004760   0.9020744  93.3367062  52.7121210
   1.3526756  93.0739117  51.9095469   0.1259701  92.7774143  52.7451706
  70.7120210   2.2211032  56.2135744  70.2983410   2.2007613  55.3506231
  70.0315053   1.9142299  56.8127012  38.1126857 104.9998951  41.5997934
  37.9729819 105.4905510  42.4097157  39.0486264 104.7992802  41.5997028
  76.5003616   8.4001021  36.2251234  76.3375408   8.5541873  37.1557021
  76.0336572   9.1074042  35.7799864  25.6478000 108.1636620  79.6437407
  26.2706113 107.5740147  80.0687599  24.8025131 107.9406738  80.0336075
 102.7076490  96.7496490  12.1741474 101.8825646  97.2334671  12.1368945
 103.3207507  97.3536205  12.5931489  34.9978542 100.7693005  42.4699831
  34.4743347 101.2377167  43.1201649  35.7602930 101.3301373  42.3272228
  70.8584935   5.9156661  77.0501184  71.5251142   5.7183318  76.3921595
  70.1687772   6.3677554  76.5641737  34.9293256  89.7954941  41.1196232
  34.6000791  90.4171944  41.7687130  35.7713914  89.5059967  41.4708376
 105.3708488   3.2053428  29.3110847 105.3000004   3.0775981  28.3650994
 104.4898922   3.4606032  29.5849395  24.1310239  88.9768791  29.7014952
  23.9021134  89.5531082  28.9722538  24.9893999  88.6238289  29.4674563
   4.4444269 106.2747669  73.4890795   5.0599706 106.3983059  74.2116261
   4.9933127 106.2705898  72.7048969   7.2147483 107.8916168  21.1635494
   7.3251534 108.8017082  20.8882976   7.4930626 107.3768520  20.4060602
  37.2160172  93.4583092  41.2470531  37.2398782  94.2760944  40.7501698
  37.3714590  92.7763748  40.5935717  62.2839678  47.6925904  35.8277580
  61.5760578  48.2629926  35.5282089  63.0831970  48.1866986  35.6452343
  25.1465631  85.1770592  18.0634677  24.9048090  84.2874622  17.8057814
  24.7554922  85.7356453  17.3916924  51.0954666  98.0752754  50.5228615
  51.0132885  97.7935028  49.6117735  51.1383486  99.0303230  50.4752684
  43.3721399  97.0884228  41.9614887  44.3172979  97.2379971  41.9845819
  43.2783747  96.2021255  41.6123199 112.6992394 108.9526367  25.4495478
 111.8149550 109.2591572  25.2487516 112.8575541 108.2490826  24.8201180
   1.3023195  90.0564671  71.8345451   0.9687970  90.1435852  70.9415674
   0.7792222  90.6730652  72.3468113  55.6784791   5.7526546  46.1557627
  56.3440258   5.7920222  46.8425894  55.9141237   4.9830108  45.6377316
  41.4941454  99.2373180  49.8518944  41.4902925  98.3529854  49.4856024
  40.6079483  99.3593597  50.1924610  18.7058318 102.4171829  72.5702333
  19.1200233 102.7010059  73.3851671  18.5104465 101.4907455  72.7108765
  38.1501436  95.2021313  36.3473272  38.0628157  94.7041416  35.5345464
  38.8553524  95.8251381  36.1719131  36.3494778  90.9255123  67.6348352
  36.5026283  91.8295765  67.3601484  36.4999962  90.9336281  68.5800886
 115.4975547  98.5591412  62.7345896 115.2282707  98.5164642  63.6521387
 114.7590174  98.9722252  62.2871923  47.5587196  13.3557372  18.0506051
  48.5127104  13.2778506  18.0587459  47.2472090  12.5201182  18.3983529
  14.4515967 105.8265781  41.2323761  14.0722704 106.7052269  41.2144375
  14.1905594 105.4359341  40.3984213   5.3977799 101.1946964  48.7581491
   5.0516909 101.0305977  49.6353722   6.3460660 101.2416744  48.8797140
  37.3787880  57.2932434  11.5493774  38.0689597  56.6305351  11.5227008
  37.3418117  57.5637484  12.4668157 117.3602085  59.5064831  53.5615253
 117.1539753  60.1791763  54.2105103 117.4923927  59.9918509  52.7471685
  22.8278870   9.9170928  54.3045521  22.6131040   9.3661075  53.5518837
  23.5008139   9.4263797  54.7763491  18.1060851  93.0244637  14.6185493
  17.3438060  92.6180267  14.2062759  18.4657502  93.5992908  13.9429390
  15.0161350  76.0293913  61.9797277  14.4002128  76.6021919  61.5228176
  15.2408433  76.5074921  62.7779484 108.3690156 109.7785473  39.9427390
 107.7483649 109.5698357  40.6409264 109.1965403 109.9363899  40.3971815
  70.6964118  16.0645919  49.1042042  70.5143172  17.0026069  49.1606855
  71.4310796  15.9995418  48.4940672  17.9740846  88.8641071  49.2717934
  17.6278877  87.9859066  49.4303274  18.8197255  88.7154293  48.8486910
  36.8847847  93.2348442  65.1496696  36.7532110  93.6368370  64.2909956
  37.2199082  92.3594952  64.9555063  25.8040667 102.3505878  29.8724127
  26.2054324 101.5200520  30.1280499  26.2429953 102.5872612  29.0553689
 109.4286419  91.7520809  93.7296486 110.0827260  91.1092281  93.4555149
 109.7429015  92.0670509  94.5771599  10.2880216  99.7522545  32.8499293
  11.0177064  99.3091679  32.4169564   9.5258677  99.2080784  32.6518679
  20.7120490  94.0484810  40.9712458  19.9667752  93.6333370  41.4053631
  20.3183222  94.6954441  40.3858852  46.1509157   2.6032596  90.9438229
  46.3556356   2.1472983  91.7601776  46.6010285   2.0971732  90.2674389
  12.7162373  90.4306507  15.2116692  12.8184962  89.9745369  16.0469747
  12.7979410  91.3581562  15.4336643  80.3340847  27.6610713  32.4129510
  80.5538923  28.0105643  31.5493727  81.1810667  27.4945979  32.8266406
  19.4583750  85.5733490  44.2361164  20.3062725  85.2276516  43.9572001
  19.6403837  86.0127258  45.0668144 111.6106756  79.9398804  47.3182249
 112.3475040  80.1431465  47.8944159 110.8820845  79.7647905  47.9138184
  66.0745270   0.5288367  65.8204889  66.4863235   0.9484725  66.5758419
  65.5628473  -0.1885075  66.1944437  35.2492521   3.3369117  42.0659065
  34.3520457   3.0858760  41.8462801  35.2802945   4.2799811  41.9050360
   6.8969429  80.2611256  61.4527178   7.2107726  79.8596096  60.6424522
   6.0817260  80.6967926  61.2040281  23.3153868  87.4703598  40.0820351
  22.6836801  87.6110649  40.7872868  22.9177523  86.7920685  39.5361137
  13.0799723  72.7994680  46.7949677  13.2761109  72.0794773  47.3944473
  12.6476336  73.4554243  47.3418140  25.5802321  62.7858925  56.8215322
  25.3377843  63.3617210  56.0963583  25.3066206  61.9139481  56.5367794
  33.4200287  86.4874363  28.0818868  33.3813214  86.9258308  28.9319086
  32.5315785  86.1605740  27.9402947  41.1958551  78.4637165  64.4094133
  41.0012341  78.7027884  63.5032177  40.3398418  78.2871485  64.7996712
  60.5124003   7.6277213  47.3872805  61.0939604   7.6292377  46.6270018
  61.1029011   7.6391749  48.1405449  38.8550711 106.1565399  39.1463256
  38.0437803 106.3304806  38.6690593  38.5662627 105.8489323  40.0055122
   8.4603602 104.6367168  59.1434431   8.5390562 105.4264927  58.6083889
   7.6576775 104.2168713  58.8341475  24.7028422  95.8089638  78.2315207
  25.4113507  95.7612514  78.8733673  24.2716956  94.9561596  78.2868576
 107.1575958   6.0068469  25.2541852 106.2586290   6.0648399  25.5778050
 107.0785553   6.1164146  24.3065667  11.5797687  95.7887363  31.1646128
  11.6489196  95.7365608  30.2113390  10.8186078  95.2495384  31.3794041
  37.2146273  83.2945061  60.9869432  36.7087197  83.0841541  61.7718267
  36.8121529  84.0949249  60.6499338  20.6973243  93.0436420  60.8577919
  20.6383038  92.1152020  61.0830832  21.3644624  93.0818558  60.1724434
  73.1044769 109.0428352  37.0511818  72.7919340 109.2851067  37.9228759
  73.8917971 109.5720100  36.9233894  26.0367918  65.8788729  91.9288635
  25.9165502  66.5921354  92.5557899  26.7325974  65.3417206  92.3077488
 110.4016788  57.0850992  18.8223088 109.6854146  56.4936399  18.5912752
 111.1862655  56.6558313  18.4811568  32.5956154 109.3125057  66.8860960
  32.0564699 109.8999310  67.4157000  33.0269289 108.7434006  67.5235224
  46.2839746  87.9632092  80.5591202  46.3991880  88.5983944  81.2658691
  46.3069773  87.1118927  80.9961033  53.9047081   7.2621017  47.6929855
  54.4449538   6.8744712  47.0044231  54.1055531   8.1973033  47.6570559
  56.7796755  95.0611210  34.3982220  56.8527126  94.7197437  35.2894902
  55.8448887  95.2317619  34.2829585  70.6520707  19.3532329  76.3421679
  70.3083951  19.8338275  77.0952559  71.2796122  18.7358909  76.7180920
 106.4483423 103.8071918  59.5732355 107.3636456 103.9774799  59.7956228
 105.9481580 104.2926884  60.2292395  40.2517223 104.4767380  49.7025013
  39.9731064 104.0575886  50.5167007  40.9890509 105.0308514  49.9584866
  24.9672723  65.4736519  32.7000904  25.5805564  64.9514914  32.1829224
  24.5422173  64.8404932  33.2786036  59.9219090   0.2395682  47.2365999
  59.0957934   0.6940704  47.4014902  60.1997167  -0.0723596  48.0978489
  47.2742773   0.6398730  57.1682882  47.8138215   1.3119369  56.7518187
  46.7081070   1.1251693  57.7684307  15.8155632  92.8074932  28.5413146
  16.1508560  92.0998859  29.0918612  16.5284181  92.9938793  27.9303050
  37.8920608  11.9725947  35.2753210  38.5463177  11.9981628  34.5770907
  37.1493142  12.4648814  34.9257255  31.2254674  13.1252151  66.4398956
  32.0127428  13.6444240  66.6037798  31.5488399  12.2331958  66.3135767
  89.6986289  81.7886734  51.9497013  89.2579646  81.0379982  52.3478603
  89.1680713  81.9977665  51.1809254  31.0755420  99.9169540  53.0611897
  31.2242579  99.4946480  52.2151566  31.5294456  99.3573475  53.6912966
  57.9681486  10.2800994  64.1133118  57.4955231  11.0086684  64.5158529
  57.9183704  10.4526095  63.1731033  31.0741300  11.0179095  44.5517635
  30.2141560  10.8111053  44.1858244  31.2262965  11.9301849  44.3051147
  25.3422070  68.4144831  89.6649170  26.2495732  68.3670807  89.3638039
  24.9700761  67.5619745  89.4391346  13.4786737  94.9303436  39.3877244
  13.9439130  94.5193195  40.1163149  12.9303873  95.5980206  39.7998238
  36.0817579  13.1261592  39.5208979  35.1279814  13.0452781  39.5203662
  36.2575993  13.8834434  40.0793219 113.8134719  96.4138794  15.7850242
 114.2846806  96.1972046  16.5895379 114.4707866  96.3346577  15.0937259
  45.3991300  14.1552215  63.6623812  44.8054618  14.7156863  63.1627083
  46.0282439  13.8358455  63.0155039  14.2859244  49.6192932  54.2338228
  14.6641672  49.5281649  55.1083851  14.0185153  50.5369759  54.1829538
 114.3959035 110.6577587  41.3455248 114.8930336 109.9653721  40.9099770
 114.5063783 111.4230919  40.7813549  34.5854306  97.7425194  50.9342241
  35.0567913  97.1501255  50.3484631  35.0871134  97.7228832  51.7491817
  27.0464110  85.9161663  41.0246992  26.9218636  86.6017151  40.3683853
  26.4218926  85.2334881  40.7794428  30.7062620  14.0406089  26.1813068
  30.5981476  14.8308902  25.6521559  31.2099272  13.4467082  25.6246805
   8.8958633  85.4634762  22.9639316   9.6178782  85.8473015  22.4663281
   8.1116903  85.8841610  22.6113272  51.5022415  22.9779868  51.0867310
  51.7417998  22.4516063  50.3239918  52.2920996  23.4792380  51.2894535
 113.1303872  66.8249321  82.0381927 114.0400322  66.6207790  82.2552109
 112.7873917  67.2533274  82.8224468  65.7375581   0.0487857   5.8856446
  65.2642996  -0.0960679   6.7049581  65.3765089   0.8658557   5.5417323
 115.8010414 101.4478588  49.5258808 115.7432692 102.2983170  49.9613190
 116.7282894 101.3527393  49.3081760   3.3097383  95.0711632  46.0797167
   4.2156708  95.0778770  46.3887072   3.2477745  95.8325005  45.5028772
   8.3301759 103.7411118  22.5009799   7.5294977 104.0757942  22.9048800
   8.5021180 102.9172230  22.9569054  27.4713731  66.6570282  45.5738831
  28.0802965  66.1548615  46.1154318  27.7796674  67.5606680  45.6418180
  28.8802338  39.3677616  48.6074305  29.2483211  39.1921616  47.7414560
  28.2259107  40.0497341  48.4557581  12.4042809  91.0625172  43.4537792
  11.8113351  91.3002110  42.7409363  11.9770658  90.3216553  43.8837099
   1.1352148  84.5677280  34.8628974   0.8937117  85.3108406  34.3100047
   0.7095206  83.8152218  34.4520998 117.4259865  75.9259415  35.4382372
 116.8758590  76.5796614  35.0066733 117.2025473  75.9997272  36.3660645
  17.6050854  60.9127760  74.2784452  18.2650471  61.2993574  74.8539782
  17.3997653  61.6053104  73.6503744  21.4604998  71.8611574  72.5201511
  21.9903469  71.1479712  72.1639776  21.1308837  71.5221071  73.3523941
  57.7245188 107.0091820  29.2244959  57.7324724 107.0400047  30.1811671
  57.7148104 106.0752296  29.0150285  94.9454684  93.1369686  76.0133266
  95.2339430  92.5251007  75.3360987  94.1277094  92.7629852  76.3414049
  34.4648242  91.4889622  24.4873786  34.0449047  92.0820808  23.8643932
  35.4023552  91.6402721  24.3675017  99.3613083  10.5249744  49.6773195
  99.7099144  10.9984164  50.4326725  98.8802845  11.1870437  49.1808224
  26.2807441  87.1652412  58.1989050  25.5459261  86.5946102  58.4239817
  26.4617753  86.9711399  57.2792387  26.3057303  82.8176022  34.8989105
  25.6075191  82.8407192  34.2445421  26.0332131  83.4514046  35.5624342
  39.3673079   7.1866660  48.9763021  38.9144833   6.9995074  48.1540155
  38.9104568   6.6546111  49.6277952  74.2545850   5.8255248  47.5637007
  74.5637495   5.9601932  48.4595299  74.8544246   6.3398700  47.0234442
  33.3946395  96.5645027  47.1973038  32.9398036  95.7546711  47.4286509
  32.6965690  97.1649647  46.9358063  14.0368319  76.5440035  38.8452053
  13.6441243  76.7003202  37.9863834  14.3775010  75.6509542  38.7938285
  77.4037070 104.9248981  44.0361071  77.6851506 105.3660965  43.2346296
  76.4478441 104.9684048  44.0104437 117.4580115  79.1061401  68.0231380
 118.0653869  79.1273689  67.2836256 117.4111011  78.1820059  68.2681036
   1.9270225  90.8259678  31.6351008   2.6431689  90.3198338  32.0187616
   2.3605053  91.4555359  31.0589337  31.5904236 110.9223652  38.9549422
  31.9056559 110.4845238  38.1642747  32.3293686 110.8817291  39.5620179
  40.6410551  94.4892311  55.0390291  39.9757147  94.9677563  54.5444822
  40.1971340  94.2260647  55.8451986  33.1558251  89.6478081  64.5338678
  32.6669526  90.1493454  65.1863194  33.7550998  89.1064167  65.0476789
  11.8151647  13.7094836  56.2669754  10.9783775  13.2522922  56.3506365
  11.7492992  14.1793780  55.4356575  76.7012596  79.8604012  58.0962610
  75.8860970  80.3618622  58.0795002  77.2278214  80.2818871  58.7754631
  45.3577996  21.9434886  11.3636065  45.7912463  21.4613872  10.6593812
  45.0961340  22.7716308  10.9611714  80.5797035  12.7925162  61.2752676
  80.6909734  13.2409244  60.4369450  79.6385128  12.8321509  61.4450216
  22.6449704  89.9732780  38.7665749  22.6196504  89.1090488  39.1773129
  22.7468896  90.5829334  39.4974446  59.9455643 110.0982761  37.9739404
  60.3611708 109.2717838  38.2197237  59.4980621 109.9056244  37.1500134
  18.8240701   9.9515300  36.0101914  18.8988930   9.2930083  35.3195477
  19.7288853  10.1854282  36.2171435  27.5528479  92.5751019  46.7166996
  27.2042179  93.4396172  46.9341755  27.1831536  92.3772907  45.8562136
  41.1167955  85.6362247  29.3702197  41.8123579  86.2415314  29.6271753
  41.3387442  84.8156452  29.8102450  15.8355916  75.7723618  54.1106367
  15.0481761  76.1029387  53.6782837  15.7149220  75.9978151  55.0330496
  57.1564156   9.3971591  57.1344090  57.3602003   9.8004012  56.2905455
  58.0027050   9.0995364  57.4682379  35.7455635  89.1025543  82.3376942
  36.6093206  89.5137310  82.3706913  35.3923178  89.2162514  83.2200432
  22.7891231  81.2984562  14.2276371  22.4408484  82.1075058  14.6022999
  23.7309122  81.3441563  14.3924975  29.2599034 101.9273090  53.3219242
  28.9568090 101.8198681  54.2234898  29.8485327 101.1864948  53.1772327
  75.9191186  21.1366420  48.0559254  76.8186576  21.4127402  48.2315159
  75.6307179  20.7271342  48.8716221  97.2002346  28.0651717  81.9000912
  96.5872270  28.1611400  82.6289558  98.0636770  28.0546718  82.3131180
  50.1219654  99.5586967  30.0003910  50.3484631  99.3319130  30.9023333
  50.2242136  98.7402153  29.5147324  82.2842962   5.4992919  24.4405389
  82.3784620   6.4375739  24.6048164  82.4305183   5.0908904  25.2938008
  21.6922331 108.8305187  14.4714081  21.2343693 109.2914486  13.7684596
  21.3158965 107.9504204  14.4655883  97.6799280   3.1189494  71.7902708
  97.4574739   2.6054340  72.5668287  97.3298914   2.6106219  71.0586262
  26.8337065  28.2634883  58.3180618  25.9010202  28.3260493  58.1121159
  26.8592257  28.0492168  59.2506218 105.2552719  93.2481098  28.0488706
 104.4898327  93.7249279  28.3697772 105.8076496  93.9213848  27.6516247
  43.5531122   4.4770007  23.6696696  42.7044088   4.0929275  23.4496307
  43.7712107   5.0242190  22.9152012   4.2523885  67.6603889  51.5445042
   5.0739807  67.5279808  51.0715485   3.6252582  67.0904684  51.0993862
  15.8513260  62.4170780  26.1566758  16.0634518  61.7817688  26.8405008
  15.0980818  62.0384789  25.7033348  14.3947649  76.5665674  50.5361986
  13.8325500  76.8382502  51.2616873  15.2730179  76.5286970  50.9149694
 105.6986435  93.5719109  63.0790234 106.1214228  93.9891148  63.8296461
 105.6080170  94.2737961  62.4345255  23.6175466  84.7102928  53.0154324
  23.6127949  83.9702129  52.4084044  24.1503119  85.3748703  52.5787020
  20.3549600  98.1544781  63.8083029  20.3767920  98.9374352  64.3585062
  21.0427690  97.5921345  64.1645575  12.9166484  79.3928242  45.1700211
  12.6654959  80.3148937  45.1157665  12.0885706  78.9249897  45.2779436
  35.8981895 103.0291557  57.3698711  35.7755399 102.7306461  56.4687157
  35.1689982 103.6296272  57.5246143   1.1737231 100.6533527  47.0204163
   1.2755200 100.1357841  47.8191566   1.1675745 100.0064182  46.3149643
  63.3578402   3.0156379  48.6592770  62.7708251   3.0652766  49.4137192
  62.8884703   3.4709029  47.9602385  20.1720548 102.5433064  44.6555519
  19.8838222 101.6310596  44.6244621  20.2790809 102.7921009  43.7374640
  10.9439039 104.8186398  88.9201355  11.8304098 104.4583225  88.9427280
  10.9998274 105.5542564  88.3102417 100.8952768  96.9130993  30.8555913
 100.6726964  96.0881615  31.2870669 100.7288928  97.5828457  31.5189075
  45.2760935  97.7705669  66.1785889  45.4416275  98.4441471  65.5189562
  45.9887218  97.8728294  66.8094063  13.6847210  93.3474731  26.4692855
  14.0430307  94.1309738  26.0521865  13.6605620  93.5623169  27.4017525
  91.6506273   3.1284671  21.5239406  91.4085085   4.0503936  21.6114855
  90.8312542   2.6519446  21.6573167  18.2245827  90.6141949  26.6464639
  18.9117241  90.5432415  27.3090601  17.4687982  90.1756954  27.0372844
  68.8596344  95.3675365  30.4740119  68.2069302  96.0449696  30.2971172
  69.6667099  95.8520317  30.6475544  23.1127024  88.4308338  53.2236195
  23.4944272  88.7217045  54.0518141  23.5252404  88.9857864  52.5617504
  16.4909112  33.8362651  62.8295231  16.2445866  33.9161830  61.9080210
  17.1627461  34.5060878  62.9568195 116.5832332 103.2860374  16.6749704
 116.4131699 102.8864765  15.8219373 116.3276867 102.6156902  17.3086619
  21.4960647  59.3951941  69.6087885  22.2692466  58.9741802  69.2330599
  21.2138414  60.0186777  68.9395714  24.6209931 108.7461662  51.9827795
  25.4180598 109.0296459  51.5349436  24.8666501 108.7069130  52.9070902
  49.6840715 108.5499859  59.4886589  49.9021626 109.3829060  59.0704155
  50.4529238 107.9992676  59.3409777  36.3087606  91.4794159  57.8049326
  35.3577209  91.4747238  57.6966190  36.4491153  91.1772060  58.7022638
  49.7623283  14.5984511  52.7436972  49.1049237  15.1673942  53.1441307
  49.8798591  14.9518924  51.8619394  38.6196899  92.1012497  39.1956902
  39.3044472  91.8353939  39.8094130  38.5977936  91.4011669  38.5432887
 104.7364504   2.0614963  85.5453587 103.8181478   2.0274692  85.2774048
 105.0422651   2.9170947  85.2442551  48.5298872  81.8305969  68.8796282
  48.1648684  82.3995876  68.2019567  47.9593134  81.0620403  68.8799667
  33.2293081  94.8281193  55.2857876  32.4020290  94.3514252  55.3536177
  33.7056112  94.3827534  54.5850611  77.8677255  10.6633239  46.4944839
  77.4071986   9.8459964  46.6845655  77.2355777  11.3496547  46.7079449
  37.3372340  93.3815956  12.6085091  37.3491836  94.3357086  12.5325811
  36.4661860  93.1793976  12.9500091  47.8533840 107.8413391  21.7649746
  47.9607868 108.1442451  22.6666069  48.5378265 107.1820068  21.6506791
  27.2433209 103.1547546  43.2332420  26.9594145 103.6999321  43.9670038
  27.2407722 103.7460232  42.4804974  23.0336809 100.1711845  61.4841366
  23.8895440 100.5101013  61.7465591  23.1737280  99.2315197  61.3673162
  65.9597546   5.3654628  59.8415232  66.5877206   5.6847530  60.4895496
  65.2876455   4.9208789  60.3580952  18.1086493 100.0477409  19.8719394
  18.2481933  99.6646023  19.0059364  17.3667121  99.5618820  20.2320790
  39.0425801  86.8404484   2.1780500  39.7240424  87.4968338   2.3229542
  39.1115856  86.2533283   2.9308873  31.8861365 102.6097393  33.5232401
  31.2849998 102.6528740  32.7795982  31.9036722 103.5020828  33.8691235
  26.2549067 108.7896347  54.3805313  27.0604253 109.1728687  54.0333939
  26.5395069 107.9839230  54.8118830  83.0724430 102.6126766  64.0841579
  83.7025642 102.0479202  64.5316219  83.2157898 102.4411488  63.1534290
 100.2714807  15.8389907  43.1042147 100.4822761  16.7695289  43.0274248
 100.2076799  15.5324226  42.1996832  37.7927971  96.8534374  19.3611014
  38.2127047  97.0620060  18.5265923  37.9599142  95.9193134  19.4864511
  90.5619461  26.3654857  89.5325565  89.7359688  26.6193156  89.1207790
  91.2226993  26.5155749  88.8564587  63.0136568  13.1122356  83.5131550
  63.5515839  12.4097114  83.1480122  63.0503661  12.9746966  84.4597149
  51.5726728  21.6751628  72.2994137  51.3069636  21.4413409  73.1887722
  51.8600876  22.5856929  72.3668814  64.2341072   9.1117244  40.4169607
  64.6342856   8.6462646  41.1514187  63.7070591   8.4483390  39.9715638
  28.1026173  90.4064178  23.9256597  28.8663793  89.8766232  24.1541862
  28.4005451  90.9559727  23.2007766  15.4705608  80.5081844  39.5037556
  15.6404901  81.0773754  40.2543354  14.6083736  80.1312923  39.6793151
  88.8606769  32.9859309  55.2552652  88.1775600  33.4951263  54.8190355
  89.6610243  33.4931426  55.1195669  80.6200535   6.2962775  55.3885698
  80.4999811   5.4524760  55.8242559  81.3633568   6.6955810  55.8405495
  28.0462670 110.2789879  53.3695269  28.9580941 110.5497646  53.4766769
  27.7682352 110.6920624  52.5520325  22.2144747 109.7589493  35.3475547
  21.5502763 110.3319359  34.9644685  22.4249005 110.1649666  36.1884522
  49.1579008  80.8872890  62.8235245  48.4822607  81.5543747  62.7021074
  48.8924932  80.4188442  63.6149502  94.1283876  12.8254466  46.1078835
  95.0855810  12.8289943  46.1092186  93.8877470  13.4026580  45.3832150
  44.3352938  93.1759548  44.9623680  44.1506624  93.5307884  45.8319855
  43.6483908  93.5404015  44.4041824  52.2292662  85.2672958  10.1093757
  52.4197578  86.1828709  10.3135300  52.9278183  85.0052643   9.5097142
  22.6486516  89.5146751  33.6126542  23.4423280  89.0786743  33.9228225
  21.9614720  89.2118549  34.2062163  53.4571838  81.3249969  65.7302189
  52.7664328  80.8001900  66.1347866  54.2679691  80.8696270  65.9571362
  24.8525667 109.9300480  27.1020579  24.6161151 109.8128605  28.0221605
  24.9630713 110.8755398  27.0017123  97.6564295  13.3300643  28.3705783
  98.3687336  13.2500987  29.0049720  98.0708296  13.1667953  27.5233173
  84.7053606   6.4898353  92.1429062  84.9216062   5.7512813  92.7121162
  84.1488249   7.0523791  92.6814747  27.8544664  96.9409275  53.5429049
  28.4431338  96.8205643  52.7977753  26.9902682  97.0593071  53.1487274
 115.0837070   8.7061076  11.9736195 115.5528146   9.4342570  11.5662372
 114.7325975   8.2054477  11.2372088  56.2661171  98.5312366  34.8552251
  55.7257271  97.7450943  34.7765446  56.3757658  98.6531067  35.7982826
  12.5901091 104.4541645  47.7821970  13.0467927 104.9623394  47.1118069
  11.9841242 103.8994980  47.2909164  88.9898521  22.4289088  36.1885571
  88.5026533  21.6137557  36.3085055  89.2057831  22.7118545  37.0771217
  67.3737318  29.8596435   8.8050658  67.4773533  29.1247325   8.2005823
  67.7013356  30.6169086   8.3198303  67.0107443   0.1530414  70.4406500
  66.8359596   1.0060268  70.0430393  66.7754108   0.2653556  71.3616467
   0.4620116  49.3191201   0.9889195   1.4115732  49.3392331   0.8699295
   0.3276556  49.6063859   1.8920586  68.6569912   0.0017886  34.0618181
  68.7640411   0.7951312  34.5865965  69.1236216   0.1886802  33.2472277
   7.5185663  98.1206036  38.4745312   7.2223037  97.2121334  38.5305786
   8.4317255  98.0927944  38.7601852 104.0428907   6.0965877  72.5327778
 103.9337951   6.6756492  73.2871103 103.4597332   6.4593654  71.8660307
  97.8306896  28.5120826  70.1500797  96.9418699  28.4840064  69.7959042
  98.2873995  29.1491656  69.6007395  21.6953611  69.5871973  74.9645996
  22.2384024  70.3409338  74.7339153  21.6304612  69.6218777  75.9189701
  42.5389481 103.8179398  61.0746050  41.6230583 103.5716343  61.2038565
  42.6918125 103.6890793  60.1385164  97.6898748  12.4126678  15.0604868
  97.7639562  11.7227607  15.7198596  96.9455415  12.9408221  15.3490281
   6.1539298  67.4073792  55.2420139   6.8705595  67.7039814  54.6810293
   5.8268696  68.2063913  55.6553411  48.0053455   8.2347350  68.1729174
  48.2604158   8.4669070  69.0658140  48.0798382   9.0531306  67.6820803
  30.8463788 108.3835697  60.9933138  31.2557602 108.2948971  61.8539953
  31.2170124 107.6678848  60.4769182   5.8877104  80.7322175   1.1152527
   6.3256663  81.0712487   0.3345558   6.5115946  80.1095921   1.4885208
  61.8526155  25.0512939  41.5222549  62.1900136  25.8222633  41.0661888
  60.9550554  25.2860694  41.7578268  29.7646832 104.4775105  48.6274242
  29.1860437 105.2313805  48.7418365  30.6097388 104.7702408  48.9686251
  87.1575069  82.4572563  59.3845701  87.8703213  82.7108002  59.9709606
  87.5699043  82.3842812  58.5238504 116.9274445  96.4006805  57.1174669
 116.3494527  97.1034336  56.8203306 117.7842687  96.8175983  57.2083807
 116.7568967 104.4569302  37.2213435 116.3265733 103.9605045  36.5252018
 117.6812015 104.4661522  36.9727325  15.7890201 105.5553913  80.9194469
  15.8572543 104.6887779  81.3201618  16.5169775 106.0508060  81.2947750
  34.9568224  84.5732594  29.4599509  34.8562574  85.3492260  28.9085937
  35.8836031  84.5679760  29.6992898  43.1185007 100.6990147  51.8948412
  42.8713274 100.2442455  51.0896540  44.0053463 100.3908920  52.0813608
   0.8885687  10.3322600  91.7829394   1.6734045   9.7941349  91.8863129
   0.1648777   9.7444533  91.9996831  97.5129492  42.4813800  59.8643923
  97.5466854  41.8334060  60.5681133  98.2617647  43.0541282  60.0300884
  57.2817326 106.9968605  65.8507442  58.1859875 107.1802139  65.5959034
  56.7535305 107.3724556  65.1463556  89.0079529  13.6087375  31.5548706
  88.9603264  14.0632491  30.7138133  89.6906597  12.9490905  31.4323163
   2.2412526  22.0490317  28.3739901   1.5689503  21.3679462  28.3552527
   1.8576275  22.7498202  28.9012146  24.7696948  94.8051453  74.0355682
  25.6697464  94.4860172  74.1011429  24.7573113  95.3232574  73.2308102
  -0.1190547  81.6027355  54.5375252   0.6010969  81.0766220  54.8851061
   0.2370504  82.4895191  54.4824028  24.3189764  91.8884563  56.6698790
  24.9185157  92.4976826  56.2390327  23.4673023  92.3237419  56.6323614
 116.7995527 107.4760437  59.4195890 116.3212858 107.3586559  60.2403927
 116.2665413 108.0928516  58.9179134  91.6386205   5.6403213   4.2426431
  90.8614380   6.0188537   3.8316283  92.3090917   5.6701617   3.5601413
  94.8952419   0.1171641  24.3866682  94.2810613   0.1831012  23.6554551
  95.7544023   0.0407462  23.9716625  59.3414021 102.6471424  55.2198648
  58.8044357 102.1687508  54.5881701  59.3667364 102.0801544  55.9906530
  12.4996197 108.2317352  90.1470280  12.8344214 108.2381058  89.2503166
  11.5830553 108.4943581  90.0623512  80.7937050 111.6542339  72.2477913
  81.7113972 111.9206429  72.1921587  80.7756233 110.7763672  71.8666601
  36.1521816  96.3619995  42.1389723  35.6285858  97.1535492  42.0143223
  35.5504441  95.7383251  42.5453758 109.8914272  19.4567256  49.0862560
 109.2069990  19.0717559  48.5389090 109.4362003  20.1148944  49.6114349
  54.4611234  30.6427150  41.6076803  54.9751336  31.0719543  40.9237337
  54.7803253  31.0272079  42.4240780  34.0790677 108.7065887  29.6416521
  34.7039294 108.1109810  30.0552011  34.5856190 109.1508579  28.9617491
  25.7630682 110.5660820  90.4981804  25.8687711 111.5064716  90.6421661
  24.9384046 110.3484631  90.9327030  15.4962802 109.6386337  40.9930134
  14.5824397 109.4147587  40.8169270  15.8685160 108.8434219  41.3742113
  28.3090711  97.9495907  26.1238837  28.8878965  97.3716736  25.6266856
  27.6057363  98.1679153  25.5124187  43.1309352   6.3538032  37.0658898
  43.5363526   6.3011890  37.9313946  43.6121807   5.7175593  36.5368986
  39.2674899 110.7804394  69.4291878  39.5423603 111.4503193  68.8031387
  40.0537109 110.2553368  69.5787191  74.0203792  14.5062881  22.9859972
  74.9222619  14.3776088  22.6922607  73.5124952  13.8660960  22.4875617
  55.5103493  91.6408730  73.9590597  56.3358307  92.0906067  73.7786198
  54.9280024  92.3290730  74.2807627  34.0366864 108.6511707  38.6431098
  34.8378158 109.1613770  38.7619233  33.4848619 109.1984272  38.0843306
  31.9017339 108.1093788  63.4415293  32.8010654 108.1125164  63.7692928
  31.3832355 108.4690189  64.1612864  77.7804470  98.1933784  20.1364517
  78.2848597  97.5618553  20.6492662  78.2797575  98.2974815  19.3264580
  36.2994409 100.1872444  90.5627918  35.6575322 100.0070763  91.2496090
  37.0131898  99.5731258  90.7349777  75.3012854   1.0055213  18.9102936
  75.0864870   0.2957015  19.5154738  75.7372123   1.6609340  19.4549322
  18.1223488  97.4335194  75.3170156  17.5173688  97.7442169  75.9905863
  18.9410126  97.2725773  75.7861853  54.2009020 101.3735199  42.5593948
  54.0170813 101.3672352  43.4987545  55.0455713 101.8173790  42.4835873
  52.7944422  95.4706764  46.5859556  51.8876028  95.3537941  46.8691635
  52.7441692  96.1180401  45.8826494  33.7784648  98.2961559  38.7258053
  34.4113660  97.9497719  38.0967665  32.9254222  98.1206322  38.3286405
  65.5180222  17.3073726  40.0517178  65.8432276  16.4347510  39.8303699
  64.6796924  17.3736529  39.5945072  74.0863711  19.4766002  19.1384232
  73.6134941  20.2675872  19.3971860  74.9838478  19.7728877  18.9868295
  39.2245102  94.2566776  26.0233331  39.8567319  94.8843479  26.3734102
  38.8884711  93.7998295  26.7944336  53.8272447  21.3314872  36.4617419
  54.4469005  21.8182140  35.9182715  54.0727407  21.5513663  37.3604178
  83.0644256  20.9992938  62.3571014  82.7976162  21.4502959  61.5560770
  83.9373285  21.3434749  62.5463438  95.0965006   2.4320846  40.2078438
  95.4754335   2.9377513  39.4888544  95.8240825   1.9066196  40.5406094
  38.2179618  94.1035843  18.7614548  37.7745295  93.7203979  18.0046415
  38.9649844  93.5262108  18.9190221  40.5037498  77.4417543  84.0111732
  40.1887512  78.3148479  84.2450714  41.1475372  77.5966167  83.3199501
  25.7422948  86.6399479  74.8827219  25.2943635  85.8023834  75.0013590
  26.6721106  86.4280796  74.9651003  14.5069790  92.8343964  22.8551459
  15.1896191  93.2607937  22.3370504  13.8014293  92.6670551  22.2303009
  86.4153749  23.8806968  71.0913706  87.1546346  23.8567119  70.4837894
  86.7641622  24.3029361  71.8764114  40.7654667  91.4972591  45.9190845
  41.1935759  90.6436729  45.8531857  39.8401308  91.2914944  46.0519123
  47.4462271 103.4984589  60.2621269  48.3719540 103.5409737  60.0224209
  47.3543358 104.1298485  60.9756660  39.6220577  16.9534927  44.8083687
  39.6800837  17.0719676  43.8603020  38.7029785  17.1231227  45.0151300
  46.1318064 101.4759541  45.4104280  46.4125109 100.7888985  44.8059511
  46.5590954 101.2559128  46.2382221  87.3290378  17.4293475  32.4457645
  88.0862600  17.0109038  32.8553391  87.1523267  18.1939368  32.9938626
  86.1596472   2.3052745  31.8965507  86.2587864   1.6907268  32.6236963
  85.9166843   3.1320911  32.3131680  24.6865249 110.2117634  66.6331291
  24.0770054 110.6738567  66.0576344  24.3406153 110.3562355  67.5138712
 100.1063377   4.7913318  35.7047772 100.4105646   4.3337779  34.9209881
 100.5328590   4.3342834  36.4296389 117.1602058  72.2263813  89.8028469
 117.8547067  71.7456102  90.2531338 117.1612155  73.0904436  90.2147007
  28.0825639 100.1482677  39.3328381  28.9691401 100.3297424  39.6447325
  27.7458811 101.0012722  39.0584970   3.5492107  82.3322487  48.5371065
   3.4749320  81.9911480  49.4283772   3.7294972  81.5609264  47.9997110
  30.4407859  93.6126137  47.2096920  30.7529354  92.7079964  47.1881151
  29.5532036  93.5682487  46.8540764 104.3440038   3.5481029  68.3231163
 103.8057787   3.2494502  69.0561581 104.2118723   4.4958453  68.2994843
  59.6776158  33.1063609  29.7150588  59.2228038  33.9483886  29.7343731
  59.6532137  32.8420024  28.7954140  81.6143448  33.9428477  55.6165695
  80.7368499  33.7810664  55.2700710  82.1904213  33.4106593  55.0677967
  83.9767486  18.8030963  75.8718824  83.0320150  18.9498191  75.8251238
  84.1440899  18.6121326  76.7947912  97.0108206  11.8981414  39.4857883
  97.5967628  11.7802005  38.7381315  96.5297205  11.0727935  39.5455790
  65.0809277  14.7351073  72.0948508  64.9355246  14.0784453  71.4137652
  64.2063750  15.0666235  72.2985366  66.0404361  95.1545961  43.0077028
  65.5241359  95.6630273  43.6331320  65.9519876  95.6300206  42.1816397
 101.2121935  24.9523592  18.0714345 101.5090282  24.0611792  17.8872609
 100.5995794  25.1518631  17.3635268   9.3195283  31.6505599  68.6439705
   8.8080329  32.4575639  68.5860729   8.6662877  30.9608746  68.7616253
 114.6157468  96.2304993  49.6993685 114.3000854  95.4272802  50.1134109
 115.5687035  96.1797519  49.7737360 111.4930732  31.2783146   2.9203269
 111.1026211  31.2205195   2.0482953 112.4269213  31.4097786   2.7563879
 114.1816245  90.6059074  22.5921369 114.3119325  91.5198517  22.8450394
 113.2318468  90.5099297  22.5218368  96.9813009  69.4025946  44.7707462
  96.9477267  70.2451754  44.3177938  96.1294623  69.3277836  45.2008724
  95.6209011  11.1786997  21.1228204  96.3056870  10.7433271  21.6305113
  95.3392096  10.5208826  20.4870844  33.7832928  74.2782545   7.6361865
  33.6051416  75.1659918   7.3256707  32.9677391  74.0027428   8.0547506
  78.1126243 101.1133331  94.7401433  77.8582579 101.9386476  94.3273662
  78.6522538 101.3749879  95.4861780  39.7506380  46.5090084  33.6418438
  40.0658131  45.8300304  33.0452847  38.8530755  46.6804314  33.3568382
  79.6009751 106.7485471  50.5202818  79.2375360 105.8847077  50.3255367
  79.0778165 107.0683463  51.2553072  85.7349916  60.4679966  15.3078818
  85.7076593  60.4348850  16.2641180  85.0989742  61.1437988  15.0733507
  82.9509969  34.3907642  34.5394421  82.6859279  34.5756674  35.4404306
  83.8846965  34.6003294  34.5166707  91.4623423  74.2901611  60.6866407
  91.6810246  74.4151163  61.6101074  91.4705916  73.3407736  60.5648899
  37.3740220  20.3290677  24.0191579  37.1303391  19.4042063  24.0576172
  38.1968927  20.3803658  24.5054531   6.5953904  46.1080980  64.8971510
   6.6769290  46.3506460  63.9747906   6.3897192  45.1733828  64.8817301
  28.5056949  28.3296537  11.4539099  28.8945913  27.7524519  12.1110475
  28.4938455  29.1918945  11.8693984 115.9031714  28.6454296  43.0999756
 115.3169949  28.6856198  43.8556290 116.2334081  27.7470016  43.1005335
  59.1134925  20.5598259  29.4807005  59.3300481  19.6847618  29.8025703
  58.4560485  20.4092860  28.8014841  22.2423053  95.8577633  57.3293257
  22.9239845  96.5190697  57.4485588  21.4477444  96.2687016  57.6699543
   1.4743893  61.0083961  30.0299287   0.8324973  60.8719730  30.7267737
   1.5452942  61.9598246  29.9525070   4.5409971  43.7180853  44.5314550
   4.6255094  43.7420273  43.5782957   4.4649178  44.6370363  44.7883177
  96.5773983  60.3156757   4.1523519  97.1175809  60.7283211   4.8262662
  97.0948286  60.3919840   3.3506826   9.7733831  13.5397315  46.9371462
   9.2636442  13.4926057  46.1283302  10.6587636  13.2849967  46.6774464
  25.6081510  58.1432486  19.4102573  26.5091109  58.1585979  19.7331560
  25.6684828  58.4790945  18.5159433  31.3193083  10.2166474  33.3772564
  31.1620331   9.9335223  34.2779994  31.9883013   9.6150821  33.0504560
   5.4352313  31.3052106  28.3185577   5.7833523  30.5118632  28.7255549
   6.2111485  31.7930651  28.0425477   3.9515308  58.8058662  84.8007298
   4.0341988  58.3879948  83.9435387   4.6749860  59.4318199  84.8328114
   5.0520962  41.0261202  55.8434677   4.5764056  41.7729712  55.4799223
   5.5718464  40.6939125  55.1115322   4.1905704  32.4100900  48.7497950
   4.8297292  31.7584491  49.0380144   3.3633059  31.9306612  48.7049532
  32.2025466  51.0326099  28.2926488  32.2510529  50.3183937  28.9280844
  31.2994838  51.3444901  28.3513355  98.2570620  43.2979822  20.7281065
  97.3277946  43.0874586  20.6366158  98.5120673  43.6346626  19.8691237
  19.5748127  25.6124210  35.1526237  19.7177994  25.1215839  34.3433881
  18.7559950  26.0854721  35.0043249 105.4587395  62.6393223  17.5798309
 105.5415864  61.7260027  17.8540862 105.6033821  62.6193953  16.6338325
  10.8592367  48.9335012  56.3944197  10.8275163  49.8695755  56.5918827
  11.0237718  48.8928890  55.4523373   2.0284016  43.3045864  53.0098200
   2.4701737  43.9338493  52.4396467   1.1091440  43.3469009  52.7463675
  84.9703236  41.8699169  44.2274714  85.8119865  42.3241091  44.1881371
  84.9158545  41.3942957  43.3985901  43.5842514  24.3965411  45.1434135
  44.2998409  24.6268797  45.7359600  42.7906084  24.5421553  45.6583452
   5.6714308  83.5369301  12.5463259   5.1075482  84.0933132  12.0090151
   5.0636709  83.0006218  13.0554843  88.6704703  45.4923344  24.7131228
  89.6232243  45.5770397  24.6768475  88.5193129  44.7181654  25.2553773
  14.1076887  37.2741890  60.2238894  13.2749021  37.6394987  59.9251461
  13.8635182  36.6452694  60.9029150  12.7403200  25.1476145  34.4392276
  11.9458008  24.8173618  34.0198159  13.4321201  24.5576859  34.1398501
   9.9255997  37.9985762   4.3786463   9.0319574  38.3338547   4.4509253
  10.0610518  37.8784394   3.4387252  49.3125242  90.1900452  88.8789812
  49.2369539  89.4260948  89.4507339  49.0044988  90.9212940  89.4143542
 102.1681936  67.0229673  33.4471726 102.9864640  66.6027975  33.7119770
 101.6182001  66.3029480  33.1384540  87.3151083  99.5105870  19.2630947
  87.1901942  98.9051587  18.5322833  88.1735487  99.2819257  19.6195030
  47.7061815 110.3532403  91.7695328  48.2909865 109.6240752  91.9758138
  47.3827106 110.1593393  90.8897599   3.7369040  74.5921612  29.6617961
   4.5663208  74.2097378  29.9482465   3.1421840  73.8458586  29.5871210
  21.2068725   9.8161310  40.7392550  21.5688586   9.0199661  40.3502560
  20.9804249   9.5637763  41.6343880  16.9393504  64.3444633  50.6624174
  16.3762307  63.6909103  50.2476883  17.2235715  64.9073458  49.9422693
 102.0620687  30.2756405  16.7517567 101.9188876  31.2189078  16.8290937
 102.9369230  30.1356816  17.1140730  34.3210363  12.8550518  17.8829312
  33.6290288  13.0141473  17.2410250  34.3536949  11.9022644  17.9687333
  12.7294099  34.5068765  51.7475367  12.0601714  35.1452303  51.5008402
  13.2187748  34.9327707  52.4513578  11.2235570  31.0248113  29.2153382
  10.9812665  30.1944542  29.6252561  10.8338225  31.6929722  29.7791672
  15.2899754  26.3578796  26.8492055  15.3808784  25.4398084  26.5940285
  16.1266041  26.7568564  26.6102457  55.2917403 111.0499995  74.6657303
  54.7044713 110.3500407  74.9510386  55.5004770 111.5292495  75.4675916
 101.7043932  34.2043471  40.9888744 102.5366266  34.5133352  41.3468456
 101.7983206  33.2524943  40.9516716  31.3611174  87.8883308  85.7274237
  31.7820317  88.5790246  86.2392869  30.6719113  87.5519388  86.3001957
 116.1665404  35.9816551  29.5501065 116.5264945  35.7825327  28.6858058
 116.8487810  36.4966774  29.9808383  94.1348763  47.9241467  50.5661583
  94.1182704  48.8641548  50.3863239  94.9688096  47.6255751  50.2033377
 114.0232615  49.5546246  30.9932351 113.8290374  50.3502083  30.4976988
 114.1697697  48.8856697  30.3244567   6.1689454   7.4932933  30.4836035
   6.0965109   7.1870661  29.5796061   7.0149338   7.1597522  30.7824111
 108.5366197  54.0423918  40.9984922 108.0196984  53.2564831  41.1756039
 107.9226346  54.6425962  40.5753946  20.9225321  35.6578994  38.3913946
  21.4550233  34.9043226  38.6459661  21.5541959  36.2971640  38.0618930
   4.8888904  31.2749457  21.7103243   4.1693962  31.2296343  22.3400116
   4.6393445  30.6638527  21.0171270   4.2136967  50.2980852  32.4351335
   3.8224187  49.7882891  33.1445289   4.6237051  51.0435295  32.8738070
  25.7470655  28.8522553  18.5555470  26.6972613  28.7897062  18.6527443
  25.4500604  27.9431915  18.5152996   4.0770322  80.2255058  68.2488251
   3.6182991  79.6740389  67.6150370   3.7382406  81.1064148  68.0892849
 102.0801242  23.4599519  69.0927029 102.8368981  24.0441108  69.1404915
 102.0238705  23.2159400  68.1688404  92.9148216  61.2321281  31.3836241
  93.6588402  61.8135977  31.2269068  92.5779314  61.4994001  32.2387862
   7.0432603  29.1647649  28.9396167   6.2151772  28.7332702  29.1501451
   7.5138968  28.5295701  28.3999324  20.2059531  54.2720556  38.6548781
  19.6909928  54.9677849  39.0635443  20.8480787  54.0265703  39.3209457
   7.7135068  63.4909630  53.9036226   8.6104095  63.1637669  53.9724779
   7.7170235  64.0356541  53.1165218  23.4187818  81.1397934  31.3364553
  24.1188049  81.3749409  31.9454765  22.7214384  80.7955074  31.8944907
  32.5611925  62.4162149  69.0202618  32.6642799  62.3920631  68.0689383
  32.0221162  61.6514730  69.2222548  95.0480957  62.3495626  59.1845179
  94.4133444  62.5902700  59.8593378  94.7727604  62.8408813  58.4105444
  25.0800681  38.1710076  37.4790764  25.6745863  37.8429127  36.8044400
  25.2262211  37.5936961  38.2284641   1.3475803  30.8759332   2.0126879
   2.0341347  30.2605319   2.2698988   0.7378139  30.8765912   2.7505338
  38.9414907  46.9369221  37.0981884  39.5358396  46.2115574  36.9062829
  39.5101500  47.6304293  37.4327135  20.0346899  42.0881987  66.3587332
  19.4032443  41.4998674  65.9447622  19.9980938  41.8630409  67.2883558
 113.0767281  53.9295006  48.2836151 112.1248765  53.9096022  48.1845474
 113.2171316  54.0840340  49.2177677  25.0411725  53.9912033  47.8004694
  25.7631660  53.4384203  48.0994511  25.1101327  53.9796782  46.8458271
  10.4964185  69.7801399  50.4641962   9.9091464  69.1989374  49.9809313
   9.9137765  70.3151369  51.0032177  35.4970167  78.8512748  94.9656184
  36.0378516  79.4989246  95.4175918  35.6259963  79.0384668  94.0358034
  95.9777184  49.9216461  36.9255447  96.6755815  49.7684669  36.2885547
  95.1723523  49.7075319  36.4546180 101.1161752  33.4766817  13.2405734
 102.0000584  33.2344055  13.5167694 101.2083919  34.3640900  12.8938258
 116.9681698  55.8510399  93.5397243 117.1772304  56.7244625  93.8708782
 117.4794909  55.7714796  92.7344513  10.3040671  28.7930775  30.4056740
  10.6329978  29.1676497  31.2228203   9.8021567  28.0252552  30.6791115
  24.4567347  65.1992512  40.8045053  23.7659168  65.3903818  41.4389086
  25.0212169  64.5664072  41.2484646 108.4015585  69.0987682  71.2670994
 108.5312028  68.1679058  71.0856724 108.9528926  69.2731762  72.0298862
  21.0879135  36.1363983  34.7560501  21.6415238  36.1747003  35.5359745
  20.5273199  36.9094515  34.8220563 112.2403969  28.7925959  52.9315948
 112.9165132  28.3672953  53.4590578 111.6287388  29.1544986  53.5727882
   4.9797991  21.8948269  18.5988569   5.8281368  21.4805126  18.7566483
   4.4696835  21.7034101  19.3858600  19.3538988  61.7343473  17.2194743
  18.8929319  62.1082783  16.4685297  18.9949751  62.1980906  17.9760134
  85.6801338  49.9006224  47.5234938  85.0842710  50.5308962  47.9283857
  86.4285679  50.4260969  47.2407293 114.2711972  41.6909313  68.0183935
 114.3860088  40.7996941  68.3481550 114.3380703  42.2446203  68.7963343
  12.5877166  66.5550947  49.7621250  12.5350940  65.6281328  49.9949551
  12.0380926  66.6378832  48.9828396 116.8412565  36.0417247  26.7335296
 116.7426766  36.4899826  25.8935428 117.7180768  35.6592870  26.6994739
 110.4596968   8.8084984  52.8549051 110.7563378   8.0064470  52.4248505
 109.5587309   8.9231712  52.5526762   3.0177674  81.1083031  25.5674839
   3.2638463  81.2566566  24.6544290   2.1489048  80.7095337  25.5196142
   9.6926612  30.9687734  56.4591169   9.3202275  31.4721704  57.1830750
   9.0494609  30.2802825  56.2902832 115.4226415  19.5007443  39.2521143
 114.9556179  20.1794791  38.7648368 115.7536173  19.9493277  40.0302267
 114.5390905  32.3701596  50.3856039 114.6813844  32.2814584  49.4432068
 114.1328819  31.5432715  50.6453753 113.7736033  55.3372288  36.4405179
 113.8014696  55.7849455  37.2860980 112.8853770  55.4896641  36.1179519
  11.1223471  30.8919787  66.6145515  10.6480384  30.9513688  67.4438524
  11.1674213  29.9536061  66.4310837  10.4946172  39.9737000  46.1039114
  10.4238093  39.4715929  45.2920580   9.7481263  39.6858907  46.6294146
  13.0826819  11.1880422  21.2347484  12.4433649  11.7937589  20.8597636
  12.5535345  10.5312324  21.6873360  98.9272650  24.2769217   6.5206122
  99.7482665  23.7855220   6.4938873  98.2480128  23.6052871   6.5818602
  18.0795920  26.0522532  22.3357368  18.8414514  26.4082527  21.8785000
  17.4689806  26.7872524  22.3919868  40.6244946  62.6096821   6.6287923
  40.3403091  62.8797150   7.5020349  40.4477835  61.6693926   6.5995133
  16.7411208  39.4182754  32.5221968  16.6458833  40.0870371  31.8440247
  16.1062169  38.7429118  32.2834229   3.8152045  29.1308904  32.0621014
   3.3872807  29.4225311  32.8671217   4.5458484  29.7382116  31.9456816
  12.2632468  44.4734764  32.3456717  12.2151685  43.6113310  31.9325972
  11.4607692  44.9163437  32.0697546  17.1231639  34.7442126  46.4012527
  17.4743450  34.4641638  47.2465181  16.5076327  35.4445457  46.6177845
 109.2957390 102.1084733  43.5192394 109.1877092 103.0585499  43.5630178
 110.1934041 101.9834221  43.2113600  37.2166467  45.3744745  52.3136234
  36.6369033  44.9427748  51.6861153  36.9010282  46.2774372  52.3493719
  13.2176721  62.2396946   4.3876135  13.5492933  63.0660200   4.7389612
  12.3800087  62.1094227   4.8321152   5.3964931  33.7633204  23.0547452
   4.9581927  34.1513014  22.2973847   5.2978563  32.8192997  22.9309368
 114.6791004  20.4450011  42.7757359 114.7702162  20.9537458  43.5814095
 114.1050316  20.9741640  42.2219610 110.0616504  10.8994377  40.0841999
 109.4423528  10.5497181  40.7248259 110.4437496  11.6648674  40.5135632
  34.8805451  75.8150196   0.9906724  34.5567918  76.7027473   0.8378374
  35.6505680  75.7405424   0.4269793  17.3928273  74.7247553  15.3274751
  17.0607734  74.0300608  15.8961332  17.7546859  74.2627859  14.5712519
  19.8632705  39.2448902   2.0270798  20.0035763  40.1393414   2.3377207
  19.2333627  39.3356943   1.3120961   2.5463203  18.8562703  12.6000071
   2.7830589  18.0268657  12.1849477   1.9655365  18.6071408  13.3189332
 111.7299451  59.0621185  45.6018829 112.0167072  58.7012577  44.7629690
 111.6361113  60.0007391  45.4393387 102.2592874  62.6606703   2.7786672
 102.8387411  63.4225273   2.7849421 101.6467757  62.8196955   3.4968409
 116.6870250  80.4628849   7.2629046 115.8837785  80.9026909   6.9843358
 117.0433433  80.0835419   6.4595580  37.2485614  24.0274239  40.0042725
  36.6152072  23.3912349  40.3364754  38.0507517  23.5215211  39.8747110
  13.4669793  71.1229324  19.2551219  13.8755620  70.4352045  19.7807872
  13.5592961  70.8205605  18.3516395  43.6086035  50.3872395  36.0987043
  43.9085340  50.2647209  36.9994068  44.1755342  49.8183107  35.5779958
  17.6515651  41.2855434  26.2999558  17.1989167  41.6025066  27.0815420
  17.2303116  41.7476845  25.5752468 115.1991804  54.1647387  12.8160059
 115.8696200  53.6292696  13.2402933 115.6274028  55.0067854  12.6617002
  30.1649117  48.2442474  29.0187240  30.7271218  48.6141253  29.6994185
  29.3001223  48.6148930  29.1947794  25.1501322  63.2558632  44.4469738
  26.0095286  63.1548452  44.0377474  24.6920609  63.8851929  43.8898849
  60.2518756   4.1046004  55.9713364  59.6033937   3.5308128  55.5633354
  60.9445364   3.5126929  56.2647581  22.1688533  59.9547338  19.9797761
  21.2895012  59.6148682  19.8140574  22.1907020  60.1125431  20.9236240
   2.3147850  35.1656246  43.3362913   1.9003066  35.1207066  42.4746513
   1.9801506  35.9756660  43.7211084  27.8623080  44.7870779  46.1591101
  27.9711294  45.2519274  45.3294706  27.0785165  44.2522907  46.0329962
  11.5576136  51.4210987  60.3113699  10.8427858  50.7983780  60.1791668
  11.3000298  52.1922064  59.8061228   5.8864087  26.5098333  59.8338747
   5.6113088  27.4222350  59.9237394   5.7708526  26.1376119  60.7081318
  35.3377724  46.1509848  17.0654714  34.5249438  46.6546631  17.0224917
  35.1435757  45.4339266  17.6690805   6.8579435  61.8163776  25.1948881
   6.7639410  61.4379883  24.3206930   7.4516505  61.2202263  25.6513405
  24.5980406  50.4774237  25.5900931  25.4413700  50.0252676  25.5658484
  24.1021085  50.0983953  24.8644090  11.8941987  43.4215832  90.0130653
  11.4848280  42.9370022  90.7298946  12.4321330  42.7715635  89.5610332
 116.3465118  58.2717085  35.0689769 116.1054850  57.9447794  35.9357262
 116.2974889  59.2242002  35.1501083  31.8094652  19.5275639  84.7760919
  31.7997425  19.3039988  83.8454166  30.9957379  20.0122498  84.9145010
 114.6005808  77.1553183  45.0540257 113.6520021  77.2511673  45.1391315
 114.9559359  77.9748917  45.3979063   1.3005783  59.0771914  28.1359410
   0.6262226  59.2931747  27.4918699   1.2082169  59.7471952  28.8132858
 108.7456550  33.4907866  34.7587800 109.6592231  33.5126400  35.0436449
 108.2713504  33.9698124  35.4383421  44.3279171  47.0112181  22.5942802
  44.0778589  46.1098433  22.3912358  45.2467728  46.9517422  22.8558159
  21.8548059  96.0631180  65.1737642  21.8970084  95.5155468  64.3897867
  22.5648808  95.7413387  65.7291698  94.7056670  69.0766525  78.2385874
  93.7876172  69.2672920  78.0460453  95.1007195  68.9117908  77.3824453
  31.5596509  50.7541752  19.3474293  32.0785356  50.2401161  19.9660861
  30.6510615  50.5573130  19.5753324  32.9885936  62.7033758  36.7547202
  32.0963359  62.8047562  36.4233184  32.9500103  63.0349541  37.6518250
  34.2748713  47.7440977  36.0906196  34.0340447  48.6197901  35.7882977
  34.6446609  47.8848934  36.9622064  31.2436748  54.0882730  40.4185534
  31.1242533  53.2112265  40.0541925  32.1888256  54.2355585  40.3834724
  22.0870566  68.2792139  51.6577101  22.6052475  68.8482523  51.0885859
  21.2267733  68.6972332  51.6952038  87.7687521 110.9321849  29.2833066
  87.4208880 110.0801682  29.0200758  87.4925668 111.5289297  28.5877132
  14.4788325 103.5928535  42.7431011  13.8802075 103.6616802  43.4868383
  14.5644319 104.4900513  42.4207163 113.3523525  63.4283352  17.3258555
 112.8096063  63.0006266  16.6634929 112.7248360  63.8291359  17.9273653
  28.0636883  48.8225555  46.1753607  27.1346951  48.8970327  46.3936615
  28.2235336  49.5389462  45.5609798   8.8845605  50.4553604  26.4094138
   9.6117157  49.8451233  26.5322471   9.1313434  50.9705114  25.6413341
   9.2944551  71.2981319  52.7822161   9.7660291  71.7889643  53.4552193
   8.4024453  71.6438341  52.8144646  31.0420775  54.9306870  28.6035180
  30.8082843  54.0227652  28.4105134  30.2285910  55.3260803  28.9167929
  14.7698748  56.2098837  38.2606292  14.0923870  56.8802547  38.1720781
  14.3864810  55.5579281  38.8473105  12.7657747  71.3260651  49.2538118
  12.8700769  71.7374802  50.1117706  11.9096363  70.8999634  49.2950058
  28.9897901 106.0590070  82.4198690  29.5818896 106.6958278  82.8199997
  29.5675391 105.3768914  82.0775869  23.9618659 102.8554821  35.5900335
  24.1739297 103.2260513  34.7333312  23.1106329 102.4358368  35.4654121
  45.3569651  43.7703466  41.3761425  45.2387333  44.7138357  41.2662029
  44.4677448  43.4252834  41.4564562 105.2973230  49.0197420  32.7215099
 106.1621518  49.1090059  33.1219292 105.2612038  49.7207212  32.0707035
  23.8436270  47.9536581  14.0988708  23.1803036  47.3445654  14.4232738
  23.4453559  48.8180780  14.2008150 100.8576091  45.5579853  38.5569787
 101.5281220  45.1357698  38.0199695 100.0687070  45.5371046  38.0152869
  10.4267097  67.1914768  35.0890636  10.5376565  66.6978645  34.2764902
  10.0073981  68.0080986  34.8178840   1.4253309  40.3544664  38.2289028
   1.1475432  39.4417048  38.3059168   1.6416541  40.4616547  37.3026490
  35.7993984  42.7343321  56.9008350  36.6742134  42.4361372  57.1498537
  35.2879167  41.9299412  56.8138075 115.9134638  51.0900879   7.5221068
 115.7009078  51.5059614   6.6865820 115.0733597  51.0204172   7.9755414
  38.2000566  57.9285192   3.3748952  37.4039245  58.1087494   2.8749737
  38.8854909  57.8453732   2.7119485  13.4665060  60.2010632  44.9820805
  13.8871205  60.7089949  44.2883062  12.5375521  60.4202795  44.9098301
  41.0832357  35.4711962  27.9808402  40.1401377  35.4879665  28.1436658
  41.3455343  34.5734596  28.1845617  32.9931784  49.3477058  30.2917409
  33.6260128  49.6794939  30.9286618  32.3475337  48.8767719  30.8186150
   7.3422116  82.3740005  15.7657158   6.7913473  83.1479359  15.6481659
   8.2314187  82.6848698  15.5956984  98.0548597  34.7858141  75.9477213
  97.1667207  35.0151633  75.6741574  97.9664207  34.5430849  76.8693998
  18.3954704  41.0858011  18.6809778  17.5514138  40.8594322  19.0715623
  18.8290417  40.2436733  18.5428870  35.2789855  57.8068542  33.9246678
  34.3946195  58.1438875  33.7813687  35.8527732  58.4666252  33.5351729
  13.2665205  48.6538363  39.0379691  14.1518164  48.2931614  38.9889812
  12.6934326  47.9053545  38.8719010  22.2299147  71.6508961  24.0727401
  22.3099542  72.1001816  24.9141502  22.3006821  72.3484278  23.4210753
  48.0741549  60.4142046   8.2738930  48.6502838  60.5937767   7.5308877
  48.2657814  59.5070553   8.5117930 100.4991086  27.9502940  11.7408037
  99.6104307  27.5959921  11.7099285 101.0287578  27.2377110  12.0984757
 113.0774482  48.0865860  44.0218687 112.7175577  48.9625978  44.1608334
 113.5079040  47.8704977  44.8490620  28.4464002  62.2899055  41.0019493
  28.6128449  62.9950047  40.3763580  29.3046880  62.0968390  41.3791704
  17.5710559  68.3014345  51.3170576  16.8432605  68.3507586  50.6972933
  18.2087350  67.7275705  50.8924723 101.7236228 104.9495125  27.2183990
 102.1465917 105.3967953  26.4854121 101.1103232 104.3411827  26.8060565
 115.6099342  50.0356770  14.4547582 114.9045913  49.4378233  14.7023296
 115.6678243  49.9565601  13.5025918  93.9528669  24.2082070  89.5988449
  94.7811724  23.7346600  89.6756044  93.5022987  24.0383242  90.4261055
  26.3556790  37.7039433  19.4161439  27.1909356  37.3086548  19.1664934
  26.4730334  38.6387396  19.2469800  12.1075642  81.5268040  37.3179579
  11.3526428  81.4053440  37.8937793  12.2775304  82.4685097  37.3412919
  24.9920726  58.1124496  46.3733625  24.7233200  57.7367640  47.2117281
  24.2729163  57.9053688  45.7765675   5.7993108  60.5314970  22.9119921
   4.8733217  60.3584242  23.0817676   6.1487007  59.6923923  22.6118827
   4.7601894  35.9936023  34.5884705   5.0739455  36.8663335  34.8253870
   3.8935626  36.1448765  34.2112374   7.0379603  43.8971281  52.5209999
   6.9407481  44.5546818  51.8322277   7.5960344  44.3167925  53.1757259
 118.0876511  56.4751387  14.1053367 117.2488700  56.5948105  13.6599648
 118.5566902  57.2963285  13.9574015 112.9107614  80.1552200  37.1514297
 112.3186274  79.6733952  37.7288818 113.7861292  79.9451542  37.4767494
   4.4164526  68.3119154  45.5201817   5.2661848  68.6608601  45.2510595
   3.9804938  69.0478611  45.9497833 110.1978482  53.2370949  47.3750448
 109.2520590  53.3724451  47.3167753 110.3343834  52.3519230  47.0373058
  87.1254297  41.3966227  20.1770377  86.8113179  42.1584606  20.6640387
  88.0469151  41.5875387  20.0019693 112.2784503  72.2924805  14.7066438
 111.5601613  72.8439474  15.0167680 112.8354569  72.8857088  14.2026055
  26.4842248  50.4711437  34.0686440  27.0526409  51.0819912  34.5376897
  26.1728144  49.8676395  34.7432089   2.5995669  56.2251472  38.7747884
   2.5308657  55.8807659  39.6652460   3.2733569  56.9026709  38.8313413
  17.3259318  43.6341190  35.8058786  17.2525918  44.4096565  36.3621140
  17.9546773  43.8836813  35.1286578   4.9711406  38.8383651  34.9928784
   4.7913146  39.3085003  35.8070445   5.8550030  38.4894156  35.1080084
   1.4766812  34.0037942  46.4406919   1.2576236  33.8863945  47.3650646
   1.0746344  34.8394632  46.2035322 101.4177568  91.1431408  29.5585489
 101.1369856  90.2330494  29.4630075 101.2902041  91.3369083  30.4872108
  21.9678164  19.1999447  26.9587326  21.1786628  18.9559054  26.4750862
  21.7848754  20.0802636  27.2870636  16.2561154  76.6872120  27.0650578
  15.4800737  77.2474861  27.0559263  16.9809783  77.2850132  27.2479224
  70.6438000 110.9536737  90.8485636  70.3191668 110.3337234  91.5016404
  69.8555166 111.2757056  90.4113725 107.0965512  81.2551403  55.6177521
 106.6574211  80.6345558  56.1993551 107.5616844  80.7048798  54.9876022
  33.1187606  58.3357191  32.1490169  33.6486459  57.9405785  31.4566898
  32.7319694  57.5908566  32.6092434  14.1860771  99.8603725  64.4333363
  13.8074791 100.7345390  64.3398285  13.8914728  99.5625877  65.2940130
 108.2403202  40.9405613  85.0200653 109.1356863  40.6054783  84.9724293
 108.0596240  41.2672138  84.1386509  32.6189613  56.3626289  11.6253996
  31.6638446  56.4134932  11.5880668  32.8848934  57.1708202  12.0639622
   4.0071893  26.0227561  25.3985929   4.2624420  25.1781178  25.0275660
   4.8233354  26.3932490  25.7345581  10.0737286  65.1885700  72.4189234
  10.8750641  64.6752310  72.5217628  10.3623486  66.0033464  72.0077419
  25.2032375  46.5850019  49.6004725  25.9467387  46.4394855  49.0154409
  25.5579710  47.1208382  50.3098917  18.1676888  83.6379051  36.3694739
  18.2149625  83.8766575  37.2952127  17.7360046  82.7835941  36.3642025
   8.6641258  40.3949165  27.2285485   9.2252922  39.8505044  26.6763330
   7.9640198  40.6866693  26.6446304   0.4755423  53.6900282  46.0106039
  -0.0854571  54.4548941  46.1390305   0.0723746  53.0050278  46.5439510
  28.7166047  66.6398478  18.4078109  28.7003350  66.6666317  17.4511230
  27.8161216  66.4317751  18.6569405 112.2658093  42.9099274  41.2892437
 112.6373352  43.4959602  41.9486141 112.2769542  43.4216976  40.4804182
  19.7810936  68.3159542  48.8248253  19.5503891  69.1822290  49.1603422
  20.4437375  68.4869766  48.1555843  36.9892859  16.5939045  27.0607543
  37.6782560  15.9429085  26.9274974  37.3593903  17.4077547  26.7188430
  13.3073366  26.3282585   0.5121391  13.0289590  25.5978155  -0.0402993
  12.5024450  26.6308498   0.9326373  15.0755942  83.1946278  32.8906369
  15.0889003  84.1090202  32.6078796  14.1597557  82.9302883  32.8034997
  18.9646816  33.4420848  18.7984991  19.6509814  33.4255815  18.1314528
  18.1623662  33.2288527  18.3219981   5.9449118  96.0416794  31.2264657
   5.6961167  95.2952671  31.7716265   6.0589677  96.7628765  31.8454146
 116.9251093  91.5470505  52.4394321 116.1697172  91.8884659  52.9180288
 116.5520580  91.1611843  51.6468620  19.5285213 101.8293381   2.4419354
  19.0479183 102.6130295   2.7085313  20.1517582 101.6773319   3.1523585
   0.2500900  25.9520912  23.0095077   0.1495494  26.7234230  22.4516797
   0.5919609  25.2761817  22.4242711   7.8626257  70.5500889  47.2602654
   7.1664435  71.0654783  46.8529129   8.6002165  71.1562300  47.3294067
  32.1935463  35.0157070  34.5915866  31.3494945  35.3475714  34.2855215
  32.3630762  35.5008316  35.3991413   3.0569077  64.0767193  23.6270571
   3.3625382  63.8316727  24.5004249   2.6270235  63.2890081  23.2939768
  13.1074297  84.3879128  48.6290407  13.4095407  83.5153103  48.8810825
  12.1811140  84.2692757  48.4190464  64.7294474  62.3588610  24.3682384
  65.4619503  61.9917917  23.8733292  64.6758080  61.8159533  25.1547527
  28.6704922  95.2902317  41.0899544  29.2282915  96.0667896  41.1351776
  28.1441736  95.4190063  40.3008842  30.4406840  92.6283758  85.1110044
  30.5256504  92.2341459  85.9791031  29.8809606  93.3925574  85.2487317
  19.4602287  55.3678513  65.3889751  18.7377965  55.6555319  65.9471512
  19.2417252  54.4641924  65.1611757  22.0879388  75.1542711  24.7980738
  22.3374724  74.4138193  25.3509712  21.4774132  75.6592226  25.3352070
   7.6414448  87.9637527  41.3395691   7.0747733  87.8582382  42.1037531
   8.1416821  87.1487331  41.2979650  16.4703572  54.0388250  37.1452165
  16.4984453  53.0954647  37.3049521  15.6691587  54.3315363  37.5795341
  29.8741174  73.8007736  22.5334573  29.5903563  74.6770859  22.7938271
  30.7063794  73.9426661  22.0824122  42.6227760  98.2395935  55.8425713
  42.4145651  97.7856731  55.0259733  41.7744255  98.5277939  56.1794329
 107.4508496  46.1615515   2.2684300 107.9094036  46.8723011   2.7165276
 107.1355958  46.5552759   1.4549018 118.2200756  56.7795801  25.8395219
 118.1048319  57.7025652  25.6135726 117.6443938  56.3113022  25.2349234
  20.7100272  41.3428307  34.3140984  20.2407813  42.1745014  34.2480731
  20.1369071  40.7095051  33.8820553  23.4100175  58.4544230  57.4770784
  23.6133003  58.5254431  56.5444136  24.0977216  58.9592171  57.9112196
 103.7055434   8.1156491  85.3120234 103.8796557   9.0492581  85.4315808
 102.8096331   8.0800818  84.9768939   3.6910033  59.8313475  40.3587675
   3.1265396  60.4984188  39.9680972   3.9899012  59.3059301  39.6165895
  44.5088291  39.5327854  45.5433893  43.9824057  39.1695189  46.2555361
  44.1154146  40.3872871  45.3665304   0.9052818  44.8332357  25.4824519
   0.6465594  44.9431324  26.3974476   1.8552460  44.7201014  25.5140901
  23.9733267  23.0416107  38.0775738  23.4441924  22.5686312  37.4352837
  23.3592987  23.2621288  38.7779832  42.0488453  67.1821928   0.4402185
  41.9352293  66.2742186   0.7211166  41.5618181  67.2413588  -0.3816900
  51.1673021  24.6646214  19.2361093  51.9459057  24.1094470  19.1938531
  51.3108778  25.3301430  18.5632813  29.3175149  33.0166149  17.9661775
  29.8510289  33.6295962  18.4719920  29.9350905  32.6024747  17.3634171
 104.9217887  73.3535385  12.8032231 105.3004797  73.9655495  13.4343088
 104.8612852  73.8548803  11.9900632 115.4086439  62.8074694  37.4184942
 116.1891763  63.3486748  37.5372291 115.2377207  62.8368902  36.4771390
   7.3040700  85.6039238  53.6299515   8.2101291  85.4468727  53.8957024
   7.0398670  84.7957039  53.1904030 110.8864279  35.8365846  45.8798695
 111.3060917  35.1098967  46.3403463 110.9554298  36.5752196  46.4847612
 109.2182113  52.8562260  38.3071804 108.9785202  52.9951859  39.2234087
 108.6266704  53.4261656  37.8157711  11.0593927  65.9080505  41.0048151
  11.8648934  65.3922892  40.9674978  10.4132473  65.3771162  40.5391550
  29.9207520  37.3287487  36.7798758  29.5587468  38.1950045  36.9663811
  29.6319366  37.1354198  35.8879995 103.3191319  82.4929333  12.2620559
 102.5164314  81.9762421  12.3322594 103.4703500  82.5737667  11.3203394
  34.5866036  42.3001337  33.3270097  35.2058768  41.8788815  32.7309561
  35.0462246  42.3329115  34.1660023  11.3696671  58.8219929  41.4853573
  11.4034176  57.9641294  41.0620832  12.2462535  59.1855145  41.3601351
  82.7739520  30.5742413   3.8782188  82.5579495  31.3758332   4.3547031
  82.0403216  29.9854047   4.0550968   7.5933403  54.4437647  40.4759550
   7.6106125  53.6227608  39.9841309   8.4669185  54.5104218  40.8615065
  24.7564721  59.8353004  39.6652937  24.0017414  59.5220613  39.1667986
  24.5266032  60.7316971  39.9099541  82.0049758  51.1828327  32.4705553
  81.9884439  50.7910395  31.5973687  82.6046605  51.9244289  32.3890114
   9.9427181  63.8174868  11.8326962  10.7591140  64.2137051  11.5281630
  10.2222693  63.0930662  12.3924291  82.2903414  70.8079815  40.8353949
  81.3485403  70.9781647  40.8521318  82.4496336  70.4273176  39.9717093
 113.5212965  76.1086130  10.5507624 114.1456006  75.5271339  10.9847677
 113.7669425  76.9858789  10.8445191  24.0200686  72.5901890   7.9380929
  24.0416479  73.3146334   8.5633457  23.9323854  71.8071938   8.4816617
 110.8894332  59.4390678  51.4796209 111.6224463  58.8237000  51.4637995
 111.1122967  60.0941038  50.8181906  21.0913491  62.6441860  49.2059517
  20.8936667  62.2435713  48.3593893  20.6307745  62.0978642  49.8428488
  14.6865714  64.2382336  27.4876809  13.7495220  64.0502977  27.5410748
  15.0416899  63.5335684  26.9458628  64.6182782  90.5164211  93.2542553
  64.6236593  90.9607309  92.4064386  65.4633266  90.7373493  93.6458126
 116.5842621  65.0211716  17.1369624 116.3786188  65.0469351  16.2024689
 115.8575927  65.4832077  17.5549424  20.4763055  65.2832174  48.0107594
  20.9740925  64.7043085  48.5880852  20.0658154  65.9150314  48.6011362
  17.2059453  56.4438725  32.6157117  18.1374145  56.3130999  32.4382401
  16.9476998  55.6726265  33.1204081   2.3076148  52.2340965  66.7423868
   1.8297866  53.0011940  67.0577765   1.9760624  51.5102339  67.2737360
  35.2133393  25.4248643  51.2205601  34.6040726  24.7364450  51.4872169
  35.2923536  25.3206706  50.2723360  31.9438100  42.8203630   9.4360405
  31.6860032  43.4555769   8.7680024  31.6778612  41.9738674   9.0769553
   9.1847211  62.0284605  51.1523247   9.4320261  62.9357290  50.9735966
   8.8363540  61.7069149  50.3207684  27.7505684  68.5170269  32.9918957
  27.6083088  68.1975412  32.1008706  28.4947991  68.0078363  33.3129501
  14.3270731  50.9356165  49.3354750  14.7221565  50.0876284  49.5381021
  14.8486888  51.5673018  49.8305750  15.1742637  49.5087481  32.4348712
  15.4862988  49.6961880  31.5495825  14.2572403  49.7830868  32.4287033
   5.1343954  43.1359005  36.0759711   4.5831907  43.9176941  36.0413098
   4.5960400  42.4458933  35.6882858  42.1153975  26.9145989  13.3116663
  42.9548454  27.2077346  12.9572153  42.0109701  26.0246181  12.9751253
   4.1668594  75.4104567  40.0358009   4.9639329  75.9394312  40.0688028
   4.4745585  74.5256805  39.8390150  39.0718126  53.5770416  44.5898914
  39.2450094  54.3506432  45.1263428  39.9156833  53.1283474  44.5371246
  13.2048905  60.7602024  29.2632914  12.3779285  61.0422707  29.6541929
  13.2667577  59.8297071  29.4791102  21.0025978  56.0822248  18.7174988
  21.1693072  56.0752583  17.7749538  21.8555641  56.2678099  19.1102290
 107.4173756  35.3625846  53.4714985 108.0258675  34.7718596  53.0276346
 107.5706048  36.2149191  53.0637264  24.9343777  64.6663189   9.2749381
  25.1490116  64.1648531   8.4883672  25.3015566  65.5352640   9.1126156
 110.1548882  73.1478357  52.6729107 109.2431684  73.4262371  52.7594709
 110.2335365  72.8651857  51.7617798  29.3829989  65.3214216  27.9152656
  29.4323921  65.4568529  28.8615489  29.6815395  66.1493492  27.5389147
  24.1374326  32.8146911  19.5105898  25.0614667  32.5751615  19.4397676
  24.1257024  33.7635946  19.3853831 116.1779776  40.1257801  32.5923252
 116.6372888  40.8908081  32.2459173 116.7624669  39.3909383  32.4062753
 108.5024299  63.6632967  45.3450775 108.6392821  64.5758533  45.5995321
 108.8346465  63.1557798  46.0855436   0.9343848  53.8633156  40.0142479
   0.9977245  54.4887257  39.2923880   0.2595317  53.2440758  39.7361279
   4.4665936  28.2919407  20.8353972   4.4211033  28.8906288  20.0899220
   3.5543668  28.1631899  21.0952020  31.1025882  48.1491661  31.7309809
  30.9462285  48.3080006  32.6618695  30.9263825  47.2155762  31.6143942
  19.9986494  68.7026691  60.2182674  19.3508577  68.7269640  60.9225464
  19.6779585  69.3357468  59.5759296 107.7766283  73.9889526  35.3770161
 108.2454891  73.1562376  35.4316449 107.2585089  74.0252876  36.1810470
   2.8404769  40.0727510  28.8332057   3.5121614  39.6016622  28.3401060
   3.1467003  40.0471401  29.7397399  92.5547190  40.3953409  43.1615257
  92.9670854  41.2142420  42.8866053  92.4824519  40.4711866  44.1129780
  -0.3043459  67.0604038  24.8150945  -0.0464973  66.4436007  24.1300416
   0.5075828  67.5087881  25.0516462   3.6186147  46.1417818  24.1301155
   2.7265269  46.4361668  23.9464068   3.6112285  45.9219742  25.0617075
   9.9979383  80.4778194  59.7178173  10.8779728  80.4369259  59.3435192
   9.7629243  81.4048004  59.6764803  27.3036122   4.7985315  24.8560190
  26.9938469   3.9339858  24.5861340  28.2367921   4.6751255  25.0297403
  21.9455290  83.2730961  21.7266822  22.6039553  83.9677620  21.7383075
  21.9980812  82.8786850  22.5972652  30.6707168  63.3517742  23.3541656
  30.6435633  62.7691841  24.1131663  30.0042105  64.0141153  23.5366631
  29.2208672  54.1402149   7.6017618  30.0318027  54.6156931   7.4213737
  28.5266280  54.7324371   7.3127335  14.7584748  61.5920115  42.6087809
  15.5499113  61.9533062  42.2096300  14.4958389  62.2471142  43.2553768
  11.3066363  74.3687773  42.0387316  10.3892660  74.6419859  42.0434809
  11.5386367  74.2925406  42.9642534 101.1604758  96.2999630  47.0038366
 100.4812772  96.8100357  47.4451351 101.8497617  96.9354248  46.8106937
  12.2836053  57.7044249  22.9828739  11.9665337  58.2045841  23.7348962
  11.4980817  57.2972870  22.6176000 106.2690218  62.1142578  10.6799841
 106.0915084  61.1938143  10.8736396 105.4090722  62.4891806  10.4898453
   7.9955190  45.0093794  57.7807283   8.0469841  45.8199787  57.2742605
   7.4264264  44.4394827  57.2634459  32.0707154  43.2235813  59.4791508
  32.3630309  43.8772488  58.8439369  31.1616111  43.0453634  59.2383194
 107.5473602  40.6901932  47.1986580 106.9669469  41.1713743  46.6088963
 107.9404958  40.0130749  46.6480303   4.6739256  65.7610226  53.6285067
   4.5055047  66.4407778  52.9759741   5.2527666  66.1791182  54.2659807
  15.1030433  38.3689618  26.4917684  15.9629631  38.1282616  26.1470461
  15.2757215  39.1140342  27.0673370 111.6129018  47.7901745  24.6509981
 112.0545073  48.0716038  23.8497400 111.3938226  46.8717384  24.4937968
  23.7227821  78.4330082  10.3812146  22.7961326  78.4341335  10.6211162
  23.7411809  78.0635929   9.4983649 117.6440458  93.8530254  43.6196899
 117.3006315  93.2910442  44.3142891 117.8939533  93.2466030  42.9225349
  47.9530716  63.2332373   8.5894650  48.3513117  62.3681498   8.6856830
  47.6030159  63.2380152   7.6985824  11.1985946  73.7298393  61.1689234
  11.7514563  73.6259651  60.3944683  10.9993124  74.6656370  61.1971760
 115.1083369  48.2542372  24.3989968 115.0696595  48.9836359  23.7803650
 114.6933691  47.5259304  23.9368224 108.4175326 102.8427601  35.6310558
 107.9412468 102.9967690  34.8151708 108.7074788 103.7122822  35.9069204
  96.3962902  17.0777987  92.8140649  95.8526672  16.3103770  92.9922932
  96.0348440  17.4452589  92.0074904  11.2558484  66.4350891  13.8298357
  10.3270578  66.2500715  13.9689338  11.6694891  65.5725288  13.7963104
  50.0387287  74.0260506   6.8146175  49.3428373  73.9383459   7.4659842
  50.7939959  73.5917377   7.2110653  48.7790573   7.6671367  49.6552801
  49.3048448   7.0690589  49.1241693  47.9700762   7.7820163  49.1566992
  22.7320814  91.9295311  40.5994987  21.9746161  92.4880028  40.7743835
  23.3972430  92.2267723  41.2203360  34.7824764  90.0537014  11.1858952
  33.9856720  89.5269108  11.1240613  34.5890188  90.8412075  10.6773245
   9.7875476  77.6619291  38.3887911   8.9896870  77.3583317  37.9558015
  10.0867975  76.9073009  38.8959646 110.0228496  78.5093260   8.7248594
 109.6210231  79.0695667   8.0608571 109.2914517  78.0165672   9.0969861
  26.1045885  66.9609737  16.9615877  25.3523493  67.4224615  17.3322582
  26.3867211  67.5110435  16.2307990  29.0122509  96.6087246  36.0998750
  28.8070059  95.6737900  36.1032319  28.1848097  97.0363808  36.3205194
  57.2514457  24.1077666  75.3077221  56.9124645  24.3434386  74.4441366
  57.6027316  24.9261050  75.6586361 104.3088068   2.1016405  92.0154461
 105.2621830   2.0175694  92.0307815 104.1308225   2.6741646  91.2692776
   3.2833278  72.9565668  33.3244801   2.8298840  72.4617815  32.6419783
   2.6117939  73.5335922  33.6882305  11.8097758  92.1863556  52.9668713
  12.0936191  91.4496231  52.4256849  11.9123518  92.9521370  52.4018145
 103.1152244  61.9758320  57.5022984 103.0169614  62.9261303  57.4430561
 104.0614302  61.8316698  57.4902439  31.4483237 104.6671867  40.7856989
  31.7668033 105.5691624  40.8210754  32.2416568 104.1353798  40.7222223
  53.2986832  38.3207178  27.2214413  53.2681561  39.0876770  27.7933431
  54.0958452  38.4387136  26.7048740   7.7681178  50.3345585  49.0547848
   7.9441756  51.0894632  48.4932184   6.8270636  50.3767347  49.2246962
  32.1110964  84.1471863  75.7021475  31.6057229  84.9290276  75.4795313
  31.7204976  83.8337421  76.5178776 116.8275823  83.0070019  36.5736938
 116.3099341  82.2367954  36.8083453 117.7254976  82.6816368  36.5095353
 116.4893781  66.0289288  50.4384565 117.1204686  65.6820345  49.8078871
 116.9169141  66.8035030  50.8038044  48.7224150 100.8565331  21.3343716
  49.2065716 100.3210449  21.9629216  48.6037493 101.6969109  21.7769837
 117.5059694  68.6406994  63.0142546 116.7648634  68.4701538  62.4329567
 117.1297275  68.6207247  63.8941860 110.5899556  40.5295420  40.4158878
 111.0281826  41.3709021  40.5435848 109.9504198  40.4823017  41.1265182
 103.5332937  86.0949326  37.4316335 103.0595310  86.0162735  36.6036272
 102.8936131  85.8447170  38.0982924  25.3337884  96.6106987  64.4665527
  24.8717070  95.8103466  64.7158337  24.9068356  96.8915653  63.6571980
  13.4202647  42.3688316  21.5291739  14.2493761  41.9744205  21.7998123
  12.7579105  41.7189932  21.7641783  26.5707588  86.1229515  33.0156708
  27.5148344  86.0511875  32.8749585  26.4863896  86.4557457  33.9091825
   1.0929310  92.7436638  28.4033847   0.4103076  92.5901604  29.0566015
   1.9131562  92.6060200  28.8772154   7.4960494  73.9894485  28.4639573
   7.0518577  74.5620251  27.8385925   7.8998286  74.5883274  29.0920830
  37.6867270  99.4642544  26.0334325  38.5263658  99.1805172  26.3949966
  37.4416733  98.7690258  25.4228330  21.5340376  53.7789917  22.6744699
  22.1159959  54.4854784  22.3944068  21.4566040  53.2136250  21.9059682
   5.3297985  98.2654476  28.9566660   5.4121596  97.7501106  28.1542492
   6.0615873  97.9775333  29.5023966   6.3873506 104.4336891  42.0275879
   6.2993383 105.3868103  42.0340252   6.1225295 104.1627693  42.9066229
  49.0792751  85.7690239  15.2829027  49.8132372  85.6570244  15.8870471
  48.4633875  85.0768471  15.5233407  18.3605695  75.2474260  47.4221802
  17.5806189  74.6929216  47.4014091  18.0200768  76.1412191  47.3843384
  21.9721627  77.3198652  41.3409185  22.2445583  77.2151661  40.4292870
  21.9894528  76.4325333  41.6994810  30.9801126  76.5789318  14.7930384
  31.1472678  76.4564133  15.7275319  31.7532229  76.2149572  14.3616986
  18.4482396  84.1354084  38.9468217  18.1192780  84.0093899  39.8368430
  19.3631184  83.8569546  38.9879537  55.6139040  75.4548597   9.6533144
  54.7485304  75.7461929   9.9405128  55.8888674  76.1134768   9.0154648
 116.2701362  81.9716549  47.0723152 115.9767879  82.7518463  46.6016960
 117.1155684  82.2208786  47.4456310  20.2331257  86.8145943  39.6299243
  20.3345895  85.9071159  39.9170113  20.6226611  86.8342495  38.7557936
  13.6784327  87.0051193  17.1138132  14.2266655  87.7299500  16.8133366
  14.2756832  86.2589741  17.1665871 116.4509185  81.0582542  43.5015440
 116.2407914  81.9221306  43.1468534 117.2956538  81.1766624  43.9358616
  37.0884633  30.0745654  51.3030338  37.5374293  29.7004580  50.5449438
  37.4686670  30.9476757  51.3997555  11.8634975  90.4358006  34.1701603
  11.8281078  91.3503933  34.4503331  11.7876589  89.9336433  34.9815321
 110.7070972  55.3797483  51.3680410 110.7767810  55.7145166  50.4740000
 111.2799121  54.6129894  51.3820124  24.1502404  67.6215267  36.7251062
  24.5976138  67.0458269  37.3453140  24.7373033  67.6626825  35.9701920
  37.4006820  56.6315031  19.3340123  37.0810652  57.4266863  18.9076746
  37.5789905  56.0281086  18.6126602   9.9865377  90.6199551  19.9854016
  10.6426668  89.9249458  20.0372744   9.7332501  90.7785797  20.8947515
   8.4365833  87.7162838  57.9913282   8.5859329  87.9654408  58.9033842
   7.4863648  87.7586460  57.8839874   6.6964990  56.5826464  68.1904459
   7.0520777  57.3179245  68.6896086   7.1367311  55.8130455  68.5511971
   3.1411475  83.9796734  44.9857235   3.0500555  83.8223267  44.0459490
   3.6806482  83.2536793  45.2989388 110.8929570  64.8423290  26.6429949
 111.8012316  64.7972631  26.9417238 110.5817808  63.9381075  26.6852522
  59.7530699  88.6024284  25.2878904  60.4031944  89.2678165  25.5133462
  59.1531801  89.0469551  24.6889257  12.1427798  99.7362614  74.5527554
  11.7754209 100.2951145  73.8679504  11.4473188  99.6707916  75.2071857
  45.4105616  86.8916321  10.6522882  44.6103621  87.0127296  11.1634123
  45.4143238  85.9605598  10.4302168  13.6357021  80.3359604  62.0613766
  14.4865036  80.7144356  62.2830248  13.3430076  79.9148512  62.8695965
  35.5647421  61.8698215   7.2610670  35.6330395  61.8892288   8.2156307
  36.3338828  61.3765383   6.9758916  10.5499887  86.5678215  34.1543341
  11.0463262  87.0821571  33.5176778  11.1582994  86.4349556  34.8813415
  17.9632664  78.6566162  21.7735958  18.5242903  77.9154587  21.5451884
  18.0236185  78.7178326  22.7269292   0.9477919  99.1081429  35.2588868
   0.9333098  99.9485016  35.7169485   0.3457800  98.5541248  35.7557535
  89.3196292  91.6801453   6.6136551  89.6508498  92.5769806   6.5665430
  89.7709341  91.2973595   7.3660034 110.6803079  42.1818447  50.7935429
 110.7136620  41.8878794  49.8832083 111.5862591  42.1243382  51.0971498
  11.8322742  94.3561554   5.3581035  11.0775495  93.9305782   5.7649297
  12.2808993  93.6519051   4.8901305   9.6906745  48.9815235  69.8558712
  10.1740050  49.4213390  69.1564512  10.3593659  48.5000992  70.3430176
  60.6418085  98.1518936  22.8150392  60.1596165  97.9635715  22.0098972
  61.4593267  98.5506535  22.5169110   6.2183845  54.3008661  12.7217638
   5.3537208  54.6012545  12.4418473   6.1918098  53.3513212  12.6038873
 109.7844447  50.1650667  28.4203219 110.6705190  49.8937130  28.6600542
 109.8689879  51.0932159  28.2020950  26.0957932  71.1561823   5.5114108
  25.3932571  71.1859226   4.8619553  26.4796352  70.2852774   5.4093182
 117.2074259  23.8587378  89.6906283 117.5946153  23.0996416  90.1266214
 116.8116034  23.5021208  88.8954070  20.1053500  64.6528339  19.8315322
  20.5716419  64.9220133  19.0401101  19.6475935  63.8510704  19.5788169
  26.5082645  54.8631763  52.7086926  25.9934402  54.0786409  52.8976154
  26.1365771  55.2033281  51.8948269   5.6302822  69.3066120  57.2901821
   6.2544358  70.0222874  57.4104881   6.0609806  68.5452986  57.6789427
  16.5962934  74.3526459   6.6751981  17.4482954  74.5135307   7.0807117
  16.6809893  73.4871244   6.2752807  97.6525588  63.0475855  27.4138546
  98.1587835  63.8598537  27.4000072  96.7974825  63.3041334  27.7592015
  26.8423080  89.8390198  27.4418187  26.6497421  89.7139263  26.5125704
  26.9114947  88.9515209  27.7936721   8.1721824  89.8932552  53.8518000
   7.3837060  90.3519344  54.1418839   8.7141335  89.8277760  54.6380758
  37.6048732  43.6059237  11.0916948  38.1767607  43.3226919  11.8051064
  38.0124450  43.2497644  10.3022206  44.7998619  45.8447695  25.8980656
  44.5134211  44.9348783  25.8187938  44.0043116  46.3591194  25.7610583
   9.6031564  86.6067600   2.4921378   8.7491411  86.9280624   2.2029036
   9.4024158  85.8310890   3.0158484  -0.0525110  74.9074841  27.4503183
   0.7140095  74.9312496  28.0231309  -0.5870415  74.1921711  27.7950525
  54.9754047  96.0138607  42.9967642  55.0133181  96.5758228  42.2228193
  55.2875376  96.5689850  43.7113571   1.6499926 101.7786312  89.4695568
   2.4173304 102.1277428  89.0161896   0.9185237 101.9655037  88.8811207
  34.2728365   5.6187110  54.0908480  33.5315925   5.0134330  54.1115141
  35.0438560   5.0555949  54.1591311  35.8971810  93.8619614  20.7475996
  36.4833832  93.5497284  21.4368820  36.4775372  94.0683460  20.0149179
  18.4138095  48.7336063  73.3500624  19.3154764  48.4693146  73.5327578
  17.8877330  47.9696608  73.5864115   8.9080888  59.9987888  25.8371711
   9.8218393  59.7726393  25.6635404   8.4179777  59.5716667  25.1346087
  43.2746840  84.7107792  20.4496741  42.9821253  83.9818478  19.9025977
  44.1324472  84.4371510  20.7746315 112.2722776  63.6783648  36.8725967
 113.1361450  63.5897827  36.4699554 111.6916753  63.1672859  36.3087392
  34.0653992  49.5022249  24.4185066  33.8001680  50.3531933  24.7674131
  33.2785916  49.1623211  23.9923215  20.0463796  69.6467829  45.9455585
  19.4842947  70.2344990  45.4407024  19.4510436  68.9779472  46.2838793
   8.0295080  93.0606079  38.5853457   7.3229790  92.5967789  39.0347004
   7.8266436  92.9626179  37.6550364   9.9764454  77.2882509  27.0083952
   9.9765056  78.1650591  26.6244173   9.7000623  77.4237204  27.9147577
  32.3866868  91.9005013  36.6933751  31.4492750  91.7266846  36.6080403
  32.5742316  91.7529392  37.6203513   6.6628778  55.3367853  22.6148391
   7.3024404  54.9140453  23.1879711   5.8143407  55.1159668  22.9988360
  22.8132033  53.6326551  29.6569395  23.5360050  53.0078173  29.5989132
  23.1108379  54.2849779  30.2910662   7.4209660 106.2471676  61.3805819
   7.9359418 107.0174122  61.1402559   7.7880055 105.5390167  60.8514071
 117.3692369  84.7927856  39.8607993 118.3053908  84.8647404  39.6745968
 117.0490357  84.1458130  39.2322063 114.9102466  92.8767490  68.4881830
 114.6764626  92.1912766  67.8623247 115.7762082  92.6237774  68.8080978
  13.5170174  64.5013237  40.5425215  13.4585345  63.7848330  39.9105000
  14.4566655  64.6401358  40.6609535  13.7500262  30.5828214  33.6539268
  13.3279419  30.9685969  34.4215560  14.6756291  30.8061552  33.7519765
  33.1768847  27.4111819  41.2912560  33.9425230  27.0158148  40.8744621
  33.0941701  26.9506025  42.1262741  25.4519677  71.7997456  26.2759209
  25.0492811  72.2328043  27.0286059  24.8943663  71.0395384  26.1103988
  31.0216331  80.1101208  20.7227802  31.1616206  79.5350361  21.4750528
  31.5387511  79.7158384  20.0203800  18.2352281  53.1700993  63.2575274
  18.4699416  53.8561344  62.6326275  18.3775020  52.3526001  62.7803612
  14.6016550  60.8139515  52.1908998  15.0260627  61.1193657  52.9926729
  14.5399261  59.8648977  52.2991467  17.8646207  67.5765514  36.0065317
  18.5086143  66.8849564  35.8542085  17.3474622  67.2630692  36.7484927
 117.2092260  75.7802296  43.6960363 117.6996649  76.4983034  44.0961218
 116.3067062  76.0971403  43.6605597   5.4503965  70.5111122  32.1034718
   6.1253065  70.5271530  31.4248896   4.6254146  70.5754232  31.6223240
 111.2519539  45.7188565   2.9709789 111.9694150  45.8994824   3.5783169
 110.4795230  46.0931069   3.3946869  26.5377355  91.3271427  44.2182159
  25.6871796  91.5220261  44.6116734  26.8350244  92.1649075  43.8632441
   7.3844874  82.3886871  45.0027227   8.3148921  82.1715069  44.9443007
   7.2203064  82.9456520  44.2417622  17.7465546  84.2607689  55.7041311
  17.4001253  85.1165104  55.4512930  17.7395880  83.7507343  54.8941660
 108.0460484  76.5087175  44.6186543 107.7592285  75.5985355  44.6930838
 107.9307182  76.7212105  43.6924887  45.9914446  77.5842667   9.0362573
  45.8212757  77.7274036   8.1052440  45.7408857  78.4077835   9.4549119
 117.6809388  52.1510696  24.6119523 118.3150537  52.7396345  25.0214863
 116.8607786  52.3233843  25.0744200  55.8083153  96.8501282  18.8140213
  55.0057173  97.1959591  18.4235585  55.5289745  96.4885712  19.6551383
 117.6161466  68.1701326  29.3564224 117.5022782  68.9856625  28.8683867
 118.2904609  68.3714533  30.0052691  51.5075636  60.8579588  26.5478134
  50.6840181  61.1197662  26.9594741  52.1351433  61.5271807  26.8207932
  25.9853029  87.9181767  39.5254445  25.0382352  87.9467964  39.6613574
  26.1363006  88.4874821  38.7709117  39.4735265  80.4321098  68.0869818
  39.9446702  79.6193886  67.9032850  39.6522141  80.6090355  69.0105629
  55.4421473  85.6294441  51.7392397  55.1492786  85.8703232  52.6181269
  54.8443270  84.9319172  51.4703512  95.5090648   3.6814647  30.6173277
  96.3281328   3.7773185  31.1033034  95.7765276   3.6629539  29.6984410
  10.5464351 101.8151665  27.9899788  10.3534365 102.0213223  28.9045715
  11.4783418 102.0105267  27.8919244   6.6279161  84.1765499  32.2266531
   6.7247576  85.1217842  32.3423171   5.6824660  84.0376377  32.1713328
  24.2277646  92.7030659  44.9599457  23.9879513  93.0525112  44.1016865
  23.8340211  93.3118153  45.5849457  15.0483716  99.9343491  55.0734138
  14.1075540  99.7926998  54.9683952  15.4385364  99.0734386  54.9222946
  20.8510399 109.5181847  54.6808195  21.5019798 110.0247288  55.1665401
  20.1215911 109.4166946  55.2922392  87.6968033  17.4615054  52.0101213
  87.2701914  18.2768684  52.2735786  88.3595306  17.7323680  51.3747787
  19.6904850  90.9881496  15.5129361  19.5032239  90.5848312  16.3605809
  18.9724946  91.6066551  15.3781414  45.0485277 103.5938263   8.1770217
  45.4283094 103.5238934   9.0528673  45.3604603 102.8140926   7.7177393
  53.3687544  92.0596790  21.1172700  53.0221701  92.7068043  21.7315555
  52.6181984  91.8189526  20.5741787  19.5321262  94.4252110  12.6887417
  20.0722790  95.2029419  12.5487387  20.1268721  93.7888050  13.0855978
  46.7828655 100.9717846  34.5120978  46.2873983 101.4865017  33.8750648
  47.5918627 101.4665031  34.6425009  55.6049806   0.2368407  14.3481493
  56.3986773  -0.2404923  14.5898736  55.5353743   0.9324889  15.0019538
  15.6410646  73.4254313  19.3381786  15.2616680  72.5661278  19.1540802
  15.0585425  73.8089657  19.9937689  42.6132727  96.6510201  31.3267112
  42.1268511  96.1059475  30.7082295  43.5123158  96.3263321  31.2764692
  37.3136258  97.6077461  46.4779329  37.6564193  96.9845867  45.8373117
  36.3746619  97.6461697  46.2959957  58.7693262 109.8196316  41.7459774
  58.5776329 110.1414013  40.8650970  59.4432545 110.4135799  42.0765448
  78.4992040  39.8194502  85.5952194  78.1292745  38.9382551  85.5416587
  79.0898427  39.7859286  86.3477185  19.9363029  81.0740471   9.5259386
  19.1882467  80.5733299   9.8514038  20.5816150  81.0263157  10.2312934
  76.7435271   5.3234630  15.1097310  76.9933588   4.7042232  15.7955611
  76.4748627   6.1103969  15.5838418   3.2293003  39.0143965  93.4622887
   3.7262743  38.5406683  94.1292488   3.6827248  39.8529909  93.3763242
  46.2632132  96.1233044  45.7936287  45.6173038  95.7750988  46.4082670
  46.2180138  95.5350590  45.0398684  20.6206179 105.1570892  54.1309023
  20.9646177 105.4017830  54.9899817  19.9045372 105.7729435  53.9753628
  32.2935557  87.7924633  53.3092594  31.8456578  88.5416985  52.9164839
  31.6354513  87.0974350  53.3176374  46.9231224  95.7377720  49.7481203
  46.1725092  96.2697411  49.4838905  47.3334980  96.2366867  50.4544544
  61.3656432   2.3903613  42.1486378  61.6971261   1.4924007  42.1434069
  61.7643124   2.7883391  42.9225302  51.3157744  12.3845630  55.9468126
  51.2142164  13.2688670  56.2988281  51.3529629  12.5071864  54.9982262
  50.9555197  98.0851078  60.7747698  50.3803349  98.7343407  60.3699350
  51.7163563  98.0447388  60.1953459  90.2341348   3.9074855  28.0497551
  90.1847727   4.8065620  27.7250004  90.8784229   3.9432387  28.7567520
 116.8401469  32.2304533  91.8859848 115.9912885  31.9244765  91.5665418
 116.6811813  33.1333350  92.1612573  19.9127829  94.3488312  53.3467197
  19.2609692  93.8879585  53.8748932  19.9612355  95.2224922  53.7347937
  36.6966629 100.0606441  55.3704357  35.8597803  99.6936226  55.6553173
  37.3166680  99.3361378  55.4536533  23.4164166  63.5242748  24.2654467
  23.3228970  64.2069435  23.6010265  23.5010052  64.0027142  25.0901723
 110.9479172  72.7122927  25.9116817 110.8252682  73.6161900  25.6215787
 111.5362687  72.3295975  25.2608228  50.9416229  33.8455253  16.1211026
  50.7619733  34.5357471  16.7595053  50.1453799  33.7952952  15.5922306
  65.0350839   7.5535922  71.9003344  64.3512017   8.1885009  72.1134758
  65.8501631   8.0526691  71.9533110  11.5962541  91.2905312  49.4574451
  11.7304385  90.9224510  48.5840940  11.7436254  92.2298145  49.3467236
   6.8863112  47.7822733  33.5143518   7.2312033  46.9155312  33.7289095
   6.9079179  47.8186607  32.5580859  37.5081515  89.0704536   5.5428654
  37.1910238  88.1703663   5.4687399  36.8211699  89.5272350   6.0282958
 102.0408309  64.1681002  93.3383965 101.1527623  64.0608118  92.9977313
 101.9847787  64.9275873  93.9182865   8.6929786  69.9826384  28.5953236
   8.0890274  70.6171465  28.9811659   8.2064873  69.6033192  27.8634238
  45.7693863  84.4193554  21.4582849  46.5577459  84.1762447  21.9436884
  46.0946560  84.9094963  20.7031727  49.3767309 108.9233780  35.2861762
  49.1116238 108.4326267  34.5082855  49.6970987 108.2558632  35.8928275
  39.5437288  91.5470314  17.2848320  38.6032128  91.4132214  17.4021089
  39.6298504  91.8684006  16.3873124  41.1671114 109.8982716   6.1839330
  41.5250111 109.2034721   6.7365557  41.3644123 109.6188164   5.2899468
  50.7318926 103.6082745  42.1715784  49.8556376 103.2959270  42.3970699
  51.0404301 104.0484715  42.9635763  11.8254840  95.4887390  34.4023871
  12.0599890  95.8299255  33.5393548  11.7892873  96.2628460  34.9642372
  20.3858924  80.4305840  15.5426598  20.1240349  79.6609020  16.0478806
  21.3375163  80.3571320  15.4701996  19.5946443 108.0782890  40.4613352
  19.0675509 107.5859928  41.0906601  19.4467986 107.6346302  39.6261477
  60.6317806  79.5574093  15.3102541  61.0744762  80.3990650  15.2012825
  59.9401760  79.7314548  15.9487069   1.3729714  86.1552525  10.2663445
   1.0255175  85.5660629   9.5967454   2.1825345  85.7358074  10.5577266
  58.6676354 109.4755023  92.4744367  57.9442925 108.8524287  92.5435990
  58.8750440 109.7032684  93.3807134  52.1516723  17.4555831  22.4389005
  52.3129446  16.5832954  22.7985477  52.5467509  18.0531936  23.0737257
  35.9104276  82.2798157  11.6711926  35.4434466  82.0858860  10.8584487
  35.6412053  83.1705856  11.8954158  30.9067011  92.0927620  29.7899961
  31.1075759  92.3978806  30.6747484  29.9510837  92.0439243  29.7646809
  17.5088835 110.0502777  25.3291225  17.3279738 109.2895889  25.8812499
  16.7009962 110.5629730  25.3555393  24.3320537 103.2298756  42.8966475
  24.0712810 104.1349888  43.0669355  24.2080402 103.1181812  41.9541121
   0.1873029 111.0189915   4.4400722  -0.1695705 110.1352596   4.5288825
   0.3323645 111.1253548   3.4999257  22.1708560  81.3034725  48.5011005
  22.8845096  80.6767273  48.3822727  22.0242596  81.3230324  49.4468069
  40.2983288   9.6526198  45.6687117  40.6077950   8.8904243  46.1581230
  40.3418959  10.3740649  46.2962866 117.0882933  98.8237000  12.1320534
 117.9218251  99.2277527  12.3733020 117.2282679  98.4985352  11.2427258
  41.4902496  96.7790508  48.5179472  41.0732508  97.3048592  47.8354025
  41.1913824  95.8856869  48.3482122  76.5702254   0.2300601  25.2388644
  77.0853359   1.0254340  25.1036334  75.7095939   0.5459838  25.5140686
 114.9384169  93.5612392  40.1650524 115.3328513  92.7722263  40.5366755
 115.0912301  94.2385387  40.8239508  20.1496887  83.4134865  19.6640646
  20.5539489  82.6675320  19.2209411  20.5982804  83.4624767  20.5082202
  11.3600683  77.4589062  19.5312488  10.7903063  78.2097578  19.3644488
  10.7610083  76.7529488  19.7741079  32.4674416  94.3319511  19.5418036
  32.1869636  95.1118946  19.0629983  33.2524705  94.6099949  20.0136685
  82.9562885  20.2531676  35.4999638  83.0961067  20.1284652  36.4386511
  83.4276087  19.5283370  35.0892305  71.4556742 100.4851723  36.4238906
  70.5252171 100.4795933  36.1992812  71.8582344  99.8896885  35.7917690
 108.4639664  71.7127275  43.6148739 108.2996423  71.2247229  44.4217682
 107.9743285  71.2374687  42.9435968  12.9005432  85.4283905   7.7732253
  13.5141087  85.6413174   7.0700693  13.4432137  85.3885078   8.5607219
  16.3995910  88.2309628  30.3641391  16.8761158  87.5869179  29.8403382
  17.0580935  88.5909176  30.9583092  44.5837450  81.6535187  15.6118453
  44.9284124  80.7620907  15.6647444  44.0752792  81.7617989  16.4155698
  13.2266903  76.6418695  32.1878695  13.5033941  77.2411823  32.8810477
  13.3734024  77.1292353  31.3772011  26.5547729  89.1718006  52.6235056
  27.2539949  89.7161102  52.2614956  25.7471490  89.6131325  52.3604536
   9.8699921 102.6728535  41.8447781   8.9278281 102.5249767  41.7629719
   9.9785990 103.0477524  42.7187824  86.7193205   3.8242869   7.3376584
  86.0400850   4.1147189   7.9463673  86.2873680   3.1662898   6.7929721
  73.0589897   0.2393394  54.4422340  72.2301418  -0.2150674  54.2913914
  72.9659063   0.6243854  55.3136158  45.7582808  92.9279709   2.7133366
  45.0272608  93.0703259   2.1120219  45.5751944  93.5059834   3.4540206
   2.9944241  83.4255886  27.4551320   3.1316027  82.7152824  26.8283272
   2.4294898  84.0458775  26.9943404  28.1375933  84.5815659  23.7264633
  28.2312489  85.0758266  24.5408130  27.3591638  84.0413570  23.8623285
   7.3794740  87.6892853  18.8349319   8.0740011  87.4002457  19.4268095
   7.0196915  88.4720993  19.2520499  11.4970875  93.5291672  38.0132699
  10.9211469  93.7404060  38.7480474  12.3813581  93.6187458  38.3686185
  59.9556160 109.0377522  57.4336195  60.3463745 109.7536659  56.9326162
  60.2077627 108.2466316  56.9573975 113.8583745  24.0488003  75.5023816
 114.6454776  24.5053194  75.2052405 113.1437624  24.4649123  75.0202945
  31.8521047  93.3135509  34.4068956  32.0775318  94.2432213  34.4405317
  32.2359610  92.9450798  35.2025795  14.2069530  73.6077261  37.9802632
  13.9030612  73.2808924  38.8270593  15.0925481  73.2555103  37.8913975
  34.7168684  95.0617123  44.3647146  33.8340974  94.7435379  44.5536852
  34.8109269  95.8440590  44.9081516 114.0254475  99.4345665  39.6889210
 113.8004349  98.5537624  39.9885535 113.5010560  99.5597553  38.8979888
  10.7970798  72.6047707  54.9482155  10.6023228  72.4210405  55.8672047
  11.6134918  72.1350050  54.7778416  35.6731486  97.3980999  36.5775514
  35.0377464  97.4970722  35.8685374  36.2426043  96.6841030  36.2908983
   6.1575186  92.0328617  13.6688447   6.5210557  92.2346783  12.8066707
   6.9185495  91.8023109  14.2016768  55.7449818 107.1850204  35.5747890
  55.6819820 106.2889004  35.2442956  55.0897312 107.2301197  36.2711000
   1.4274445  99.3367863  21.3220096   1.2045051 100.1935577  20.9580374
   0.7963762  98.7363911  20.9251380  24.7606945  91.2443447  47.1276140
  24.4535685  91.8158722  46.4238691  24.5411634  91.7151833  47.9315758
  66.1747456  82.1940327  30.3446460  66.8124342  81.9100857  29.6896982
  65.3375053  82.1913052  29.8806953 107.0576848  41.3953970  78.0596486
 107.0681966  40.7294367  78.7471226 107.8686250  41.8869589  78.1899431
  44.2501593  80.6377602  21.9381189  44.8414660  81.1063480  22.5271940
  43.3755970  80.9318066  22.1929121   7.1137047  90.5588531  19.4096935
   6.9228846  91.1308479  18.6662924   8.0649066  90.6023979  19.5074272
  19.4850540  99.2124176  17.3909974  20.0201511  98.4356880  17.5540698
  20.0160646  99.9409389  17.7127242   9.1043442  96.0154533  41.8983603
   8.6834300  96.8144226  41.5809917   8.5131979  95.6859684  42.5752735
  22.5911283  63.4241772  13.5211480  22.9509807  63.2554388  14.3919325
  21.8781447  62.7920532  13.4300196  25.9507179  70.5614710  15.9763205
  26.3911748  70.8752346  16.7661202  26.6596842  70.2454233  15.4162216
  26.4381981 102.6572132  20.3692508  27.2068191 102.2997952  20.8138967
  26.7022848 103.5387135  20.1057124  13.9284485  16.0193203  91.3557157
  14.6904772  15.4996966  91.0997209  14.0706366  16.8717764  90.9442100
  67.2096187   4.3853717  23.5009623  66.6054684   4.2699866  24.2343903
  67.0568067   5.2822833  23.2036042  23.0461931  97.2298908  44.1536808
  22.4729943  96.6277027  43.6792994  23.1626034  97.9695511  43.5573673
  28.2001328  82.4416924  64.0300322  28.4288645  82.1927547  64.9255466
  27.4218678  82.9907227  64.1254234  73.0394513   5.6965785  61.0997057
  73.5154635   6.4766269  61.3846064  73.2312781   5.6271892  60.1644945
  41.8711090 100.4301739  17.8715444  42.0682430  99.5828342  18.2707894
  40.9149170 100.4670429  17.8477037  38.7735796  80.3147793  71.5062141
  38.9163637  79.7097778  72.2341013  39.5559692  80.8661366  71.4960432
  59.1570765 110.4715436  95.4424542  58.4392959 110.6250756  96.0568252
  59.6473581 111.2936300  95.4366571   9.8790175  83.3834076  48.4862328
   9.0410948  83.0331421  48.1838512  10.4681790  82.6290131  48.4856606
 110.6898405  88.1363583  46.7693424 110.8797695  87.2454929  46.4752054
 110.7223155  88.6640835  45.9714174  13.0831003 103.7969589   7.6943827
  13.5318768 102.9650211   7.8450453  13.6826169 104.4584656   8.0396748
  52.3923779 111.3109016  32.7039146  52.8812218 111.9801903  32.2250485
  53.0364609 110.6256962  32.8824830  55.6220102  93.8078213  63.1503439
  54.8113394  93.8184071  63.6591911  56.3174820  93.7987900  63.8079691
  32.9856563  86.6411972  19.1824508  33.2664990  87.5287628  18.9597714
  32.5258970  86.3324928  18.4017098  23.6302679   6.5350769  91.6157645
  23.9475315   6.7992781  92.4793464  23.2540005   5.6659220  91.7544263
  33.6484313  88.1725216  74.5005560  33.0232310  88.2514668  75.2210617
  34.4915295  88.0272198  74.9298620  28.5496783  88.6056900   6.2844878
  28.9551067  88.5860062   7.1513635  27.6119161  88.5209179   6.4566755
 100.4856212  74.1953421  53.0731773 100.7300277  73.2797480  53.2080412
 100.8138807  74.6478176  53.8501883  28.1478667 110.1340771  17.3396814
  27.4428868 110.0170708  16.7028582  27.8822494 110.8966732  17.8536141
  31.6522384  60.7436609  17.4456644  31.3872671  59.9212265  17.8575158
  31.1812592  60.7569122  16.6124570   4.8479000  71.0434723  15.6018734
   5.6867409  70.7027149  15.2912939   4.9407578  71.0770845  16.5539658
   9.8345238 111.2835884  24.6232390  10.6048107 111.6250324  24.1690326
   9.1599673 111.2330246  23.9460039   5.5732328  86.5384579  28.7521744
   6.4467692  86.2660408  29.0331626   5.5714655  87.4891567  28.8634706
  53.9779758  99.9218845  51.2478161  54.1381168 100.5196571  50.5175686
  53.6018658 100.4752922  51.9322968  22.4853706 103.6950302  49.7304630
  23.0384684 104.0390110  50.4318810  22.4224472 104.4133472  49.1009521
 118.1359269  98.0397892   9.6213210 118.2108247  98.1420040   8.6725456
 118.2069980  97.0964050   9.7669399  11.1455655  76.3005066  16.0232151
  11.1587059  75.8144951  16.8477440  11.6240859  77.1074533  16.2131894
  38.5492253  86.6651344  26.9805241  37.6246738  86.8670177  27.1243358
  38.5718894  85.7151222  26.8656731  20.7637143  94.0324116  33.2071590
  20.9387803  94.9681377  33.3071709  19.9524498  93.8871574  33.6939669
   5.3323078  72.3292542  55.1243687   4.4715157  72.4458027  55.5264711
   5.6572855  71.5058565  55.4885626  21.3936472  87.6796913   9.6273690
  21.2137723  88.5674095   9.3178147  20.9846902  87.1110630   8.9749473
  36.9994020  99.3175697  48.7963152  37.4004889  98.9486790  48.0093718
  36.0813451  99.4477558  48.5587072 105.1849651  50.3911972  53.4767103
 105.5773544  49.5435238  53.2676458 105.9135532  51.0102844  53.4306669
  17.6817966  87.4267483  19.4759023  18.4152317  87.8832817  19.8880613
  17.7311325  86.5348244  19.8198259   0.5438857  65.1276636  49.2107153
   0.5911585  65.6070471  48.3835602   0.8138001  64.2369509  48.9870930
  54.8886824  96.6682339  49.0972376  54.1013336  96.1322212  49.1920996
  54.5586824  97.5517750  48.9338303  65.0480890  87.8050327   3.6155030
  64.6942139  87.6815605   2.7347302  65.6522751  88.5424805   3.5296771
  56.5455360  27.6449924  39.8031497  57.2468335  28.0615478  40.3040457
  55.7396132  27.9526286  40.2179718  81.5274269  20.1975494  41.3406563
  82.2830564  19.6959262  41.6466618  81.5585357  21.0098033  41.8461227
  35.5553603 105.9882641  26.3260293  35.9730721 106.0904026  27.1811986
  35.5993652 106.8596554  25.9323692 118.3175734  96.7093754  36.7525029
 117.8403559  96.4391041  35.9680009 117.8488575  96.2903023  37.4742436
  45.4619694  96.4017868  80.5498600  44.8797178  95.6472588  80.4610252
  44.8893595  97.1139622  80.8347416  34.5139980  98.5483456  55.6408787
  34.9970531  98.0993271  54.9471426  33.5937428  98.4393215  55.4011345
  27.9705065  53.7555311  92.6897907  28.5902470  53.1560133  92.2741893
  28.3089751  53.8724612  93.5774821  99.5707143   6.8418072  93.8612175
  99.1198982   7.2742031  93.1359380  98.9678634   6.9227694  94.6003032
  53.9238024  78.5362673  13.6754858  54.2508984  78.1901169  14.5057976
  54.6061897  78.3195305  13.0401909  88.4824306  11.6739707  46.2021112
  89.0852815  10.9860473  46.4842033  87.7369768  11.5982204  46.7977571
   6.4760041  67.9529524  33.3726406   6.8597811  68.5076284  34.0518212
   6.1163408  68.5694551  32.7348328  57.6720428 105.6917000  50.3251696
  58.2797909 105.4535294  49.6250629  58.2139635 105.7191849  51.1137104
  41.0442066  93.2160091  19.1414702  41.8779612  93.0413723  19.5780349
  41.2845182  93.4126663  18.2360387  51.6902447 101.0538578  59.4368553
  50.7494116 100.9744263  59.2795181  52.0923996 100.8486652  58.5928202
 103.1591398  27.0816760  50.2887058 102.6604873  27.3384814  49.5130587
 102.7170021  27.5222736  51.0143948   5.1649874  64.9942015  94.5302124
   4.6197384  65.3842543  95.2134371   6.0605686  65.2231978  94.7786485
  95.6490315  16.9273804  95.9381196  95.9545756  17.3049925  95.1133269
  95.0491560  16.2296389  95.6744131 102.7034075  18.9118438  31.6756105
 101.8939525  19.2674499  32.0424390 103.1735546  19.6776061  31.3457489
  82.9008562   7.9572349  25.5700922  83.1247646   8.7175803  25.0334597
  83.7308294   7.6900630  25.9650564  51.8667364 109.7453880   0.6326356
  52.3609829 109.0476322   1.0628483  52.4871254 110.4710865   0.5640157
  81.6364319  14.4970279  41.2225103  81.5568382  15.3950267  40.9007931
  82.5684673  14.3929916  41.4141417  43.7374496 109.1847897  36.7589235
  43.9072704 108.2466507  36.8443346  42.9439354 109.3323803  37.2734928
  40.7306433  74.6570253   4.4200075  40.3497219  74.2011786   3.6694500
  39.9758816  74.9485683   4.9314493  52.6927471  92.8513813  45.7777023
  52.7498150  93.8068104  45.7885313  53.5407257  92.5646114  45.4386950
  24.3053794  95.1367569  54.2994022  23.6946750  95.6457043  53.7662554
  23.7454867  94.6356678  54.8924065  42.6640654  95.1628971   4.3412724
  42.8209925  95.7978153   3.6423537  42.1093178  94.4951057   3.9381015
  14.3983245 106.2592793  60.8002138  14.9681985 106.4278889  60.0498533
  13.5241246 106.5041924  60.4968596  90.5738527  17.8183990  26.5847301
  90.9927732  17.5066047  27.3869276  89.7572357  18.2200103  26.8814898
  14.6155334 103.8024807  35.9346342  15.1029849 103.0019569  35.7402444
  15.2903497 104.4512081  36.1346507  39.2913723 100.3260517  18.2186067
  38.4614348 100.3774357  17.7444804  39.0650058 100.5461216  19.1222441
 105.3878768  97.4249458  37.0877719 105.6548126  98.3292389  37.2527599
 104.6871729  97.2630119  37.7194571  42.7472115 107.8528786   7.5405401
  43.3366919 108.3005714   8.1474310  43.3273458 107.3411846   6.9767547
  78.4069783   0.3324370  45.9007883  78.7891609   0.2757030  45.0250292
  78.6746032  -0.4791684  46.3319492  77.2315008   2.5976615  60.1813221
  76.7398936   3.1129699  60.8208656  77.3430402   3.1859832  59.4345474
  59.2436647  99.8120594  24.5441771  58.4890556  99.4483566  25.0073290
  59.6640205  99.0537548  24.1385770  68.9779050   8.9247565  55.1264000
  68.7378747   7.9982524  55.1122999  68.1571252   9.3874126  54.9575615
  76.5064526  92.8506184   3.9521986  77.4236345  92.7410984   4.2032203
  76.5305042  93.4661674   3.2195655  46.2035131 102.5290680  31.3889575
  46.7436695 102.0164394  30.7875705  45.3067923 102.3873329  31.0855818
  62.5721556  26.5109496  34.7875857  63.0097229  27.0908599  34.1643167
  61.7245275  26.9262080  34.9467134   9.8536199  83.3650398  35.1417422
   9.0832990  83.0387497  34.6765804   9.9023867  82.8265285  35.9315872
  48.3195829 107.2260380   5.5868202  47.3916578 106.9975281   5.5323499
  48.7340832 106.4542198   5.9724557  47.7300364  34.1249137  23.3160830
  47.4876851  33.4496265  23.9497089  47.1983880  33.9308791  22.5441170
  66.8444068  13.4996467  32.3428512  66.4006526  12.6727538  32.1542573
  66.7900306  13.9927821  31.5242624  34.0181041  96.3605881  31.3028955
  33.0678868  96.4023781  31.4104748  34.1703796  95.5390453  30.8358836
 116.3007225  60.4580401  58.5377791 115.4909171  59.9942683  58.3247974
 116.0895384  61.3821505  58.4049013  31.7819262  98.3839130  50.8344889
  31.4612341  98.5879517  49.9559879  32.7279711  98.2853127  50.7272100
  56.8410808   8.5315375  49.3262339  56.9006807   8.6119228  50.2781916
  55.9012455   8.5088401  49.1461611  85.3609306   4.8463493  33.1751728
  84.5134336   5.1868491  32.8887510  86.0036976   5.3769260  32.7044654
  98.2448274  13.2511668  21.4415717  97.9611856  13.8412624  22.1398354
  97.4537117  12.7704196  21.1981535  28.9590049  93.0173302   9.5887202
  29.6348095  93.1177044  10.2591288  29.2905521  92.3256683   9.0160900
  35.6317067  92.7446747  27.1032071  35.6089687  92.8979683  26.1586356
  36.5608454  92.7838802  27.3299146  43.8186407  90.1791382  55.5354357
  43.3141422  90.9773636  55.3787374  43.3124733  89.7009373  56.1922121
  46.6992444  23.2066016  60.9743643  45.8230186  22.8866630  60.7596636
  46.5532840  23.8710075  61.6477823 111.3491000  89.6144484  81.8256119
 111.1091865  89.1334246  81.0335961 111.6873253  90.4504870  81.5048626
  73.8798076  26.8678718  57.4887371  73.8870985  27.7568679  57.1339703
  73.0963070  26.8354564  58.0376530  53.8262653  91.3767242   6.6079229
  54.5404005  91.3347244   7.2439080  53.0467176  91.5536213   7.1344620
  15.0157642  85.7973194  43.8869715  14.1787505  85.6717205  43.4399080
  15.2151942  86.7256165  43.7656021  23.1973338 103.7312317  20.6820297
  22.8330398 104.1684341  21.4516878  22.5181699 103.8184071  20.0131750
  66.8830926  19.9663119  28.3272886  65.9309251  20.0355582  28.3966565
  67.1962268  20.0599723  29.2269588  50.8974934  89.4870758  21.4249969
  50.8176470  89.7493076  22.3421073  50.3428364  88.7106991  21.3487148
  21.6375709 105.5853081  47.8056479  21.3140106 106.4396763  48.0912828
  20.8495688 105.0502396  47.7108431   1.0859715  12.2685580  43.4996367
   0.6349837  12.7951675  44.1595840   1.8689476  11.9452243  43.9453173
 112.6334722  71.3950586   8.7855488 112.5532563  71.6952181   9.6909231
 111.7393513  71.1712503   8.5273075  56.7679834  63.3517742   9.1912472
  56.5685368  63.8691282   8.4109920  57.6905632  63.5338259   9.3699545
 101.5658188 103.8540936  24.3332291 100.7739258 103.5523701  24.7783065
 101.7616272 103.1644440  23.6989832  49.1899157  84.7209263  86.9612789
  49.1427803  84.1574192  86.1889648  50.1261091  84.8736000  87.0895863
 101.9940956  81.9073582  44.2845058 101.7120285  81.9555569  43.3710766
 102.8465910  81.4734840  44.2493486  58.1032324 110.6284332   9.5690113
  58.7675428 110.3753281   8.9280218  58.3440638 110.1528740  10.3640461
  17.0291471 102.1916866   5.1619434  17.1954167 102.7547932   5.9179145
  17.3398304 102.6992798   4.4122428  16.2539124  90.8553886  52.9735088
  16.9712687  90.9828758  52.3527193  16.4231682  89.9971676  53.3621597
  58.8950891   6.3799815  50.3555775  58.1215972   6.8932586  50.5889988
  58.6186392   5.4694800  50.4594660  81.6111738   0.9191852  25.8379054
  81.3473779   1.7256885  26.2808323  82.2454864   1.2037330  25.1799440
  81.3931751  62.6258326   7.2482169  81.8927193  61.8475151   7.0014143
  82.0548725  63.2517767   7.5424671  30.2332664 108.3273411  21.2159300
  31.0365343 108.2216644  20.7061982  29.6373892 107.6661873  20.8637500
  33.1559777  83.1804276  25.3006005  32.8612137  82.2698593  25.3155470
  33.0035233  83.4667778  24.4000483  64.5255095   0.3815799   8.5279858
  64.8638708   1.2528377   8.7345290  64.2971212   0.0056129   9.3781108
  24.9637938  84.0835190  39.9621868  24.7830057  83.1435680  39.9676800
  24.5528388  84.4111443  40.7621956  29.2252421 104.1269684  12.7961028
  28.6252809 104.7430801  12.3757601  29.9714470 104.6637154  13.0631614
  14.6002090  98.0388451  44.3117476  13.8050234  97.7299213  44.7458839
  14.4652450  97.8295422  43.3875132  38.7860745  53.2862280  77.4029091
  38.3842819  52.5513075  77.8662577  39.0834254  52.9125784  76.5733281
  50.7447672  90.8633232  71.8630743  51.1820030  90.6042099  71.0519552
  49.8772097  90.4629230  71.8059731  48.9588737 102.0029163  36.3629556
  49.0201330 102.9507732  36.4814353  48.3083010 101.7226219  37.0067120
  32.5065899  92.7063274  14.5824695  32.1400356  93.3892822  15.1441193
  31.8698215  91.9929886  14.6260965  93.6366844  96.7703152  42.9339314
  93.0325508  96.0621262  42.7109289  94.1281700  96.9285774  42.1279335
  63.4977245  95.4533863  37.3129892  64.2262554  96.0442638  37.1223760
  63.3931398  95.5008888  38.2632732  63.2748920  24.2136817  49.2708969
  63.4854395  25.1375346  49.1352701  62.6556975  24.0039878  48.5717106
  12.2997880 102.3497581  10.5943465  11.4566755 101.9604588  10.3623080
  12.9394352 101.8633556  10.0742519  45.8906460 106.5593529   5.0080287
  45.1206112 106.1211967   5.3703773  45.5370712 107.1660423   4.3575341
  91.5388853  11.4414649  40.3262138  92.3826582  11.1641364  40.6830931
  91.0026008  10.6486564  40.3356743  74.8419762 108.7632465  25.1616907
  74.4096041 108.1254768  24.5937610  74.7369576 109.5989227  24.7068810
  64.4269753  90.0989532  31.1913633  63.9486122  90.4084206  31.9605398
  65.1181078  89.5407486  31.5477109  49.5089483 110.8295536  33.1681347
  49.5109892 110.2897072  33.9585733  50.4351807 110.9678173  32.9701304
  31.0882425  84.7946548  27.5293851  31.7403483  84.2679787  27.0672107
  31.3087440  84.6906948  28.4550214   9.9421614  70.3540037  96.2212190
   9.5938175  69.8797510  95.4662534  10.7615870  69.9049471  96.4288853
   3.0013787  12.4130015  27.3226786   2.8128754  11.5725856  26.9050646
   3.4541356  12.9193740  26.6482639  87.5550920  27.1976714  27.4658442
  88.4779674  27.0728068  27.2446203  87.5075990  28.0940871  27.7981234
  46.7707491  89.2939472   9.3828571  46.0669422  89.6841812   9.9011368
  47.1636581  88.6429214   9.9642456  76.7108256  27.0218616  63.2561541
  75.8543331  26.6335445  63.0776596  76.5755469  27.9626708  63.1429529
  26.2439799 106.7783356  43.1445599  26.0569763 107.5371647  42.5918961
  26.5554571 106.1091328  42.5351477  30.8455896 107.5533485  69.2466593
  31.6902971 107.9117393  69.5191526  30.2657580 108.3136749  69.2027426
  41.2734365 107.4921894   9.7044766  41.7841053 107.5184345   8.8953036
  40.8753538 106.6216946   9.7083318  40.2187729 108.4453297  27.1206355
  39.8823690 108.6944962  26.2598324  40.3800106 109.2777157  27.5648975
   8.5309440 109.8019505  33.7444448   8.4841388 110.4812336  33.0716753
   7.6426393 109.7530651  34.0976548  73.1062412  87.6470947  63.7948418
  74.0009022  87.4141026  63.5467863  72.8831100  87.0312023  64.4927883
  54.7762251  98.3009148  13.4689736  54.1272211  98.7648106  12.9399836
  54.8096371  98.7905693  14.2907727  30.0852990  88.3764076  16.8075407
  30.2167892  88.9845276  16.0801220  30.5137873  87.5685310  16.5247810
  23.4798431  92.0965576   3.0153266  23.1703305  91.3380718   2.5202137
  22.9417968  92.8233147   2.7013791  96.6388494  12.7586990  62.1657038
  96.5584118  12.0606761  62.8157187  95.7896215  13.2000499  62.1818590
  40.1876545 101.8799400  25.8058453  39.9197936 101.2494946  25.1372480
  39.6016645 102.6262379  25.6797910   0.0789016  39.2435072  77.6678172
  -0.3913075  39.3007754  78.4995964   0.8423584  39.8088930  77.7848509
 104.2856349   5.7683752  86.9543013 104.6079720   5.1875208  86.2651434
 103.7941874   6.4442299  86.4874652  62.3447609 104.3326950  17.1946514
  63.2568121 104.2225838  17.4634826  61.8881798 103.5878563  17.5857747
  51.9545364  98.0435276  24.4505835  52.8019333  98.4187222  24.6901393
  51.6799307  97.5565910  25.2275777  41.2695265  77.3951483   7.0153296
  41.9283581  76.7847586   6.6842777  41.7339373  77.9171753   7.6695782
  98.6003227 111.4710522  19.1306293  98.1308646 110.6404591  19.2077577
  99.5219512 111.2362003  19.2386758  80.3804666  33.8903003  31.2259197
  80.7300598  34.7735076  31.3440466  81.1529285  33.3250194  31.2255502
  50.4730129 106.9480515  24.6596527  51.0733414 107.6564884  24.8919463
  50.0611925 106.7018318  25.4879093  69.7175843  20.9839873  53.8268709
  69.1524846  20.8113055  54.5799160  70.2667767  21.7177920  54.1028214
  37.8843212  95.2805424  53.4743357  37.4257517  95.5925655  52.6942205
  38.0630636  94.3576336  53.2940054  72.8101379  31.0205417  31.6951799
  73.4629876  30.3800731  31.4126468  72.3136765  30.5708079  32.3789215
  10.0275373  82.2351933  28.6293626  10.5076730  82.8115654  28.0348063
   9.1986310  82.6880264  28.7845612  84.4728214  14.0603213  41.4512634
  85.1672966  14.6387057  41.1359644  84.9058134  13.4906154  42.0870209
  46.7402411  79.6577787   6.9195133  45.8454895  79.9962139   6.8861979
  47.0958853  79.8348951   6.0486650  24.9650145  96.0151291  34.4579291
  25.4519057  95.8651543  35.2682853  25.3337049  95.3866577  33.8371801
  25.5122781  86.4089775  52.0688915  25.8768082  87.2863007  52.1857595
  26.0747933  86.0016823  51.4101648  68.4489870  95.0663185  69.9745846
  68.1995630  95.7653809  69.3701553  69.4016647  95.1336479  70.0386286
  44.8209667 103.1125450  34.5317507  44.1925573 103.2147980  33.8169932
  44.3993759 102.5012112  35.1357079  41.3170052  94.3364525   8.0736494
  41.6903400  94.2363930   8.9493448  41.7459917  93.6585331   7.5515014
  77.0456791 106.4093304  41.5582323  77.0317936 105.7946301  40.8246326
  76.2166691 106.8828964  41.4896202  65.7957888  92.7456760  27.9099035
  66.5638876  92.3429585  28.3149648  65.4356289  93.3133602  28.5912633
  83.7995119  77.2613096  66.6398430  83.9471956  77.0841265  65.7108498
  84.1219421  76.4788675  67.0871162  73.9272499 105.0018787  62.3180056
  73.1641960 105.5551434  62.1510363  74.6469164 105.6193829  62.4483681
  63.9915943  82.3358250  83.8116169  63.1147909  82.6200199  84.0698338
  64.2705202  82.9804993  83.1613731  42.4077845  82.0979786  19.4907069
  43.0063438  81.3691139  19.6541440  42.0350599  82.2989273  20.3491521
 110.4842073   0.7768397  15.1137078 110.5795271   1.5362411  15.6885600
 110.6312305   0.0235229  15.6856656   4.3525821  89.7241974   6.0401255
   3.6019111  90.1856422   6.4140207   3.9934379  88.8916302   5.7334113
  90.0468303  35.0299166  95.8115811  89.3755854  35.4236506  95.2542353
  90.0212754  34.0978335  95.5952386   6.7593330  90.7656670  32.8683305
   6.3373870  90.1789856  33.4960270   7.6873457  90.7382584  33.1012964
  42.8284935  31.7866759  31.4511871  42.7535996  32.5850444  31.9738913
  42.5823567  31.0831885  32.0518136  43.4811974  79.4788694  17.9502690
  42.9362822  79.1288710  18.6551058  42.8856134  79.5613003  17.2054780
  24.2725945  87.8287888  45.5525589  24.1198802  87.3152256  44.7593594
  24.9987626  88.4096813  45.3256845  23.3905714  42.8838156  91.5908083
  24.2950886  43.1522272  91.4294222  23.1369370  42.4086378  90.7995424
  36.0212946 106.5576839  38.3997965  35.7992721 106.9485664  39.2448735
  35.5993319 107.1255112  37.7550077  60.4947090 107.2833824  10.9176159
  60.5552006 106.5874290  11.5720022  60.0499296 106.8755150  10.1746142
  42.3160839  99.3499374  32.1119142  42.4081612  98.4813023  31.7204571
  41.4505100  99.6480751  31.8324018  18.8138901  11.9191127  40.7673836
  18.3983361  11.7633872  41.6154957  19.5368802  11.2925677  40.7362700
  37.7682304 108.8350487   7.4403268  37.3453450 108.0355835   7.7537948
  37.4863744 108.9135551   6.5289414  10.8204579  99.3535995  26.5966225
  10.4749048 100.1742077  26.9479489  10.0433159  98.8268185  26.4101219
  48.0751712  20.7002788  54.2979383  49.0208734  20.6499438  54.1588545
  47.9741794  21.2875419  55.0470400  95.6585294  10.5283027  57.0778179
  95.8588154  11.4020209  57.4135590  95.9079963  10.5635696  56.1543703
 108.0298502   7.5162463  27.4534225 107.9090721   7.3522906  26.5181351
 107.3790056   6.9590812  27.8802657  68.0693037  18.4000449  74.9330616
  67.5417382  17.7311378  75.3694868  68.9587337  18.0463653  74.9408388
  84.2087585  17.6411872   6.8493539  84.4551450  18.4575420   6.4145195
  84.3962509  17.7968173   7.7750188  31.0103083  91.4765930  24.5698667
  30.4893279  91.5428257  23.7696004  31.6388130  90.7775784  24.3893337
  25.2052689  75.3102922  13.3040440  25.8101964  75.3887558  14.0417004
  24.3365550  75.3979254  13.6963296  68.6232758 107.2094536  37.4940920
  69.5353317 107.1890545  37.2043157  68.3513069 108.1181240  37.3652816
  80.4157860   8.3633571  33.3526540  79.8939831   8.7630420  34.0485001
  80.2295381   7.4269633  33.4213686  53.1725127  34.0932231  53.2559538
  53.1154901  33.3641868  52.6383066  52.5597913  33.8637118  53.9546156
  17.6222384  90.2218819  43.5809755  17.6786077  90.4971313  44.4960117
  18.3461845  89.6053600  43.4712839  98.3992845   5.7140021  59.0275621
  97.5533516   5.4289966  59.3731213  98.7898189   6.2216907  59.7388744
  57.9073238  97.3539925  56.9046593  58.7623024  97.0851612  57.2407818
  57.6213551  96.6190434  56.3621664  51.3758802 106.3811874  14.2385650
  52.2735262 106.1346054  14.4614112  51.4683485 106.9723511  13.4914279
  94.1177494  11.7321448  41.4130449  93.8594515  12.3309665  40.7123852
  94.7623426  11.1524634  41.0072041  73.0338890  25.1158385  16.3890195
  72.9346902  25.0962024  15.4371762  72.1566684  24.9320750  16.7250931
  80.6637699   9.3111663  13.9106393  81.3914568   9.1459804  13.3111250
  80.1086075   9.9377780  13.4465468  85.5612785  16.7477756   1.4471093
  85.2719623  17.4992137   0.9295393  86.5158350  16.8179469   1.4583582
   8.0485028  43.0431174  74.4194653   8.6702507  42.3669337  74.1503075
   7.4082249  42.5788115  74.9586299  76.5018017  16.4301639  52.5561094
  77.2779876  16.9899516  52.5762987  76.1860067  16.4910083  51.6545534
  24.1425014 101.3199997  20.8014345  25.0026798 101.2764359  21.2190771
  24.0164256 102.2491646  20.6090951  87.4235899   7.3209052  23.1000972
  86.7414266   6.6497283  23.0800200  87.6140959   7.4964290  22.1786118
  84.2049980  96.9668388   7.3752582  83.9032459  96.0633564   7.4696118
  83.4400845  97.4989414   7.5943810  64.1354949  21.8118339  47.5011110
  63.8516647  21.3172202  48.2698965  64.7642357  22.4470763  47.8437185
  53.8662941  10.2748828   6.6554189  54.6363467   9.8664909   6.2598538
  53.5434729   9.6239619   7.2785741  48.4157562 102.8786755  43.1877327
  48.4157181 103.1811619  44.0958786  48.6400127 101.9498634  43.2446671
 110.9096159  70.0598478   3.4239027 110.2512760  69.6416950   2.8689522
 111.6668464  69.4760847   3.3785766  70.9947109 111.3331604  32.8705716
  71.8284845 110.8976269  33.0476618  71.2112522 112.0159054  32.2355795
  52.3805237 110.4551888  38.3820009  53.1489277 109.9069023  38.5406780
  51.8467665 110.3533363  39.1700101  14.8688381  19.1964768  94.4122393
  14.6346443  20.1188610  94.3093225  15.7772749  19.1454171  94.1149741
  81.9188148   1.3713985  54.3012428  81.7226536   1.6749816  55.1875782
  81.2646419   1.8014770  53.7504959  34.8710966  77.4355793  75.2782154
  34.6832347  76.7227364  75.8887815  34.0834045  77.5024986  74.7384977
  53.0068493 106.5101910  55.2529621  52.0777178 106.4156628  55.4627514
  53.0221176 107.0817661  54.4853020  35.1245373  27.5107191  76.2825683
  34.9196118  27.7383230  75.3756884  36.0806483  27.5296591  76.3240722
  75.2747447   0.3907256  38.5237503  75.9475810  -0.2446504  38.7683368
  75.5401332   1.2004523  38.9598107   8.9048749  73.2917213  39.4336557
   9.4168538  72.5842571  39.8255801   9.5511574  73.8309813  38.9778614
  99.3251878   9.7938495  37.2489333  99.8757488   9.0720229  36.9454932
  98.7849600  10.0179439  36.4911938  51.8076277 105.4496002  48.7684345
  51.7868900 106.3865948  48.5739231  50.8868027 105.1892090  48.7909222
  51.4666510 109.4712257  24.1994524  51.2884998 110.3149700  24.6148872
  51.0066032 109.5151043  23.3612013  48.1456900 107.5070190  33.2161784
  48.1397676 107.3580170  32.2706652  47.4444056 106.9482231  33.5511065
  39.6208811  99.0837002  63.0598974  40.5413294  99.3296432  62.9675913
  39.1738605  99.9035072  63.2704067  42.7929592  88.5503197  27.9608583
  41.8400335  88.5113335  27.8793550  43.1161976  88.3794308  27.0762444
 114.6527119  64.5575857  58.3926105 114.4255690  64.8328686  57.5044346
 115.4881348  64.9894428  58.5709333  91.5056926  13.5314612  29.6034718
  92.1154863  13.7502627  28.8988328  91.2162716  12.6415782  29.4020534
 117.5034488  15.8911560  88.0935374 117.8416742  16.7776535  88.2198605
 117.4833835  15.7755659  87.1435544  41.1791039  99.2823982  39.1421461
  41.9607162  98.8052654  38.8634729  41.1078262  99.0990067  40.0789070
  90.9040165 111.0170460  40.5358171  91.0150909 111.1124039  41.4817572
  91.6057777 110.4223728  40.2709961  35.9352064  71.5476370  13.0584037
  35.4089975  71.1337805  13.7425506  35.3742003  72.2412300  12.7113748
 101.0907585   1.2886386  28.7855768 100.4016430   0.8595233  28.2784224
 101.8890888   0.8136230  28.5547948  98.2534200  13.4189468  41.5316868
  97.7854377  13.0462127  40.7845020  99.1202003  13.6350398  41.1878347
  20.4844069  56.1187792  77.4686861  19.6997571  55.5816269  77.5783253
  21.1527014  55.6761599  77.9918528  50.9891636   1.4871745  17.4194193
  50.1964409   1.7464404  17.8891027  51.0465759   2.1025615  16.6885066
 115.5601771  95.4318237  42.4431801 116.2337612  94.8305321  42.7609205
 115.4875748  96.0946655  43.1299162  86.7237026   8.2849650   0.7618325
  86.4030582   8.7543159  -0.0083176  87.6744491   8.3906417   0.7280831
   8.0169159  88.5581017  50.1561117   7.2942507  88.3556366  50.7502413
   7.5923479  88.7570000  49.3215942 117.8311729  75.9835386  16.3089573
 118.1691130  75.0966597  16.1845434 117.3928168  75.9557009  17.1594286
  47.0767957   3.8458495  49.3058968  46.7497683   4.0972285  48.4421301
  46.3134164   3.9119678  49.8795795 102.7530891  23.3798080  28.8841367
 102.8059942  23.6045222  29.8130822 101.8220693  23.2206683  28.7288570
 112.1540613 105.8758163  19.3769026 112.4699064 105.5757236  18.5246003
 111.3037522 105.4487991  19.4811356  53.5215873   4.3191390  42.9739761
  53.6253852   3.5730796  42.3833323  54.1217071   4.9813609  42.6311255
  43.3403873 101.4407539  30.3993607  42.8859758 100.8170223  30.9656668
  43.5069561 100.9540558  29.5921326  24.8304510 106.3550949  21.8248010
  25.4126072 107.0414162  22.1508265  24.9885774 105.6109619  22.4057364
  72.6971626  82.8437424  53.0214882  72.7934551  83.3063698  53.8539171
  73.2338762  83.3434296  52.4062824  76.1918640 104.3324566  15.7188118
  76.3539267 104.9654293  15.0193059  77.0548487 104.1704845  16.0999310
 109.6114618  33.6795859  52.6132870 110.0525171  34.0030627  53.3988237
 110.3232891  33.4122710  52.0318460  58.4419060  96.7049217  32.8924131
  57.8538704  96.2210464  33.4723353  59.0087461  97.1993637  33.4844065
  66.7863178 107.2765255  27.8664565  67.4868679 107.4402428  27.2350597
  67.1961594 106.7403507  28.5452580  94.6476061   3.6509853  44.2175961
  95.2339870   2.8945022  44.2287350  93.7765867   3.2769256  44.0847588
  37.9106689  39.9527412  10.4577398  38.6775120  40.5112224  10.5853355
  37.6476330  40.1105552   9.5510221  93.0285532   1.2587600  17.9127181
  92.3516685   1.1902766  17.2393930  93.8384039   1.4058642  17.4241126
 116.9106275  14.2025046  14.1948640 117.0977527  14.9249988  13.5955143
 116.1139185  14.4710879  14.6524084  93.8893158  14.8918109  41.6030788
  93.4029180  15.5863624  41.1589479  93.2382709  14.4589572  42.1553564
  83.7060529  12.3824744   2.3774853  84.2982990  11.8090968   2.8640234
  84.0755970  13.2584243   2.4887325  75.9329015   4.9949126   9.1934955
  75.9402210   4.2478805   8.5950637  76.8297297   5.0456863   9.5241868
  44.0385342  91.1183643  62.8717804  43.6575460  91.9518089  63.1482792
  44.4642925  90.7770157  63.6581945  86.6837007   0.7678371  45.0775814
  86.4822227   1.7035728  45.0732279  85.9094602   0.3543429  44.6957254
   1.1317002  11.3833671  53.7736130   0.8835637  11.2685924  52.8562880
   2.0223176  11.7324214  53.7389565  44.8718643  99.3471909  38.8767123
  44.1397476  98.7807274  38.6330867  44.4992781  99.9613857  39.5093083
  67.4069071  97.0171165  49.2776728  67.0715666  97.3204041  50.1213503
  67.5796270  96.0849285  49.4096899  92.2051603  45.6676631  46.1360931
  92.1049864  46.3704543  46.7781925  93.1109030  45.7445674  45.8361816
  59.4403893   5.8199458  34.1380262  59.3436236   6.7257743  33.8441849
  60.1325471   5.4607253  33.5829496  45.9221417  13.6585288  43.4204483
  45.9307254  14.4790416  43.9133263  46.8056703  13.5868507  43.0592394
  66.7553854  98.7178040  58.9110231  67.5528479  99.2471886  58.9176702
  66.9847202  97.9457569  58.3937454  94.4969064  25.0347858  34.9161649
  94.8338062  24.1428142  35.0005507  95.1477176  25.4868274  34.3792009
   5.5061184   1.9264369  11.2953186   4.8227345   2.2572188  11.8782485
   6.1183297   2.6567321  11.2053335  55.4652673  26.7667346  42.4052668
  54.8741669  27.1431689  43.0572796  54.9141831  26.1704784  41.8982935
 108.3918268   7.8436809  40.6430244 107.7739126   7.8555446  41.3739681
 107.8980428   7.4602943  39.9181700 105.1679355  20.1427417  18.2644403
 105.4420263  20.2633910  19.1735864 104.7040207  20.9507232  18.0449092
  86.0477669  15.3183990  27.4293160  85.4632551  16.0452705  27.6443315
  86.2818128  15.4624229  26.5124130  64.1497517  84.9042988  33.7956905
  65.0317574  84.5561123  33.9263463  64.1153622  85.6837368  34.3502426
  74.5537424 100.2646446  52.0528078  75.0555086 100.0570107  51.2645483
  75.2047920 100.5979443  52.6702833  97.9403877  99.3262577  42.6441956
  97.5705814  99.0428925  43.4803677  98.7642765  99.7531986  42.8790665
  45.1160527   5.6230025  52.4399519  46.0589177   5.5379062  52.5813627
  44.9351436   5.0608401  51.6866398  92.2995455  10.3382831  26.6727495
  92.0315153  10.1326900  25.7771325  93.2138950  10.6099277  26.5927386
  16.7289799  53.4842776  93.4213984  16.7416924  53.0018042  92.5947857
  16.9468373  52.8291987  94.0844527 113.5196014  93.3694267  26.1957526
 114.1452782  93.4318638  25.4740453 112.7446408  93.8354301  25.8818889
  96.4328558   3.8064056  19.2276466  95.5300075   3.5700564  19.4403470
  96.6702682   3.2217651  18.5078859  54.2956114 103.0149651  30.2115536
  53.5302305 102.8295040  29.6674681  54.6934748 102.1580505  30.3653193
  57.9275084  95.2382469  23.2293224  57.3441935  95.9746838  23.0459595
  57.4776316  94.7406006  23.9121056  87.6578808 101.0431957  23.3939528
  87.2509003 100.2524567  23.0399299  88.4536457 101.1562824  22.8741431
  30.8698702 105.3116989  26.3833356  30.9143519 106.2603760  26.2638593
  31.2285972 105.1634121  27.2582960  92.7952797  16.1765628  25.8643174
  92.3004276  16.6093688  26.5600395  93.6868173  16.5114074  25.9606147
  98.8542825   5.8472304  51.4926434  98.4252006   6.4203982  52.1279383
  99.5841057   5.4588561  51.9750881  28.4997177  98.1051445  14.6248043
  28.0454969  98.9025402  14.3526125  28.4522533  97.5299358  13.8611889
  46.7923641  81.5672112  55.9495211  46.4909840  82.4293613  55.6630182
  47.6164961  81.7405701  56.4044762  76.9883687  18.6442046  18.7548542
  76.8830806  19.1256290  19.5754480  76.3117749  17.9678016  18.7854886
  98.7271768  27.3619228  46.8448877  97.9138071  27.7432780  47.1753883
  99.0879900  28.0327087  46.2651587  91.0116673  98.5436726  57.8505945
  90.4192638  97.8805256  57.4963045  91.8803215  98.1463337  57.7889490
  80.4827339   1.8894057   6.8234324  80.3081400   0.9994178   6.5173733
  79.7707111   2.4130588   6.4559513  29.9799418  97.6032829  60.8003855
  30.4387546  97.8100109  61.6146278  30.5836177  97.8759956  60.1094198
  59.4851208  94.4920158  35.1603770  59.6224928  95.0051403  35.9566569
  58.5988283  94.7190952  34.8790288 105.2404625  46.6810756  13.4250045
 104.4017679  46.3573985  13.7537360 105.3128463  47.5657230  13.7833107
  53.9790869 108.8309479  10.2509630  54.4381142 109.6588802  10.1093471
  53.1581306 108.9266205   9.7681487   7.1764409   9.2118125  45.9417439
   7.3753582   9.4280295  45.0307512   7.3406254  10.0234370  46.4218855
  42.8744984  96.3790131  13.2265735  42.0102787  96.0149193  13.4183824
  43.3403301  96.3430882  14.0620017 103.0825502   1.1783939  22.2128868
 102.5660879   1.2483268  21.4100122 103.6308271   0.4053836  22.0784140
 102.7240259  17.7287822  35.3546810 102.6503212  17.4053626  34.4567966
 103.3094293  18.4833484  35.2901602  74.1544348  13.8817172   5.8705109
  74.5766122  14.6033435   5.4043949  74.8791105  13.3878665   6.2541568
 113.5665256   9.8999076  76.2071466 112.9276211  10.0720840  76.8988037
 113.9157564   9.0330463  76.4140654  83.5312301  20.1680141  50.7281303
  83.8579685  20.3378539  51.6116619  83.8015396  20.9338241  50.2214766
  60.6178522  99.9342728  51.5394449  60.9747219  99.0598011  51.6949177
  61.3686037 100.5200863  51.6365290  53.8553858 100.1227379  25.5736399
  54.3697214 100.0647545  26.3788271  54.2959023 100.7967377  25.0560474
   4.9325406   8.5425143  49.2267799   4.9319779   8.1384902  48.3590317
   4.1099392   9.0305190  49.2643023  37.7638167  42.6524924  81.9178262
  38.1087559  41.8937491  82.3885348  38.1475418  43.4066771  82.3652485
  40.7184076 109.7035217  51.1063576  40.1557302 109.0744686  50.6547785
  40.4365587 109.6640015  52.0202684  21.1673008  38.1011539  24.1944051
  20.5297886  38.8062911  24.3065977  20.7204281  37.4599223  23.6418104
  87.2417862  13.5506206  59.3300867  88.0853588  13.9644389  59.1474104
  87.4674398  12.7298789  59.7679234  81.4377529  30.3913264  22.8680158
  80.6204540  30.8841663  22.9411864  81.4532263  29.8360686  23.6475611
  26.5644765  84.6219349   2.5489190  26.9980645  85.4449368   2.3233008
  25.6633830  84.8735714   2.7512625  44.6180016   3.7229114  36.4869928
  43.7424303   3.7242656  36.1002064  44.4653923   3.8325458  37.4255681
 103.2021839  16.5680366  48.6867571 103.4658367  16.7958217  47.7952242
 103.8395626  17.0122676  49.2459011  41.4763880  89.6700096  16.2114346
  40.7927513  89.9904442  16.7998219  42.1284103  89.2784405  16.7926133
  22.5440264 102.2059536  26.9787693  21.7363381 102.6609230  26.7403030
  22.5836897 102.2725201  27.9328275  90.9375269   2.8413539  64.8174238
  90.2946264   2.1914153  65.1011276  91.0773403   2.6508956  63.8898373
  92.7828217  93.7757587  53.9444208  92.2842598  93.3736038  54.6557140
  92.7249622  93.1462765  53.2256508  25.6050318  67.0382975  95.7691771
  25.0396841  66.5573881  95.1647462  25.4955738  66.5898035  96.6076932
  66.4901733 105.3645515  43.1591797  66.7823410 104.7256565  42.5090361
  66.2081051 104.8352623  43.9051867  97.3482639  15.5245643  36.0360980
  96.6432411  15.3878932  35.4032493  96.9310934  15.4040485  36.8891382
  64.1175461  95.3262424  14.7294307  64.6491957  95.7852268  15.3797555
  64.5363474  94.4703293  14.6386003  10.2397788 110.0957489  21.5568519
  10.1023269 109.7102261  20.6915689   9.4268459 110.5662155  21.7413306
  49.3851089  61.5879297   5.8551908  49.6646070  60.8149099   5.3647345
  48.4631586  61.6985941   5.6228191  66.3675213  94.7039890  46.7737770
  66.6326714  94.3109322  47.6052999  67.1544123  94.6676636  46.2299776
  72.5948858 100.7942677  23.5893059  72.1653986 100.4767799  24.3836451
  72.1536493 100.3313446  22.8770924  74.0437109  11.9561629  65.8784676
  73.5407955  11.8959861  66.6906786  74.7529108  12.5664287  66.0805464
 101.3206226  19.6364551  28.1979728 102.1614439  19.6085696  27.7413797
 101.1199123  18.7197166  28.3864665  89.3058712  12.5781589  38.0165744
  88.4567768  12.2870116  37.6841569  89.2535288  12.4386745  38.9621115
  29.8647380 101.1211586  19.3630505  28.9524484 100.9691715  19.1163540
  30.1561928 101.8236065  18.7817907 106.5196609  91.7490101  23.5352421
 106.4168835  92.6762104  23.3208489 106.3181591  91.6954327  24.4694591
 108.9649660  12.2912173  47.3371792 109.9081928  12.2855525  47.1743202
 108.5739118  12.0896964  46.4870644  88.8155014   5.4575496  33.4747624
  89.3834955   4.7227149  33.2431579  88.2637579   5.5862289  32.7032351
  77.0677096  28.6695628  10.9058928  76.7705399  29.3469005  11.5134633
  77.6841122  28.1440501  11.4159048  62.5712401  39.2107253  36.0631037
  62.5362283  39.9531417  36.6662836  63.1463010  39.5034461  35.3561044
  15.0681341 102.4454212  12.0696211  14.4826233 102.5184155  12.8233325
  14.9602115 101.5430927  11.7689884  65.0064516  78.1711674  14.4042242
  64.4067192  77.4298239  14.3207872  65.6958055  77.8569031  14.9892521
  95.2694256  38.6642032  12.4945581  94.6104461  39.3442397  12.3548055
  95.1761705  38.0817752  11.7406940  59.7528076  72.5388861  11.1246598
  58.9872837  73.0908394  10.9648097  60.4813957  73.0206394  10.7331145
  65.0468445  95.4047966  32.9959941  64.5801878  95.2168751  32.1816564
  64.3910885  95.2801895  33.6820626  39.3387818 108.3747482  14.0005100
  38.9441180 109.1981697  13.7133729  39.9712205 108.1603146  13.3147466
   1.6752295 104.9570084  44.5577908   1.8431048 105.1935863  45.4699707
   1.6159682 105.7954979  44.0998983 100.5024320  10.8353667  15.5463004
 100.3474361  10.7668357  14.6042216 100.2516920   9.9791865  15.8931875
  88.7117607  17.2706657  36.3292885  88.6031086  17.0168166  35.4127812
  88.9350588  16.4555793  36.7787290   1.9460141   7.8890948  13.3294559
   2.8068196   8.3069282  13.3038604   1.3384377   8.6037688  13.5200357
  57.7181101  91.6175556  29.7027040  57.9510307  92.0899296  30.5019784
  57.1331978  90.9200096  29.9985766  66.4418507 106.3350677  52.5950909
  66.5964508 106.5529442  51.6759253  65.9282923 105.5278015  52.5667858
  45.5047798  74.6243668  18.6323667  45.7393360  74.8334455  19.5365250
  45.0395870  75.4004240  18.3200264  59.2185640  86.6202450  53.3929491
  58.7653446  87.0780754  52.6849842  58.8558149  86.9987869  54.1937971
  47.5908566  92.0304775  32.4529958  47.4342012  91.1295319  32.1701765
  46.7498684  92.4702930  32.3283672 106.6096384  20.5817943  50.4915094
 107.5048429  20.7323032  50.7951307 106.3586981  21.4032703  50.0690937
  92.2867584 106.9726372  11.5467894  92.3470974 106.1028957  11.1516440
  92.8773975 106.9354153  12.2991133  89.6395666  28.5498195  47.4608135
  88.7886411  28.6121039  47.0269108  90.2269155  28.2056289  46.7879200
  29.3288255  86.2493324  33.2944679  29.4830918  86.2981415  32.3510432
  29.7740674  87.0184517  33.6500716 117.9771597  15.8135848  34.3520331
 117.6501400  15.3592639  33.5755801 117.2300798  15.8338409  34.9501038
  22.5333803  37.5738905  84.6851721  23.4012383  37.5542830  84.2818430
  22.5948685  38.2571982  85.3526619  99.8151046   1.2537913  37.4710202
  99.0030081   1.5896754  37.0916605  99.6584350   0.3158527  37.5802922
  77.6737529  24.5444255  72.0170879  77.3662383  25.0221686  71.2467480
  77.0240790  24.7366481  72.6932573  88.3600790  28.3695846  31.5329385
  87.4145347  28.2420592  31.6098809  88.6580402  28.5011344  32.4330187
  65.0430155 109.7486591  35.0533271  65.7645655 109.2720509  34.6429133
  64.7504377 110.3649330  34.3818831  51.6607434  30.3084712  82.2042561
  52.0210320  29.4255977  82.1208763  52.3374445  30.8787494  81.8394470
 108.2697374   9.6170764  24.4207311 108.9323789   9.4215636  25.0832367
 108.5427648  10.4558807  24.0491295  24.0934121   1.1469798  55.1977158
  24.1900765   1.7809348  54.4870949  24.8385464   0.5552058  55.0937700
  17.6723515   8.7379890  53.3542299  18.2045208   8.3479076  52.6607800
  16.8686329   8.2181602  53.3604670  74.0618038 101.6196251  37.1566057
  73.2720089 101.3340664  36.6973615  73.7773561 102.3699570  37.6784515
  51.0464144 106.0645294  44.7939777  51.2981510 105.2890301  45.2954292
  51.5011263 106.7873669  45.2263880  97.6730581  17.3558390   9.1284704
  98.4158261  17.2996008   9.7296065  97.9038592  16.7704690   8.4071493
 104.0075631  35.9719086  37.8422642 104.8454316  35.5375147  37.6825500
 103.9759166  36.0895705  38.7916780  16.6705799  17.3156238  18.7238634
  16.7624354  18.2569432  18.5765123  16.7265868  17.2153604  19.6741498
  97.3578609 110.8495166  62.5167227  97.3546601 111.4395344  63.2704449
  96.4977027 110.9701484  62.1144676  19.4223947  49.9712061  92.2979742
  18.6442739  49.5194059  92.6245260  19.0895325  50.7956626  91.9434246
  12.4001467  33.3358455  20.1385975  12.8138626  32.6924443  19.5631790
  11.4622772  33.2340860  19.9764931  27.4947286  42.4753428  11.2213457
  27.5584412  42.6285648  12.1640527  27.3946762  43.3488607  10.8429396
   1.9219559  16.5453064  33.0332160   1.6888393  16.7407501  32.1256423
   1.0996977  16.2681770  33.4373498  90.1901813  34.5402670  27.1986294
  89.9352761  33.9136553  27.8758383  90.2314038  35.3813052  27.6538086
  14.6026516  66.4294529  35.4594350  14.7946453  66.4444208  34.5218086
  13.9030445  67.0731497  35.5709672  28.1556869  42.6182270  20.4004049
  27.2053742  42.5566387  20.4970622  28.4498549  41.7092562  20.3415275
  42.3255682 107.4188893  87.9744443  43.0475688 107.1168464  88.5255512
  42.1593968 108.3149331  88.2672319  86.6259117  10.6844628  19.0840662
  86.4022227   9.8078787  19.3967879  86.6396065  10.6023204  18.1304955
  98.1522389  24.9511886   9.6543235  98.2548697  24.3045878  10.3526115
  97.4413676  24.6081448   9.1128331   3.3591812 105.8867777  39.2062855
   3.9577025 105.2178241  38.8738680   2.5341194 105.4219724  39.3457937
 109.8757924  62.1445084   1.1112188 109.4179352  61.3613176   0.8059134
 110.0341548  62.6543665   0.3167368  25.7799768  15.2613044  41.7508602
  25.8242083  15.4100561  40.8063269  25.7382584  14.3093383  41.8417072
  19.7609949  53.6637402  18.0044258  18.9174128  53.5469627  17.5674319
  19.7915351  54.5955944  18.2210863  11.7438591  56.6520023  40.1067686
  12.4446201  56.1764383  40.5528688  11.5698063  56.1379719  39.3182826
  30.7089186  29.1730738  55.3417635  30.0648046  28.5042977  55.5743313
  30.8269167  29.0737152  54.3970728  64.4839228 105.3218974  21.8470001
  63.6849893 104.8293168  22.0348883  64.8319031 104.9194116  21.0512948
  42.9626295 102.5480455  82.1540502  43.6614836 103.1340736  82.4445847
  42.1799118 102.8677886  82.6027718  32.9960692  84.2934745  95.7632534
  32.4987460  84.8195809  96.3894419  32.6546294  83.4058445  95.8717220
  23.4985185  32.1171522  26.2727070  23.2016373  31.2124991  26.1742330
  23.8373709  32.1620512  27.1667957  47.7163029  56.1154604  21.7315125
  46.8827677  56.5755081  21.8305755  47.4771261  55.2611923  21.3719893
 101.1270936   7.3288405   9.7060788 100.9092219   7.3068124  10.6378937
 101.7346080   6.5991426   9.5848376  47.6809072   6.5836126  39.0572190
  47.9218674   7.1818650  39.7645140  48.1724739   6.8990004  38.2988501
   8.1608367  56.5140152  45.9665871   8.6284018  55.7883167  45.5530882
   7.5544757  56.8228340  45.2933931 116.6379635  40.4832268   8.2702583
 116.2879918  39.9028397   8.9462036 116.1555077  40.2466011   7.4781239
   3.2670331   9.1909671  29.0518379   3.1082693   9.0081662  29.9779081
   2.5184020   8.8024563  28.5992408   4.6974993   7.0738351  54.0470791
   3.9319509   7.5426430  53.7148380   4.4297659   6.7596555  54.9107027
   3.9257655  45.1653147  16.3245666   4.1655976  46.0639143  16.0982275
   4.0888795  45.1037169  17.2657537  83.2063337  26.9447613  26.8990612
  83.2642288  26.1066222  27.3577595  83.3249493  27.6018476  27.5849199
 111.4187623  19.7847259  17.5165379 111.1661734  19.0981531  18.1338298
 112.2922261  19.5299828  17.2192180   6.1567390  28.9918327   7.8367066
   6.9339377  29.2765617   7.3559546   5.7056850  29.8044538   8.0656797
  10.2287126  37.4854207   1.5468149  10.5972254  37.8987360   0.7660452
   9.3835628  37.9175162   1.6702886   0.9294485  29.6730423  44.9167538
   1.8843582  29.6556544  44.9806070   0.6266643  29.3601680  45.7692003
  12.9208076  59.6205425   3.3600608  12.9185653  60.4489660   3.8395783
  13.0594254  59.8726177   2.4471119  14.1037178  31.0966063   0.4750256
  14.1326976  31.2842226   1.4132112  14.4406867  30.2039313   0.3987655
  95.8551116  22.6700974  34.4383836  96.4458199  22.1451116  34.9784589
  95.3051610  22.0272779  33.9905357  25.5933261   8.7191713  25.7773423
  25.4263663   8.9792961  26.6832614  25.7206106   7.7714252  25.8198667
  20.2846718  29.8933649  33.7445068  20.6576347  30.4435945  33.0557537
  19.8741710  30.5116558  34.3490195   6.4506650  30.4014492  31.3911891
   6.8758440  29.9666238  30.6520128   7.0860934  30.3379059  32.1042275
  75.1937862  48.6670017  47.0732212  75.5128188  48.2747889  47.8860044
  75.8725019  48.4674311  46.4284372  45.7517242  28.6954212  62.6928806
  46.1251926  29.0932918  63.4792995  45.0412416  28.1427121  63.0183935
 110.4132731  69.0210152  30.9429979 110.6872184  68.7827301  31.8286633
 110.8739443  69.8403358  30.7620859  11.2441659  18.3398223  17.6664722
  10.6672561  17.6108944  17.8946579  10.7036102  18.9115012  17.1212983
  18.0766928  65.5559969  59.6210384  17.9093385  64.6774578  59.2798710
  19.0138447  65.6924629  59.4819117 107.4092902  94.3503601  12.3786807
 107.7393068  94.6548719  13.2240164 108.1962384  94.1394896  11.8762112
  37.4273133  40.1881123  49.7514296  37.0798802  40.8139467  50.3869247
  37.1802044  40.5491257  48.9000559 112.8483017   6.9986963  14.8014176
 113.0188490   6.8128830  13.8780439 112.2879673   7.7746654  14.7900593
   8.0722141  54.0590239  16.8958247   8.3572048  53.3036852  16.3815558
   7.4655169  53.6947823  17.5404000 104.9520667  43.9960146  65.5920649
 104.8950262  44.2734194  66.5064096 104.5611270  43.1223488  65.5819988
 115.3428213  14.1819608  48.3027267 116.0797189  13.7978387  48.7777662
 115.4157530  13.8243699  47.4178314  15.8482283   1.4004944  92.5728878
  15.8760231   1.0223912  93.4518060  16.4341563   0.8477925  92.0557460
 113.6477663  33.2332945  66.1747599 113.3907874  33.1312418  67.0911551
 114.6047623  33.2233763  66.1918402 117.1810885  56.4355946   8.9411229
 116.5381023  56.2461233   9.6244240 117.9445903  55.9091473   9.1780776
 108.7963827  17.5612032  47.2557640 108.9587678  17.3233855  46.3429070
 108.5250951  16.7429543  47.6718187  10.9883142  55.7813883  13.8154781
  11.6869771  55.1283646  13.8562763  10.9240031  56.1194611  14.7086751
  27.0663524  36.7661691   4.6249762  27.2234964  36.0687041   5.2614361
  26.1397481  36.9820142   4.7300780   3.9499706  94.8939705  28.0803919
   3.6593300  95.2077007  28.9367437   4.4520378  95.6229401  27.7160168
  19.1474020  43.3730316  45.6634569  19.2754781  42.5071669  45.2760220
  19.5629048  43.9753771  45.0463867   2.0904592  48.1635857  11.4148450
   2.9242092  48.4424734  11.0362768   1.6460446  47.7035284  10.7027531
 115.0379820  17.7183127  35.5635691 114.6128084  17.9172504  34.7293735
 114.3181269  17.4844110  36.1495137   2.0409821  33.7171674  10.3865492
   1.4767076  34.3996334  10.7499623   1.6935332  32.9016447  10.7477045
  42.5469732  62.4919128  27.5489354  43.1940222  62.4717665  28.2540226
  42.3771334  61.5704346  27.3533177   5.1738626  58.5441065  19.2449796
   5.6378955  58.2446146  18.4631813   5.2473599  59.4980526  19.2164087
  29.0568805  57.2905588  20.8355665  28.4761786  57.1541691  21.5841722
  28.6788630  58.0380106  20.3722620  16.2982547  77.1221638  14.1450357
  15.4239023  77.2575092  14.5103014  16.5190935  76.2209034  14.3799710
 101.7375291  26.8134020  92.2625267 102.4822057  26.2376593  92.4363544
 101.9075502  27.1680258  91.3898519 100.9224446  37.9279709  50.8797932
 100.9466369  38.5466909  50.1498413 100.0403257  37.5575018  50.8506203
  39.4589029 109.3586772  90.8783617  40.2822079 109.7073930  91.2201211
  38.7802866 109.8257821  91.3657269  95.9332080  50.9592104  50.8069229
  96.6701288  50.3521490  50.7386541  95.3688927  50.7350492  50.0669670
  32.2875857  36.1819911  37.3238420  32.3599052  36.3719964  38.2592034
  31.4552093  36.5761495  37.0630264  23.9300901  79.3260949  84.4765201
  23.8065333  79.8471325  85.2699223  24.8785359  79.3050354  84.3490937
 116.2210599  46.9152832  35.9348345 115.2898161  47.0719385  36.0912871
 116.2402043  46.1956406  35.3039789  10.2761459  40.8666849  12.1701229
  11.0116124  41.0167027  12.7641070  10.1208162  41.7181969  11.7614257
   3.6409664  39.0147543  17.3673642   2.7208617  39.1382766  17.1341646
   3.6828771  39.2299724  18.2991135   6.0844982  27.5484371  25.8464313
   6.4198291  27.7809381  26.7123008   6.8631238  27.5070882  25.2912164
  23.4314680  18.5675502  18.5036147  23.3660102  17.6368928  18.7176847
  23.3391929  19.0139842  19.3452883  34.6689510  48.2284737  40.9099102
  34.2174530  48.2572508  41.7534447  34.0765095  47.7408552  40.3376579
  25.8634466  53.5313692  86.0242560  25.4968101  52.8730446  86.6145268
  25.6641001  54.3677744  86.4448741  13.8875651  38.9783859  11.0779226
  13.3740699  38.8003182  11.8658614  14.7821486  38.7336016  11.3146353
   9.2118979  64.6353436  17.8954458   8.6678618  63.9862204  17.4494636
  10.1096916  64.3888140  17.6731348 102.6663120  24.5333314  26.5083981
 102.6890285  24.2156363  27.4110508 102.7058239  23.7400365  25.9742117
  43.5069513  32.8916645  35.9600711  44.0630627  32.1776915  36.2718582
  42.8180742  32.9646707  36.6206336  51.3185930  61.6218948  12.1026075
  50.6410217  60.9478045  12.0503974  52.0275784  61.2921143  11.5505064
   8.3204609  48.2643270  20.6251812   8.5429800  47.3787212  20.3380966
   8.3649540  48.2246923  21.5805244  34.4398355  33.9488077   7.4128681
  34.2446446  34.8502874   7.6687276  35.2525663  33.7397814   7.8733158
 113.2644553  35.2574205  33.1527448 113.4465401  36.0048461  33.7223339
 112.6603986  34.7130299  33.6577082   5.9784222  22.2191811  46.1440516
   6.8771309  22.5055575  45.9811354   5.9083271  21.3798571  45.6892395
  73.0237276 106.0181182  91.1186734  73.8722736 105.7448857  91.4673123
  73.2377464 106.5113967  90.3267732  10.9346437  54.6427250  10.2209330
  10.3832567  54.2428255  10.8934557  11.7096996  54.0823412  10.1822758
  98.0278368   2.2765873  13.2425284  98.5539861   2.8727156  13.7754714
  97.8020759   1.5604940  13.8362241  11.5160704  19.6685863  37.0991158
  11.8315542  18.8664985  36.6827559  12.3034656  20.1975369  37.2273827
  77.4054193  46.4454126   5.4165590  78.1725359  47.0179176   5.4158753
  76.9937372  46.5955687   4.5655581  61.4579821  34.2632604  15.4703581
  61.0599136  35.0543404  15.1070833  60.9172249  33.5477567  15.1358938
  35.3260732   8.0642110  23.2042217  34.9705410   7.3220038  22.7153897
  34.8456192   8.8223314  22.8715825  23.4556293  65.1367760   5.6356621
  23.4019113  66.0129118   5.2539074  23.9853811  64.6369505   5.0145584
   0.4783782  21.4360809  19.7155488   1.0453320  20.9123135  19.1494548
   0.4672078  22.3021364  19.3080473 113.9790942  32.1184254   5.3432631
 114.1484465  31.9350958   4.4191730 114.6788280  32.7187920   5.6004870
  10.9758019  26.0389924  76.2904263  10.9233069  25.1159120  76.0426426
  10.4810703  26.0960650  77.1078730  36.6441607   7.2521347  75.7484007
  36.8826914   6.3495183  75.9596348  35.8279729   7.4020827  76.2254572
  69.8491914  99.0111821  93.1850454  69.9188597  99.7407716  93.8007366
  69.0535385  99.1944974  92.6854840  31.7439914  18.0238998  15.6722820
  30.8300304  17.8174162  15.4766476  31.8517542  18.9302933  15.3840637
   3.1318259  26.8996644   9.2778444   2.3471591  27.1036005   8.7689823
   2.9340571  27.2149873  10.1597118  68.4537983  62.9355717  16.8137002
  69.2655516  62.7294970  17.2771895  67.9698563  62.1098423  16.7994964
  39.9965310  19.1016638   1.8395448  40.8369732  18.6694682   1.9915271
  40.0213051  19.3559015   0.9170581 116.4139339  47.3226643  31.2732387
 116.8301043  48.1828928  31.2181187 115.9148368  47.2455072  30.4601097
  90.3254051  36.9524837  28.2043695  91.2103648  36.9647765  27.8397727
  89.9093147  37.7381849  27.8497195   5.6074303  37.0597363  49.3043375
   4.9275780  37.5746703  48.8697386   6.1432213  36.7178369  48.5886097
  34.5733786  54.1070032   2.6487508  33.7736130  54.3989563   2.2112896
  34.2748165  53.7689114   3.4930161   4.4793764  18.7052417   4.0209693
   5.3212380  18.8161790   3.5791624   4.3290552  19.5407259   4.4632375
   9.6729851  32.1077299  20.8459187   9.2945677  31.4591289  21.4395094
   9.8673093  31.6170120  20.0473785   3.9489001  93.9883358  13.6175835
   4.4722527  94.7321339  13.3190870   4.5564335  93.2487137  13.6078191
 111.6449369  47.8727198  33.8410401 111.8622936  47.2094440  33.1860209
 112.4121268  48.4445572  33.8665771  18.6272132   8.3429652  44.7820282
  19.1339993   7.6073891  45.1260185  19.1505623   9.1153115  44.9960852
  25.4266977  74.1797495  18.7914300  25.1654506  74.6592999  19.5775664
  26.3558364  74.3833828  18.6843503   7.0809710  33.0840278   2.8501526
   6.8819565  32.1478581   2.8357154   7.2335327  33.3106351   1.9327618
  34.8106003  28.5826325  16.9194901  35.3453660  29.3759227  16.9502580
  34.3707752  28.5571647  17.7692759 106.6781957  89.3926620  29.0027690
 106.7210777  88.4547138  29.1888857 105.8671983  89.6828556  29.4202662
  17.9135931  73.5465145  18.0242300  18.5490239  74.1367149  18.4293532
  17.1601617  73.5641623  18.6143661   7.9937690   1.1619222  12.9326177
   7.8029394   1.3050830  12.0056224   8.7871766   0.6264460  12.9339087
  12.7913344  65.1831865  43.7340641  12.3584497  65.8193159  44.3034315
  13.0751598  65.6943035  42.9761457  22.0523715  52.5868416   1.2063406
  21.6854167  52.6142073   0.3226965  21.5569210  51.8985605   1.6502219
  51.7950058  29.4693542  53.1697226  52.3477888  28.6880684  53.1856966
  51.5089750  29.5789623  54.0765905 105.5435105  55.2295494  34.3341422
 105.5594416  55.2635527  33.3776784 104.6280475  55.0548172  34.5523787
   6.3290572  69.9548817  10.8533835   6.4086318  70.8874750  11.0538101
   5.8464962  69.5907307  11.5955162  88.7956853  43.9607573  20.4329062
  89.0842982  44.4192886  19.6438026  89.4741340  44.1494656  21.0812330
  91.2531782  16.1730145  70.2797583  90.4787947  16.0204600  69.7381976
  91.2417210  17.1140812  70.4543808  13.7687516  58.1869936  52.6513815
  14.4181335  57.5503922  52.9501629  13.0406976  57.6542807  52.3314047
  13.7239492  85.0396347  51.2154055  12.8066683  85.0065136  51.4869356
  13.6919904  85.0080013  50.2592611  53.5430145  15.5651462   8.9572793
  53.0596733  14.9659038   9.5260668  54.4633293  15.3522825   9.1120148
  35.5760956  33.0684304  24.9655962  35.8901954  33.6793375  25.6322026
  34.6353936  33.2366633  24.9107504  61.0889864  71.9398069  23.5426712
  60.4491329  71.9798803  22.8318882  61.0967588  71.0196733  23.8063455
  22.4090815  72.9125977  26.6899443  21.5823436  73.3215523  26.9458556
  22.4926138  72.1569347  27.2715163  59.6374733  97.3821586  82.2888520
  59.6602303  98.0757659  82.9481116  59.1787404  97.7733415  81.5453663
  63.5532719  83.5600179  94.0179872  63.8122947  83.3436769  93.1222549
  62.9506141  84.2974036  93.9215666  38.9288902  19.8143327  26.2256217
  39.1716671  19.9401546  27.1429324  39.1925073  18.9153504  26.0292339
   5.7945836  63.5679388   2.0630644   5.1721019  64.2228794   2.3789771
   5.5320048  63.4053421   1.1570588  23.7500882  57.7002668  48.8579559
  23.8318086  58.4365129  49.4641733  23.0050135  57.9290867  48.3023167
  24.8074746  44.9753475  36.4649415  24.1203737  44.4526243  36.8783212
  25.6214809  44.5301771  36.7004180 117.6236230  46.9342375  -0.2447567
 117.8962706  46.2681675   0.3863128 118.0992570  47.7222061   0.0181296
  10.4672599  64.4096565   4.2576352  10.4611540  63.7019634   4.9021253
  10.0108385  65.1313829   4.6900904   8.3735138  73.3211613  15.3133023
   8.8078582  73.9003992  14.6871543   7.4456877  73.3729792  15.0837684
  27.2881460  58.0528116   8.8660198  28.2163525  58.0202818   9.0975505
  26.8493152  58.3221483   9.6729386  23.0489254  32.8864670  23.6189198
  23.1470513  32.4173164  24.4474745  23.0446076  33.8111377  23.8663054
  24.6282053  62.4014187  47.1827602  25.4367161  61.8940496  47.2542858
  24.8165607  63.0590487  46.5132236  18.1356514  43.4653568  17.2451103
  17.2447729  43.2608557  16.9609499  18.3886468  42.7225780  17.7932918
 114.7135024  84.1632271  38.5261297 115.0630329  84.3051147  37.6463962
 114.7279982  85.0298786  38.9322662   5.6831282  73.9485216  14.5197058
   5.7644159  74.7872210  14.0656042   5.3512418  74.1773844  15.3878665
  42.2411728  58.4379673  26.7368507  41.8015671  57.6503563  26.4164734
  42.1991110  58.3646870  27.6903152  32.1354651  69.4113207   2.2432795
  32.5243878  69.9612331   2.9234022  31.8372464  70.0299692   1.5765175
  10.4762542  66.2165213  47.7350473  10.1890469  65.3430176  47.4690819
   9.7123641  66.5985727  48.1671810   6.8931484  47.6348209  23.1101036
   6.9504303  46.7396069  22.7761221   6.6281939  47.5329208  24.0242434
  67.9033947  68.4689951   6.5879142  67.6558018  67.6365900   6.9904453
  67.2591686  68.5995579   5.8921027 114.0392031  53.2767296  31.9092107
 114.7843240  52.7593946  32.2148132 113.8970856  52.9835224  31.0091758
  43.7134171  69.1334915   1.1654150  44.3550110  69.0346050   0.4619873
  42.9644585  68.6091614   0.8819243  21.0161757  66.2583923  29.5375180
  20.9879994  65.3938532  29.9474025  20.1315784  66.3908005  29.1966558
 108.6671842  29.3021200  66.7672565 108.8323105  29.9030779  67.4937656
 108.1159414  28.6163710  67.1442249   2.0748921  43.5079145  17.9004312
   1.9058309  43.2228994  17.0024240   1.7968139  44.4236708  17.9174340
  34.0478468  18.0878162  17.2403109  33.2526159  17.9377389  16.7291188
  33.8505769  18.8612664  17.7686012  24.0411496  46.7931747  34.2902780
  24.4652724  46.3623476  35.0323963  24.4794583  46.4306688  33.5204053
   5.7632911  75.3383303   7.5070816   4.9592435  75.1540565   7.9926568
   5.9134245  76.2744617   7.6387942  48.0816174  22.8065562  24.8416305
  48.5605955  22.3281312  24.1649294  47.1596289  22.6770782  24.6193695
  29.7348142  58.6038017   9.7027719  29.8030424  59.5546198   9.6160346
  30.4171157  58.2610655   9.1255158  26.1356306  52.3284769  36.8999243
  26.1933088  53.0005980  37.5790095  25.2699852  52.4543333  36.5112782
  34.1403008  30.7161403  23.4442353  34.0929079  30.2786469  24.2942858
  35.0776935  30.8154917  23.2779288  36.7823720  47.2139406  47.4684429
  36.7434025  46.3355732  47.0900393  37.5234032  47.1814251  48.0734634
  44.3170595  57.3134899  37.9150224  45.1179028  57.7057457  38.2628918
  44.1726923  56.5401697  38.4603381  17.9480636  25.0912380  17.9344141
  17.4335217  25.2133679  17.1365654  18.8558578  25.2078772  17.6541698
  54.0404987  38.2945085  44.0766764  53.4139490  38.6195731  44.7232056
  54.2233467  37.3958969  44.3510771  17.0120645  16.7514133  10.7233858
  17.3943460  17.6271069  10.7804179  17.4163270  16.2662792  11.4427245
  21.8656301  49.1884184  44.8335934  22.0688272  48.5069942  45.4743814
  20.9175706  49.3032742  44.8985958  32.5979424  30.5426216  36.9524264
  31.8580151  30.8649921  36.4378214  32.7956605  31.2552834  37.5600863
  22.2552156  58.7855673  15.3410828  21.5708256  58.9617777  15.9866774
  22.8134513  58.1286287  15.7570565  72.5956678  42.9061890  28.3449292
  73.4079981  43.3556414  28.5780501  72.8110266  41.9754934  28.4054065
 116.3541442  34.0688634  51.6065979 115.6634475  33.4447265  51.3838387
 115.8858336  34.8423266  51.9207144  37.7807522  50.4562902  32.5536489
  38.6988902  50.2927303  32.3380041  37.8126049  51.0771179  33.2815194
  27.0351124  42.5793886  17.8498268  26.5915513  41.8044281  18.1946778
  27.8312325  42.2382259  17.4423504 102.9259689  44.1916513  10.7193184
 103.5727544  43.5596800  11.0331750 102.5783677  44.5939684  11.5152752
  29.9623609  45.7222033  31.4531779  29.9059200  44.8883867  31.9198632
  29.0859365  46.0993576  31.5297818  74.7469885  94.6998113  81.7417493
  74.3469817  94.4506400  82.5749007  74.1724068  94.3199080  81.0770967
  84.8076422  87.6496237  92.7485511  84.5133907  88.5528606  92.6310205
  83.9996797  87.1381682  92.7914271   6.0353190  36.3977098  21.6172886
   5.4042226  35.7295156  21.3499594   6.4627904  36.0280037  22.3898292
 105.9984435  22.6323841  83.7460676 105.5958689  22.9617213  82.9425099
 105.2583874  22.3972462  84.3057635   1.1145914  61.5544462  14.8553610
   1.4387554  61.6405773  15.7518709   1.6167369  62.1985722  14.3561816
  41.3558531  32.2800398  28.9340878  41.6913652  32.1093535  29.8141623
  42.1391344  32.4216843  28.4024477  21.1470914  39.1689038  20.7707858
  20.5033779  38.8925791  20.1184750  21.8583727  38.5335279  20.6894875
   7.2847581  28.0490756  21.7065954   6.3520229  28.0201745  21.4935184
   7.4432224  28.9567995  21.9657516 112.5439585  16.3353918  92.3580488
 111.9985736  16.0785101  91.6145423 112.5463403  15.5677603  92.9298645
   5.2603644   1.4165591  85.2663770   5.7639998   0.9470318  85.9313026
   4.9469298   2.2024773  85.7139543 108.6103667  77.8342009  25.4410982
 108.9393093  78.5157490  26.0272050 107.7388163  78.1373024  25.1866198
  22.6096416  78.6648226  81.1863327  21.6598010  78.6755133  81.3043022
  22.8879118  79.5547342  81.4027882  49.3685675  36.5588522  -0.3328961
  48.6554527  36.8080473   0.2549840  49.9780464  36.0727358   0.2224955
   8.8640773  64.7944403  50.2600861   7.9403019  64.6853495  50.4858494
   9.0407908  65.7221842  50.4159594  50.7804537  64.0112591   5.5570418
  50.8345890  63.0633163   5.6783086  50.2825880  64.3214417   6.3134474
   7.5424010  43.3522034   1.9774087   8.0660903  44.1530132   2.0034947
   7.8694856  42.8282022   2.7086204  40.9488440  33.7129664   6.4645898
  41.2197828  32.9431129   5.9644419  40.0114107  33.5859799   6.6106236
  29.5886445  53.1306314  18.6395073  29.1095066  53.9543152  18.7300682
  30.2961636  53.1933117  19.2811620  76.8267311   4.2587803  95.1483406
  75.9312362   4.5031308  94.9146445  76.8171893   3.3017777  95.1652908
 102.5406487  35.6800652   8.0923194 103.3446999  35.3017235   8.4481156
 102.6936777  36.6248441   8.1067854  36.7424941  60.0908947  23.1914353
  35.8354020  59.9134111  23.4402633  36.7671847  59.9332428  22.2476315
  50.8155441  76.8142271   2.4344921  50.1169872  76.1682892   2.5394544
  51.5075302  76.3450527   1.9683744  29.4209743  39.3928289   1.7967309
  28.9074039  39.9009204   1.1687827  29.3933487  39.9091983   2.6022315
  48.5500860  41.2927055  35.8180213  48.5030317  40.9917021  36.7254424
  49.2234039  40.7425356  35.4177856  38.5980844  30.4161286  15.4346621
  39.0524793  31.2528324  15.5330670  38.7440538  30.1702905  14.5211589
  20.8149672  25.3060484  18.0382407  21.5352464  24.7364020  17.7681804
  20.7207918  25.1443911  18.9769793  40.6541491   3.0780768  37.8944397
  39.8288155   3.3308622  38.3081460  41.3297510   3.4022126  38.4900308
  38.4605479  54.4092560  21.5913248  38.4219217  55.3533554  21.7443657
  38.0354381  54.0247631  22.3579264  21.6411233  70.1785946  69.1177177
  21.4691019  69.2886639  68.8100386  22.2365022  70.0649929  69.8585653
  41.6334606  92.4663609  95.6762365  41.0008127  92.2022789  96.3442553
  42.1979931  93.1004494  96.1183515  22.6962447  41.2041855  28.0375099
  21.9885254  40.6053209  27.7993345  23.4966683  40.7336235  27.8048658
 108.1126083  13.6349152  84.2597809 108.9744128  13.3276556  84.5410576
 107.8992785  14.3410872  84.8697379  80.9242725  25.5580735  19.6256971
  81.2240982  26.4663053  19.6637940  81.1106396  25.2075911  20.4967093
  43.8751650  46.7367172  33.6275363  44.5427847  47.4203920  33.6832881
  43.8716078  46.4800549  32.7053976  11.6057348  45.2219820  11.8033028
  11.3341129  44.4538164  11.3009369  12.3648393  45.5618668  11.3295174
  82.5712776  36.8346190  12.9652154  81.9017124  37.1205163  13.5866523
  82.4139881  35.8964896  12.8584194  40.7179928  38.6464429  18.7441504
  39.8361921  38.3626390  18.9852262  40.7042885  38.6844754  17.7878046
   4.1682476  60.2030373   4.9447492   3.9503440  59.2980576   4.7216719
   5.0613803  60.3210497   4.6213013  35.8654976  55.0916862  34.4048691
  36.5238786  54.7455549  33.8024116  35.8683705  56.0356426  34.2462134
  21.5006089  47.1204281  46.4789152  20.9282541  47.3775339  47.2017860
  22.0262480  46.4031363  46.8330765  66.7217547 110.0935119  87.2587451
  67.5350911 109.6418231  87.0335916  66.1374909 109.9165147  86.5214947
  23.5596251  37.9212928  20.7319617  23.7467957  38.2648993  21.6055393
  24.4196987  37.8255963  20.3228855  20.4399586  42.0459366  14.9840939
  20.9335446  41.6951704  15.7254219  20.6435561  42.9812288  14.9818218
  43.1676865  37.0795083  26.6803575  43.3445549  37.9895091  26.9187832
  42.4353170  36.8230724  27.2408128 108.6512746  82.9950809  25.9427190
 108.3003493  82.6619339  26.7686105 107.9087157  83.4323025  25.5259776
  45.5531931  67.6794720  29.4038081  45.7167196  67.7485514  28.4632134
  46.4160395  67.7827168  29.8051405 114.7832168  52.9654883  94.1081109
 114.6951641  52.0159910  94.1913783 115.5652679  53.0872153  93.5697698
   1.1336385  15.5697298   5.4109901   0.9518103  14.6861851   5.7311779
   1.9379023  15.4785311   4.9000359  67.0248515  72.3456805  94.1492785
  66.8045337  72.0361810  93.2706991  66.6746194  73.2358103  94.1844809
  67.1544678  91.3788670  94.0538980  67.2028476  92.1630710  94.6006271
  67.3156339  91.6960924  93.1652891  13.9535677  40.7647181  45.6271744
  13.0956435  41.1472940  45.8111143  13.8517630  39.8363400  45.8368874
  35.7062006  83.2335377   0.4087443  35.7422829  84.1887474   0.3587744
  36.6078377  82.9514122   0.2548257  64.2339611  41.8134594  12.6747668
  64.6513414  42.4827433  13.2170606  63.4475613  42.2385788  12.3325896
  48.2125854  32.8981972  49.0985584  48.5767698  32.8378057  49.9817085
  48.2429266  32.0014596  48.7651300  38.1554699  43.5410833  34.4047236
  37.6167130  44.2814875  34.6836138  37.7588749  42.7819014  34.8320222
  57.4315459  70.5743676  79.9316767  56.6090352  70.6801384  80.4097143
  58.0225844  71.2149912  80.3272858  58.5318184  56.5716934  35.5572677
  58.3264542  57.5014305  35.4590392  58.3693838  56.1977291  34.6912432
   7.4754208   0.6140612  77.8240350   8.1817597   0.2149771  77.3160496
   7.8806608   0.8400963  78.6612454  29.8382395   2.9112576  85.7550886
  29.9029892   3.5483406  85.0436357  28.9639920   3.0479000  86.1201277
  41.3085318  17.3487091  46.9241714  41.3538980  18.2825804  47.1292543
  40.7233095  17.2976053  46.1684370  31.3605213  70.5224276  14.4586790
  31.3455939  70.8861399  13.5733974  30.6110382  70.9262657  14.8961985
  53.7543869  85.2176380   3.8152713  54.6031857  85.4028034   4.2171180
  53.2440472  84.8057556   4.5125088   3.9485466  43.0955267  19.9046028
   3.4115815  43.3652115  19.1595054   4.8360747  43.3676195  19.6711683
  24.8533964  55.2285528  31.0765815  25.5905342  54.7756243  30.6670499
  24.8154902  54.8709488  31.9636631  23.4248543  91.4962578  20.7081485
  24.0034962  92.2175312  20.9554744  22.6857781  91.9207287  20.2724600
  23.4501839  64.2754316  30.3475976  23.9312959  64.4550848  31.1553645
  23.6866188  64.9954176  29.7628284  18.4660411  65.6936979   7.2553396
  18.9953387  66.4262199   7.5707632  19.0368879  65.2330446   6.6403902
 115.2903522  81.8864632  39.9686193 114.5864732  81.9049931  40.6170321
 115.1484828  82.6708126  39.4386196  22.9064465  23.5626841  18.3538663
  23.5939598  23.0121708  17.9790425  23.1298876  23.6259246  19.2824721
  53.0310059  39.6372700  24.6073771  52.7553558  39.8558712  23.7171721
  52.6778460  40.3439808  25.1478100  44.1886902  38.0447531   5.6118178
  43.7139750  38.3882737   6.3686997  44.2544317  38.7883425   5.0126636
  45.8889437  53.0070591  31.0443902  45.6947041  52.2534800  30.4870629
  45.9337473  52.6451969  31.9294214   9.5216691  58.5473919   9.3007410
   9.4852561  57.9368973  10.0370836   9.3634278  59.4059086   9.6933526
  52.1792459  40.9719801  22.1799088  51.8680525  41.7451429  21.7091513
  53.0700207  40.8371019  21.8565416  21.7978263  68.5560417  44.1685247
  21.3357711  69.0987778  44.8074055  21.7767572  69.0676737  43.3598089
  14.9227965  78.9382982  47.0442533  14.7785938  79.8054743  47.4229908
  14.3022060  78.8882589  46.3172102  84.6347124 107.5394195  85.5579427
  84.3645937 106.7032235  85.9374741  83.8262874 107.9178851  85.2123406
  62.5251896  98.0381053  74.2779305  62.5978572  97.9491084  75.2282098
  63.1814582  97.4344056  73.9299491  16.4032781  56.7400169   8.0216265
  15.8941114  55.9295034   8.0147034  15.7489789  57.4345589   7.9458493
   4.3327123  96.6907501  12.9898012   3.4519762  97.0146370  13.1785548
   4.7433904  96.5986347  13.8495040  41.5896129  77.7961653  87.3022774
  40.9120194  77.1212333  87.2627392  41.1313844  78.6084955  87.0869163
  16.3040578  23.1637597  23.2072902  15.7866788  23.8042045  22.7190495
  16.3383937  22.3972464  22.6350021  29.4490147  24.1492438  31.3354897
  28.5974002  23.9505386  30.9462595  29.7449398  24.9350119  30.8758950
  16.9248652  55.3810310  10.7255614  17.3033655  54.5313025  10.9512484
  17.3685408  55.6333971   9.9158120  96.9333096  57.2473240  50.0873852
  97.7585979  57.1148920  50.5538511  96.5397616  58.0112219  50.5090618
  64.1399956  25.0051713  45.9614420  64.9523926  25.4946971  45.8325768
  63.7178040  25.4335189  46.7060947   2.6798504   8.3688210  89.5933404
   1.7235964   8.3401774  89.5620003   2.9500931   7.4555538  89.4977018
  17.0838916 102.0618820  61.8349648  17.8012180 101.4614677  61.6320324
  16.2997341 101.5132713  61.8160057  22.2068042  93.8517016  80.7870224
  21.2761015  94.0419119  80.9046915  22.4339372  93.2963794  81.5328482
   1.6949055  46.1871529  18.5097826   1.0896565  46.3245535  17.7810669
   1.1666065  46.3431549  19.2925954  31.1351800  51.6314125  39.1645956
  31.4512634  52.1132088  38.4002709  31.3875604  50.7234955  38.9966059
  29.0904856  88.2900715   8.9990854  29.6155262  87.6941013   9.5332974
  28.2745600  88.3946705   9.4885337  19.7252762  41.4368773  39.5876098
  19.1964245  42.1138906  39.1654754  20.3936934  41.9220400  40.0714111
  50.3025246  55.2396202  26.3494468  49.7139263  55.3782797  25.6074524
  49.7915363  55.5063772  27.1136236   6.2048042  64.4658899  25.1778269
   6.1238784  64.6411228  26.1153650   6.6980338  63.6470079  25.1289248
   7.7604431  41.1936855  24.1105962   7.9072165  40.7183647  23.2928205
   7.1994084  40.6148100  24.6267128  31.6903830  46.3594198  88.2272816
  32.1926022  45.5636740  88.0517960  31.1335683  46.4661837  87.4560547
 109.7483845  44.6197033  49.6221828 109.9976034  44.7788906  48.7118101
 109.9389304  43.6924505  49.7640419   8.5992002  55.8709145  33.3016515
   8.4760135  56.2214851  32.4195194   9.5485961  55.7996464  33.4006429
 104.3247326  65.1409054  18.4757018 104.4302435  65.8559656  17.8481734
 104.8573311  64.4295359  18.1199980  32.0130014  59.3137264   7.5090814
  32.7523875  59.1287756   6.9300026  31.8390775  60.2467680   7.3849100
  37.2587681  38.2453179  36.0721135  36.3120508  38.2619429  36.2124038
  37.6146150  38.7892056  36.7748141  21.4939308  36.5773249  26.4441752
  21.5404320  35.6217742  26.4126682  21.5364361  36.8495417  25.5274844
  34.7204828  39.2706275  36.6986513  34.5951819  38.7774324  37.5093842
  34.5982695  40.1851940  36.9533396  12.2399700  57.1644640  36.2039614
  12.9400182  57.6537180  36.6361570  12.1573937  56.3606882  36.7171478
  36.5751004  74.2921734   7.4004412  35.6429338  74.1068983   7.5143403
  36.7599058  74.9877405   8.0315232  60.2782869  12.2120357  10.8240080
  59.6346855  12.8252149  11.1790013  59.8966742  11.3479590  10.9788406
  40.1917315  53.6298656  36.3619232  40.2925491  53.7980604  37.2988224
  41.0478592  53.8378906  35.9877491  41.4151621  48.4944391  29.5122862
  41.9074869  47.6765585  29.4421506  41.5634155  48.9357090  28.6759067
  12.9795885  77.6208544  24.3355823  13.8215125  77.4574947  23.9104843
  12.5141013  78.1987190  23.7309122  41.0098696  55.0299549   9.4455022
  40.7962894  55.4502678   8.6124665  40.6337976  54.1525984   9.3744552
  11.4432597  41.8913507   1.8870535  11.4273238  41.1898041   2.5380594
  11.8607366  41.4977074   1.1209018   2.8657302  41.6767359   6.2766147
   2.1404260  41.6200924   6.8986732   2.5277415  42.2181654   5.5632776
  64.8870182  36.7190433  33.6560678  65.1006937  37.0737362  32.7930689
  65.2708578  35.8421731  33.6563659  59.7951514  76.4753359  84.7930911
  60.0392443  76.7829579  83.9201549  60.5154020  76.7578786  85.3566876
  57.4044371  20.2347803   6.1639565  56.5938044  19.8721242   5.8067667
  58.0285645  19.5100784   6.1251581  28.7744927  62.0112133  32.3444462
  29.5708752  61.5701103  32.6401472  28.7890983  61.9187260  31.3918376
  89.8123492   7.8605746  92.7662116  89.3790496   7.5006722  91.9922912
  90.7155372   7.5503586  92.7010357  13.8533568   8.4456402  27.1537018
  14.7356617   8.2923949  27.4917650  13.9882576   8.7123626  26.2443662
  56.3358879  59.1058731   8.3081132  56.2261820  58.8398314   7.3951954
  57.2697926  58.9875650   8.4814918  19.4303143   3.6862320  11.2148547
  19.6348488   3.2417160  10.3921747  19.2581499   2.9768515  11.8340242
 107.5479872 107.5194686  86.3647535 106.6863472 107.9326671  86.3093105
 108.0267746 107.8617471  85.6098762  28.8056445  51.1242294  35.4172063
  29.1189146  52.0007086  35.1938772  28.6759853  51.1505556  36.3652182
  14.2343473  55.2709341  54.8820782  13.7304807  55.3558302  55.6914854
  13.5826278  55.3470087  54.1851473  12.7408826  22.9703784  38.2657886
  13.0102420  22.3966408  37.5485015  11.8093181  23.1264925  38.1107140
 116.6704804  14.7952914  32.4012184 115.9585492  14.7853065  33.0409741
 116.2806100  15.1774514  31.6149712  36.1381650  27.3308325  36.1063337
  35.4773140  27.7529931  36.6552305  36.6228127  26.7650151  36.7073321
   7.9738682   0.4613827  89.6057638   8.8942021   0.5047272  89.8652693
   7.8208369   1.2770413  89.1287842  23.9908075  12.6745272  54.7788954
  23.3326888  12.0634413  54.4477081  24.6152282  12.1222508  55.2493429
 107.6028128  28.3064818  25.1325154 107.2002561  28.3353186  26.0004735
 107.5495918  29.2074800  24.8137617  12.2864294  47.9506731  17.4961853
  13.1026125  47.9779911  17.9955161  11.8266630  47.1806383  17.8306866
  76.1379487 100.2725632  20.2966309  75.7353164 100.1271744  19.4404876
  76.6724711  99.4925899  20.4454899  21.8422174  48.4093332  26.4111018
  22.2969079  49.1233444  25.9642529  21.0673547  48.8210583  26.7935944
   3.8119420  58.7997055  44.0093422   3.9299163  58.3278847  44.8337841
   4.1991287  58.2264280  43.3477783  16.9399941  57.6568413  49.8080111
  17.0114362  57.0721817  50.5625296  17.5926292  57.3297358  49.1889000
  22.4108577  26.0873175  48.8238001  22.4227476  26.0570431  47.8671551
  21.5332699  26.4006662  49.0426254  49.4486231  72.5777298  90.9959915
  49.9875397  72.5296014  91.7856014  50.0150377  72.9907935  90.3442374
  33.0680633  46.3649559  34.1148257  33.6064339  46.8064165  34.7717142
  33.3410358  46.7510939  33.2825899  22.0084572  54.0869999  40.8375263
  22.7469587  53.6162710  40.4511833  22.2198033  54.1406536  41.7695570
  30.0102782  51.3189077  16.2775755  30.0318146  50.7158232  17.0205820
  30.0387096  52.1893644  16.6747260  85.3994329  17.3847435  87.2529390
  85.7124282  18.1507109  87.7341416  84.5499916  17.1852873  87.6465103
  38.1827426   1.4536855   7.3808950  38.6192441   1.1292376   8.1685698
  37.5040889   2.0436461   7.7089298  20.5019426  65.5544806  25.3611541
  20.9783554  65.3198051  24.5647907  20.8672595  64.9824905  26.0361385
  19.7153544  19.2344630  23.4840679  19.0632558  18.6081028  23.7981915
  19.8813486  18.9733934  22.5782442 111.6973080  22.4987221  17.3748028
 112.3600961  22.3666072  16.6969466 111.5597112  21.6281438  17.7481556
  66.1699499  31.0218714  92.7617001  65.9546567  31.0571764  93.6937055
  67.1018852  31.2368677  92.7228471  25.7139349  30.7264876  35.0535202
  26.6133952  30.9020925  35.3298593  25.4934001  31.4579725  34.4768691
  31.5085578  44.6645260   7.2626746  31.4920807  45.4950142   6.7870182
  30.9968591  44.0663862   6.7180431  14.1692317  63.0877018  44.7845173
  13.8708949  62.8759336  45.6690407  13.6684763  63.8668919  44.5429754
 115.3422828  14.3275678  28.8444328 115.1927231  14.6387303  27.9516602
 115.1842235  15.0944614  29.3949986  33.3439708  44.2863321  13.9651966
  32.7631402  43.7379265  13.4378254  34.2043352  43.8756704  13.8793790
  78.5047054  43.3356619  30.1267576  78.7077284  43.7023354  29.2661953
  77.6465750  43.6989737  30.3455162  52.0108986  45.7080889  32.5845718
  51.3546658  45.0681829  32.8604603  52.8243780  45.4064465  32.9889083
  44.9430466  28.9386797  47.7025175  44.7788906  28.9801383  46.7604113
  44.2845488  29.5178819  48.0860996  21.2217021  81.0741234   6.4843875
  20.9678173  81.5859127   7.2523987  20.4673505  80.5106926   6.3119715
  43.2081890  60.3653002   7.8244734  43.2773495  60.5850506   6.8954104
  42.3473310  59.9556637   7.9102641  43.3661795  91.0115623  32.3164248
  42.6224804  90.4100418  32.2802067  43.5492563  91.1100960  33.2507730
  21.3662362  55.0871181   5.0398344  20.9181833  54.3629456   5.4769313
  22.2307873  55.1161432   5.4496402  23.6613805  88.2932895  82.5218418
  22.8414923  88.7638682  82.3716083  24.0533239  88.2114118  81.6524115
  52.9521513  90.3624821  25.8485794  53.5344982  90.8293343  26.4478731
  53.4932423  90.1837158  25.0794935  17.6060140  45.2706480  24.5266390
  17.7267599  46.2168741  24.6060491  17.1648562  45.1552820  23.6850333
  47.4152416 106.0207742  77.2486773  47.2075862 106.9448512  77.3872176
  48.3716649 105.9913343  77.2237876  23.8083196  67.4287510  18.5125661
  23.4625030  68.0260658  19.1757822  23.0389309  67.1522045  18.0147743
 112.6698745  -0.0376131  96.0697057 112.3799385   0.8259009  96.3638386
 112.2114552  -0.6522133  96.6427235  17.8655565  14.1878045   3.0226186
  18.7001169  13.8869894   3.3821326  18.0782473  14.4811654   2.1366537
  20.9543824  83.4894180   7.8739029  21.6312313  84.0726471   7.5304753
  20.8791518  83.7277222   8.7979066   8.7266529  68.3328772  48.7089300
   7.8960651  67.9769754  49.0246630   8.4749359  69.0642881  48.1450939
  27.0313644  82.7166462  21.3942289  27.3182678  81.8034554  21.3941908
  27.4566531  83.1013584  20.6278324 103.9012094  33.1290030  13.8914669
 104.7426005  32.8870893  13.5044670 104.0444894  33.0645323  14.8356843
   6.8356001  79.8420525  47.7632046   6.9844103  80.6422806  47.2594976
   5.8880097  79.7108889  47.7300310  47.9512691  43.3049440  37.8369522
  47.8433466  42.3850965  37.5951672  48.6217833  43.2959747  38.5200000
  25.7980728  20.2868986  26.9260430  26.1278248  19.8895907  27.7320480
  26.1087704  21.1916161  26.9604588  65.0077772  44.0038395  14.1941988
  65.5044937  43.7538767  14.9733150  65.1205111  44.9523687  14.1323841
 110.1703848 100.9461212  16.1576474 111.1128546 100.7909012  16.0952699
 109.9597861 100.7754803  17.0756686  14.1361845  89.0978718   9.5758736
  14.8953176  88.6192036   9.2429602  14.4164300  90.0130463   9.5877147
  88.1495476  60.9093237  14.0938282  87.2059917  60.9125471  14.2548513
  88.5036659  61.5279198  14.7327065  76.8738556  67.9010582  25.8094335
  76.1897373  68.4864998  25.4846716  76.5991879  67.0298529  25.5234504
 107.8473462  60.9242628  78.5589185 108.7533153  60.6849955  78.7543765
 107.5677694  61.4411066  79.3145254   0.7910367 106.1962891  49.3320227
   0.7050631 105.4429722  49.9162817   0.1368337 106.8198490  49.6473408
  25.6618738  51.5768051  16.1227214  24.9009156  51.4579248  16.6910875
  26.2119389  50.8128500  16.2960148  11.9007254  63.7701130  49.5523882
  12.0032203  63.6898470  50.5006933  11.0002410  64.0721560  49.4335222
 112.2580697  87.1473026  42.4916363 111.9306250  87.8145504  43.0947876
 113.2104357  87.2343826  42.5322342  55.5026817  39.4008398  25.5456686
  54.6130848  39.6150804  25.2646852  56.0269022  39.4599295  24.7469592
  21.8880153  94.4814396  21.6048646  21.8183041  93.7052345  22.1606326
  21.8068242  94.1450787  20.7123947  33.1893366  29.2494582  89.2465517
  32.8768366  29.6290110  88.4252658  34.1350287  29.3969248  89.2340162
  27.2787952 100.5293465  18.6254966  26.7687178 101.1847687  19.1013873
  27.1370268 100.7394218  17.7024591   1.5747040  21.5777920  86.9841733
   1.9780606  21.4406822  87.8413424   2.2020739  21.2088297  86.3624754
  13.0367661  51.4375067  11.6382158  13.3982277  50.5519152  11.6742897
  12.0883119  51.3101196  11.6591287   1.3070887   9.4587611  80.6024709
   1.0681074   9.6574782  79.6971360   1.6553705  10.2821396  80.9444967
 112.5172533  67.3543501   3.1758404 112.4411507  66.4921904   2.7670372
 113.1046100  67.2160912   3.9188936  41.8535995  72.6516962   7.8062260
  41.9585943  73.0215645   6.9296390  41.1732531  73.1884480   8.2127506
   1.6149543  44.6269608  12.3209894   2.2199309  44.2498302  12.9597437
   2.1812189  45.0498056  11.6754055  19.5779967  61.9063997   2.0222831
  19.7333002  62.7916002   2.3517266  19.4822466  62.0162916   1.0762452
  22.2388523  16.1872242  93.6129615  22.4786347  16.8361185  92.9513940
  22.1760386  16.6869829  94.4269198  28.0943322  38.0868673  42.9591751
  27.6546812  37.3269439  42.5777912  28.2171059  37.8554726  43.8798332
  12.1059573  69.7003222  10.1864707  11.7437017  68.8242102  10.3184831
  11.5363336  70.2746439  10.6982481  90.5746246  25.0827692  67.0542005
  89.6488966  25.1665209  66.8256309  90.8258832  25.9546374  67.3590687
  39.4722748  31.0598636  41.9595575  40.0316429  31.5403008  42.5698996
  39.1553187  30.3107285  42.4641037  15.8635414  77.3045301  71.1296082
  15.1158738  77.6967049  71.5806293  15.5734444  77.2103310  70.2223015
  93.7803091  23.3479784  84.4944146  93.2222606  23.3248375  83.7170628
  93.5865320  22.5303124  84.9527898  34.9806547  40.6715775  10.9748411
  35.8614469  40.6060600  11.3438213  35.1042128  41.1198139  10.1381516
  16.2839293  48.7449789  51.5383768  15.4556000  48.7506485  51.0587215
  16.2994707  49.5836878  51.9994259 116.9778508  46.8061972  20.2807355
 117.1202110  47.6891470  19.9396205 117.5182782  46.7641973  21.0696626
  24.2489839  42.3680782  48.2635975  24.7391438  42.8232574  47.5789165
  24.1605568  43.0139446  48.9645052  18.8792825  62.9023027  27.4309278
  18.0689168  63.1589460  26.9908404  18.8867962  63.4167957  28.2380676
  21.6030264  83.7297153  14.8278356  21.3267064  84.3631172  14.1655099
  20.8367634  83.6228180  15.3914380  25.4210711  41.7063093  20.3489304
  25.5087566  41.4289045  21.2608457  24.4918132  41.5894222  20.1513195
  23.0344987  87.0836544  22.4179697  23.5299659  87.0537853  23.2364154
  23.6786270  86.8781281  21.7404103  17.7595711  60.6904364  49.6853685
  17.0589232  61.3211727  49.8511839  17.3715103  59.8408413  49.8947287
  17.3864436  26.9710636  65.2720785  17.9676104  26.7765617  66.0073662
  17.1986485  27.9059005  65.3560019  27.1185136  75.1532984  26.8664980
  26.2901378  75.6071854  27.0214534  27.6761055  75.8088779  26.4475226
  32.9300183  19.9372671  72.2431186  33.4621352  19.3086050  72.7308372
  32.1861857  20.1181553  72.8177669  41.2509823  41.4989519  47.7798510
  41.9237900  41.8126011  47.1755409  41.4258432  41.9665098  48.5965824
  22.8389192  48.4762716  50.2735138  23.3249092  47.7337790  50.6323290
  22.9443359  49.1691208  50.9254980  95.7208634  24.5533369  86.3348546
  94.9687148  24.3152331  85.7928100  96.3976134  24.8070906  85.7072773
 106.8106480  86.6678524  14.4845140 106.6147108  86.2480450  13.6468983
 106.3094981  87.4831867  14.4668102  23.4747529  81.6266251  19.9578369
  23.0648065  82.3797798  20.3831935  22.9093027  80.8876514  20.1823545
  58.4823448   2.3839622  16.6368651  59.4188458   2.3008971  16.4571512
  58.3425981   3.3241515  16.7497802  26.6598725  89.5795631  37.5131416
  27.5174165  89.9347591  37.7469969  26.1124992  90.3512669  37.3679113
  96.2024201  36.8548296  92.9860598  97.0270909  37.2218798  93.3045253
  96.3541389  36.6979788  92.0540657  25.0420976  54.4576025  26.8321061
  24.4632936  55.1891804  26.6175985  24.6742940  54.0886879  27.6351333
  35.3220892  60.1062870   2.9444662  35.4977632  59.4024467   2.3199821
  34.6621275  60.6495190   2.5136733  18.7325990  70.9964371  50.1632166
  19.1810071  70.2773285  50.6082296  19.3739986  71.7068291  50.1496887
   1.9988845  74.5859051  51.8239737   2.3926979  75.4582644  51.8122005
   1.0888468  74.7373676  52.0791626  16.4555883  57.9955578  28.0119443
  16.8703508  57.6694727  27.2132754  15.6873894  58.4763193  27.7037716
  29.2768669  41.7050457  16.8633711  29.8296881  41.4617682  16.1207843
  29.8007417  41.4858484  17.6339161  85.7135708  93.9788311  83.4173098
  86.3220245  94.5544046  82.9539195  84.8982698  94.4783490  83.4619787
  19.4093788  38.5583544  10.2574730  18.9829814  38.1660676   9.4955486
  20.0251174  39.1912365   9.8879367  33.8185287  53.8721895  40.3562832
  34.0746737  52.9502535  40.3307772  34.6467018  54.3515968  40.3331757
 116.6946311  68.0169964  22.5746202 117.1550316  67.4703598  23.2113719
 115.7926738  67.6969910  22.5920153  52.3157114 102.6502841  96.0660115
  52.3475713 102.2053378  95.2191111  52.2452039 103.5791915  95.8460337
   7.2888964  34.2673586  87.8465292   7.4074381  33.6311339  87.1412721
   6.4165467  34.6316241  87.6963630  48.8577557  52.2219229  43.3898067
  48.8110304  52.9436684  42.7628040  48.1372023  52.3861074  43.9981461
 105.1227940   9.0061091  91.2967738 104.2789663   8.8497446  91.7207250
 105.2190221   8.2805346  90.6799158 103.3638752  12.9683255  89.8466554
 104.3109787  13.0258320  89.7204909 102.9997457  13.5847710  89.2113325
  26.6568637  91.8154144  50.6820011  27.0933342  91.5093613  49.8869848
  25.7425332  91.9316006  50.4236746  31.2507653  60.5631113  32.7451825
  31.6199923  60.7351732  33.6113811  31.9971061  60.2750921  32.2195840
 106.1204691  78.7180090  20.1113868 106.4894111  78.4063816  20.9378266
 105.2035256  78.9040422  20.3134727 117.4080795  87.5351810  46.7852449
 117.7081497  88.1108189  46.0818052 116.6115950  87.9527378  47.1130991
  77.9233503 102.1426487   2.8599611  77.9420757 101.4079571   3.4732440
  77.9827118 101.7349720   1.9959512  29.8196697  52.3816538  28.7874413
  29.0048409  52.0836878  28.3830881  29.8930454  51.8631172  29.5886683
  12.1093142  40.0744772  22.1274114  11.1610031  39.9469280  22.1015453
  12.4675429  39.1910386  22.2136664  11.4083731  68.4766865  40.1386547
  10.8604741  68.2801104  39.3787909  11.5050781  67.6369905  40.5878687
  37.1331120  66.9514894   5.0722790  36.6221642  66.1687756   5.2784896
  37.6207566  66.7179680   4.2824030  17.3585260  55.1817513  24.6166587
  17.7254009  54.9426746  23.7654972  16.5798903  54.6320343  24.7048020
  52.3751211  58.7432480  10.2205014  52.4630642  59.4442987   9.5747280
  53.1030226  58.1510067  10.0317085  78.0952835  53.2964945   4.7244394
  77.6900911  53.8364744   4.0458614  78.5812283  52.6286221   4.2406639
   6.9904071  50.3267431  54.0195608   7.4610591  50.3942060  53.1887960
   7.3703909  49.5600414  54.4485331  92.8387928  16.6355669   3.2253063
  92.0474052  16.1493707   2.9938671  93.2350445  16.1257577   3.9319241
  30.5667496  59.7101641  13.4854054  30.5428672  60.5041981  12.9513896
  29.8677206  59.1613293  13.1299162  30.0424933  50.9445095  32.1541357
  29.6940303  50.4286242  32.8812313  30.8233523  51.3665104  32.5124741
   4.4133365  71.8645048  27.2743917   3.5805494  72.1945047  27.6117301
   4.8014554  72.6128006  26.8209076  48.5576296  30.8578515  21.1561346
  48.3524942  30.0322628  21.5949440  47.8161955  31.4279866  21.3597274
  92.2033585  21.2527798  93.8183167  92.4293078  21.1745070  94.7451673
  91.4945556  20.6223057  93.6905119   2.3471139  68.2591105   9.4768345
   2.1090180  68.8093710  10.2229929   1.8419756  67.4555779   9.6009636
  13.6758471  74.0692997  29.1634679  13.2558274  74.8457003  29.5336246
  14.6135795  74.2490768  29.2310786  15.5819464  70.6565619   7.6559341
  14.7494113  71.1275005   7.6194030  16.0086918  70.8595848   6.8235260
   3.1965584  58.7191820  31.1646366   2.3671377  58.2415104  31.1757636
   2.9646540  59.5945930  30.8546185  51.1013603  68.0791569  11.2931085
  51.5165091  67.2645903  11.0096073  51.2533140  68.6892509  10.5713546
 103.0930985  25.1412867  88.5387799 103.0889119  26.0805128  88.3541921
 102.8084792  24.7350310  87.7201333  17.7415824  73.1607294  30.8153915
  17.0546305  73.8049841  30.9864473  17.2733736  72.3922968  30.4890108
  48.3238554  62.5771046  17.6630521  49.0836430  63.0081367  17.2716856
  48.2073879  61.7804575  17.1453524  54.4835091  93.6885166   3.2711881
  54.2152023  92.7723694   3.2011390  55.1096010  93.7000465   3.9951414
   1.4779732  64.8767138  61.4650488   1.4919697  63.9236116  61.3776541
   1.7274322  65.2002907  60.5994320 112.4651605  97.5664514  56.7219475
 112.1826011  97.0343106  55.9781578 112.3116428  98.4690612  56.4427307
  31.4052939  55.8487272  23.7701726  31.5356016  55.9468460  22.8269744
  30.5520964  55.4224062  23.8510156  40.3420687  60.4623938  28.3459854
  40.6624365  59.6526575  28.7433863  40.3745079  60.2960110  27.4039149
  58.1684685  72.4540043  14.9345875  57.5631809  71.9993973  15.5204141
  58.1006002  71.9803572  14.1055632  38.0498815  80.0534058   4.5548731
  37.4311638  79.6012640   5.1284480  38.3395505  80.8102703   5.0642616
  20.6488055  29.5287226  95.0666952  21.2705248  28.8577364  94.7847758
  21.0359591  29.8950671  95.8617631  46.5212774  87.0771694  23.7116814
  47.1822786  86.4083958  23.5326505  45.8207846  86.6066647  24.1635323
  34.5473981  55.1048517  18.1740522  34.7729206  55.7946825  18.7981570
  34.0434265  55.5522633  17.4942958  36.5345287  82.2289753  15.9743702
  35.6144810  82.3704433  16.1973774  36.9316506  81.9122124  16.7856574
 110.9932006  43.1379507  85.8491734 110.7888354  42.2432993  85.5770460
 110.2131856  43.6425398  85.6185201  24.3450952  81.8855381   7.0859361
  23.4371805  81.6832924   6.8600655  24.8603749  81.4929771   6.3812298
  47.4447489  91.8916416  12.0884037  48.1901360  91.5212727  11.6156936
  46.6909552  91.3901520  11.7777133  46.3590050  55.1358080  29.1542053
  46.1747456  54.5085812  29.8533964  46.1443758  54.6660185  28.3483124
  43.7684345  91.8458557  19.7360134  44.4198227  92.4652195  20.0651169
  44.2573977  91.2778187  19.1406250  63.8424683 108.0399323  21.6270232
  63.4549761 107.1659756  21.6748118  63.4031343 108.5348606  22.3185921
  45.7320213  84.1097069  34.2469168  45.7805443  83.2935810  34.7447228
  46.5484190  84.1347313  33.7478161 105.7063402  54.2354105  81.3584545
 105.1032556  53.5940455  81.7341795 106.4660514  53.7198923  81.0877016
  56.3866282 106.4958477  38.3575559  57.3256159 106.4568710  38.1758547
  56.0373306 105.6848049  37.9882002  56.9896936  98.8718987  25.9845090
  56.7825651  98.1523991  26.5808654  56.6112423  99.6456051  26.4021063
  53.7336731  78.4052801  20.4951453  53.5022449  79.2315817  20.9192872
  53.3751392  77.7311182  21.0723782  37.7108881   5.2238135  47.9500484
  36.9196384   5.7138877  47.7264833  37.8785597   4.6766715  47.1827412
  14.5979726  78.6329794  33.7373996  13.7821758  79.1279745  33.6619830
  14.8474467  78.7211323  34.6573043  60.9747458  81.1443996  58.8830280
  61.8522978  80.7821369  58.7609720  60.4828787  80.8431244  58.1191349
  26.9616747  76.7357492  17.2719443  26.0868192  76.4027882  17.0719409
  27.5291419  76.3251638  16.6195405  74.6645600  12.1625571  40.8056927
  73.7509138  11.9375663  40.6300068  74.6870167  13.1187968  40.7692528
  37.9229832  84.6969032  20.5754709  38.1321096  84.6388721  21.5077424
  37.4521112  85.5255413  20.4867578  44.9130869  95.0420380  37.7716804
  45.5751371  95.6067944  38.1704021  45.2813148  94.8054218  36.9204140
  63.4783506  75.8403873  14.1442490  63.6090231  75.0675678  14.6937072
  62.5358868  75.8595037  13.9780235  57.6640272  83.6633396   4.6060860
  58.1884193  84.2953968   4.1144115  58.2992601  83.0232525   4.9270251
  40.5626774  94.1701889  64.9922276  40.2269745  94.9704456  64.5883560
  39.9676585  93.4828758  64.6925783  72.3793507  72.6096439  16.2668622
  71.4269352  72.6785231  16.3330781  72.6074314  73.1571436  15.5155587
  45.5990648 108.9559078  30.1776052  46.3527870 109.4876003  29.9218082
  45.4693604 109.1547012  31.1049080   8.4998876  68.9211369  12.6604187
   8.1928420  68.5045815  11.8551636   8.5713500  68.2030821  13.2893240
  15.8355193  62.3872948  29.9899817  16.3450293  61.6580915  29.6365762
  14.9295096  62.1792507  29.7617555  60.7233054  10.3780131  45.9797859
  60.0774342  10.2809291  46.6795397  61.3146478  11.0624747  46.2929296
  55.6048107 103.9443970  37.7685976  55.2814817 103.3925056  37.0564818
  56.3456631 103.4584141  38.1308007  12.2221279  97.3950863  46.0131598
  11.5647864  97.8704643  45.5050755  12.5478339  98.0372620  46.6438389
  40.5813313 106.0932827  28.5304332  40.5901670 106.7053604  29.2663097
  40.5541658 106.6525173  27.7540612  74.1371674  37.1047591  86.6140011
  74.0255792  36.9072626  85.6840685  73.9919136  38.0487440  86.6774836
  26.4131832  48.2426500  14.7160435  25.5330777  48.2206631  14.3403256
  26.3208628  47.8151798  15.5675006  65.1264858  70.1087427  27.0266962
  65.0390863  71.0593891  26.9569635  64.5851851  69.7656584  26.3156986
  36.9483995 100.4141331  16.6596687  36.0991812  99.9743748  16.7005777
  37.0131183 100.7265282  15.7571995  73.2180530   3.0221515  17.0975280
  73.0954797   2.6362281  17.9648638  74.1350157   3.2964664  17.0848441
  48.2992887  89.5722866  13.9793313  47.4262476  89.1805744  13.9549875
  48.2415438  90.3230095  13.3882976  26.5768123  77.0218372   0.8244766
  26.9654942  76.1663723   0.6418771  26.8095160  77.5574493   0.0660569
  10.5245054  88.6249256  22.7909184  10.0965953  88.2536793  23.5624766
  11.4566684  88.6199284  23.0083585  37.1598601  34.3001676  30.9288573
  37.5008988  35.0486302  31.4184737  37.4544287  33.5357547  31.4239669
  41.2100649  93.4560776  12.1928966  41.7034578  93.7205505  11.4164627
  40.8681488  94.2756844  12.5500762  91.0997802  11.9375949   4.7921532
  90.8251411  11.0214191   4.7543371  91.5103275  12.0998149   3.9428222
  74.3628961   0.3535323  12.7342284  75.1341778   0.7329135  13.1554461
  73.6678726   0.4374366  13.3870161  30.4302812  96.6790199  52.2751188
  30.8410716  97.5147724  52.0537567  30.1200724  96.3352776  51.4373541
  78.9741832   3.8935237  19.7662401  78.5863907   4.7685390  19.7800052
  79.8892719   4.0332370  20.0098014  33.8757801  97.9078293  11.1877370
  34.4068623  98.4622765  10.6160998  32.9808950  98.2243824  11.0644364
   7.3410064  91.7275429  36.0061431   6.4210284  91.6236591  35.7630801
   7.5624764  90.9137917  36.4589047  14.8683756   8.9093922  94.8476384
  15.8212918   8.9010046  94.7575788  14.6527499   8.0428932  95.1924781
  68.4662819 108.3046436   5.1188761  68.8753986 108.3724880   5.9815770
  68.9501095 108.9260483   4.5748183  11.6528290  29.9518679  85.8534255
  11.4492815  29.2473315  85.2382663  12.1594256  29.5267199  86.5454069
  27.4892688  68.3720875  14.6811545  28.3637094  67.9926348  14.5939612
  26.9319844  67.8174829  14.1351891  49.1652632  47.1004534  25.0593305
  49.5347071  46.5917969  24.3375206  49.6522331  46.8103361  25.8306432
 110.6024915   9.2754035   0.4315202 109.8484499   9.7590594   0.0942741
 111.3510639   9.8451476   0.2546890  48.9992380  91.1101437  50.4694176
  48.9533281  90.6934071  51.3299131  48.3362103  91.7997742  50.5016041
  11.8160594  82.7321911   3.4565443  11.4487004  83.1052303   4.2578661
  11.1407638  82.8764820   2.7936822  74.7696811  13.0145984  31.9502068
  74.2921430  12.2668033  32.3093581  74.2214615  13.7711768  32.1582317
  24.4215107  76.1854124  16.1056983  23.6558485  75.8561802  16.5764415
  24.2047262  77.0953178  15.9024572  56.8356466  89.3525600  55.9790516
  57.1901512  89.6577358  56.8141699  57.1968460  88.4725094  55.8727980
   4.3915974   4.5192962  20.8280611   4.9478280   4.4828181  20.0499177
   4.9745022   4.2852454  21.5503287  63.6399585   2.0377879  38.1068063
  62.7271253   1.7519717  38.0710506  64.1459996   1.2254005  38.0933189
  60.4760027  65.7987213   8.2287419  60.1900005  65.5859137   9.1170824
  60.0337267  66.6229820   8.0257285  60.1359565  15.2021365   0.1019594
  59.3668837  14.6720653   0.3112058  60.2551562  15.7639747   0.8676983
  38.6252785  77.3985100   6.7103940  39.5668387  77.2549295   6.8056929
  38.4302354  77.1219254   5.8150226  26.7549324  86.6362572  35.7298398
  26.2319303  86.0200310  36.2426400  27.2040296  87.1715546  36.3840556
  74.9915934  88.0677986   9.3722188  74.8539829  88.6552143  10.1153445
  75.2793121  88.6423969   8.6627901  37.4260879  70.5911350   7.6569462
  37.8383112  71.3494873   7.2431743  37.4236155  69.9185562   6.9758713
  18.0429506  96.4540100  19.4489384  18.7725997  96.4826202  18.8300490
  17.3472250  96.9541645  19.0222645  49.5913744  53.1689644  20.8898473
  49.8327923  52.3461866  20.4644227  49.5801735  53.8112450  20.1802111
 111.8359984  35.7641886  94.9560621 112.5617279  36.2592791  95.3361116
 111.5586794  36.2857912  94.2028957  37.4013186  73.5719776  14.3395066
  36.9549179  72.8554153  13.8884044  38.3017325  73.2647181  14.4447744
  49.5635414 104.2978764  14.5599723  48.7440968 104.7735691  14.4240952
  50.2475595 104.9413967  14.3749368  93.2121355 109.3969529  91.1273804
  92.5940639 109.0586513  91.7752769  94.0308840 108.9379113  91.3148913
  45.9139872  86.4781094  36.1011672  45.3174305  86.9354343  35.5085373
  46.1208344  85.6603336  35.6487417  39.0129423  97.3400211  16.9909561
  38.9492822  98.2787704  16.8150878  39.9403238  97.1360588  16.8701375
 112.7394904  33.2393168  95.7431961 113.5759986  33.7033652  95.7770347
 112.1040548  33.9091395  95.4906359  29.8095727 101.5620899  12.6566660
  30.4252768 101.3854790  11.9453657  29.8618484 102.5086308  12.7892053
  17.1952784  86.4741230  50.7172537  16.3779569  86.9602585  50.8263016
  16.9470823  85.5577946  50.8395958  49.6407700  85.2130318   8.9290679
  48.9489412  85.1189899   9.5838678  50.4477930  85.0113583   9.4026393
 107.7971066  12.9077338  92.1742582 106.8985475  12.8980015  92.5040006
 108.1042064  13.7986563  92.3421410   5.6476504 109.4823170   0.2276908
   5.9623420 108.6126900  -0.0191750   6.3225186 110.0809860  -0.0922725
  49.4604397 109.5465183  41.9012690  49.1101694 109.8976421  42.7199602
  50.2767372 110.0272751  41.7642927  17.9166818  86.8520164  28.4113145
  18.0658078  86.1970997  29.0932894  18.7669146  87.2765732  28.2969379
  73.7811000   6.3066535  10.7592952  73.5626203   5.5810504  11.3440931
  73.9815957   5.8877044   9.9223310  39.8252964  90.7122993  23.0769110
  39.6776676  89.7708511  22.9867554  40.6767988  90.8616447  22.6659703
  57.5168902   7.6805167   1.5606357  58.1893713   8.0497413   2.1330604
  57.9904873   7.0657210   1.0003040  48.9430857  94.5392227  32.4711967
  48.4523106  93.7451744  32.2593856  48.2824945  95.2317238  32.4880981
   5.3849137  37.1565080  18.5247159   4.9122807  37.8054476  18.0034435
   5.5281460  37.5852776  19.3684423  48.5428047  80.9690380  22.4475622
  48.6819172  81.9125462  22.5292563  48.7323236  80.6226158  23.3195162
  81.9127369  80.2125263  26.5801954  82.3935318  79.4139862  26.3624668
  80.9914207  79.9561691  26.5388727   6.3898432  70.3938007  42.1933937
   5.5607843  70.7284117  42.5353384   6.5591758  69.6037483  42.7065897
  84.9618912  78.1527138  20.1933146  85.2918720  78.8214350  19.5931888
  84.7911263  78.6252785  21.0080242  49.9280405 110.0011349  21.9697237
  49.3560886 109.4906044  21.3966107  49.9770069 110.8619690  21.5540433
  17.6850765   6.6555737  79.7122505  18.1700438   6.1832140  79.0355566
  16.9871491   7.1059082  79.2365077  42.8916025  86.1511040  35.5286193
  43.4885311  86.8353271  35.2257133  42.4405766  86.5410328  36.2774611
  37.1245646  77.1344900   9.0607828  37.8439903  77.2230482   9.6859366
  37.5278187  77.2938347   8.2074201  16.3532972 108.6516094   4.1034484
  15.4563570 108.8428497   3.8293064  16.8974316 108.9765549   3.3861196
  24.6229458  81.4473724  11.6611814  24.8836231  82.1136475  12.2970676
  24.9606299  80.6273556  12.0214224 110.9062565  27.4901484  89.9525085
 111.3858474  27.7730749  89.1739353 111.5611185  27.0413492  90.4872671
   9.7149151  13.1835364  71.2998393   9.5241516  14.1179846  71.3813999
  10.4801338  13.1444834  70.7261303  42.5521755  92.9681492  16.6866696
  43.4345484  92.6511669  16.4938402  41.9721889  92.3223591  16.2831688
  48.1309032  66.5358210  14.0908265  48.6236906  65.7198000  14.1774726
  47.3343134  66.2859964  13.6225677 113.8903702  32.5676344  80.4532626
 114.0719808  32.0285891  79.6834043 112.9409421  32.6888655  80.4421976
  12.7785540  95.2790642  44.5303011  12.5380254  96.1140251  44.9318218
  12.2080958  94.6369648  44.9528217 111.8854137  94.6135044  14.7438955
 111.7060549  94.9449062  13.8639891 112.4853261  95.2553272  15.1238942
  28.6024356  94.7383022   5.9567016  28.5417008  93.8000011   5.7774472
  27.7466917  95.0860023   5.7056230   6.1565941  12.7817915  86.8057760
   6.4753216  12.3002718  87.5691774   6.8816679  13.3592604  86.5669766
  77.7374792  79.4260025  23.6279869  78.2344770  80.1129341  23.1837511
  77.1871996  79.0471029  22.9425240  25.3972882  78.6368655  95.8812649
  25.6695479  79.2465590  96.5671024  25.9286707  77.8549383  96.0311591
  33.4988737  98.3274078  28.0291414  32.8455949  99.0218925  27.9445910
  33.0312371  97.6093388  28.4556580  67.7196693  95.4930210  14.1255403
  67.8033590  94.8987865  14.8712730  67.5341988  94.9195290  13.3819425
  51.3512564  60.4493713  15.7887065  50.6950188  60.9854937  15.3435600
  51.4013529  59.6490574  15.2659988  52.0677900  74.3362713   0.8367521
  51.8232012  73.4249258   0.6759331  51.6042089  74.8314285   0.1613685
  39.1024208  72.4980593  16.7051351  39.3178225  71.6552734  16.3057017
  39.9449325  72.9438162  16.7929077  26.3287783  93.0939674   4.0992066
  26.0351872  92.2840500   4.5164207  25.5623293  93.6668968   4.1225484
  56.7342186  67.8631258  15.8477592  56.9095945  66.9464350  15.6352592
  57.0431709  68.3495092  15.0834239  19.7902334  96.3071918   2.8340289
  19.6369076  97.0281696   2.2233593  19.8990309  96.7327118   3.6845168
  51.8658829  82.0921898  29.7373557  52.3066521  81.4678574  30.3136897
  51.1701965  81.5836239  29.3206906  73.1593180  61.2717152   7.9841501
  72.3670769  61.1511183   7.4606663  73.2946777  62.2191811   7.9989749
  11.6091788 100.0256348  41.7635202  12.2279096 100.7389164  41.9204807
  12.1505356  99.3060493  41.4389181  52.1340609  62.4473715  30.4149604
  51.2032557  62.6583338  30.3420067  52.5327253  62.8534555  29.6452880
  87.2509193  89.3922710  42.9396105  87.3576736  88.7588215  43.6492443
  87.4657822  90.2359962  43.3373594  53.7196159  68.1990814   6.2815887
  54.2252159  67.6885843   5.6491399  53.3726501  67.5484276   6.8919110
  66.1957884 107.0364475  23.3005190  65.5029631 106.6636658  22.7553082
  65.7860518 107.7890110  23.7271333  44.3892860  70.8968067   3.3729342
  45.0767088  70.4125595   3.8303024  44.1702318  70.3480244   2.6198816
  61.3492346  58.4019613   3.3136088  62.0238018  58.7845564   2.7525291
  61.4575100  58.8455582   4.1548759  46.3349533  96.5609169  13.2267761
  46.5389395  97.3192787  12.6794910  46.8369007  96.7027950  14.0293646
  47.4839687  95.9357452   8.9570946  48.4368420  96.0265350   8.9618427
  47.1619415  96.8031788   8.7119520  93.2906437  85.4513836   0.4040894
  93.2005215  85.4374790   1.3569362  93.6039066  86.3339138   0.2059891
  29.4392794  28.5747717  80.4873052  30.3564041  28.3143328  80.4019561
  29.4462746  29.2609976  81.1545947  13.4488726  98.9611912  16.8445385
  13.2823694  98.5839367  17.7083588  12.8669250  98.4795952  16.2566340
  78.5718614   2.1192412  55.2625656  79.1460854   2.2087722  54.5019817
  77.7170736   2.4198585  54.9540281  19.1512346  96.9836712  36.9896054
  18.9262223  96.2635708  36.4004922  19.1839707  97.7548790  36.4235759
 113.9697326  65.4526327  91.2393346 114.7781456  65.5405138  90.7343826
 113.8604582  64.5086478  91.3541284  28.3546090 109.8239994   4.7682682
  28.4133363 110.0038815   3.8299581  27.6606917 110.4047108   5.0804979
  83.0624008  99.7372818  13.7897372  83.3711147  98.8749027  14.0676510
  83.3039093  99.7916031  12.8651023  38.8995194  92.9650879  21.7538190
  39.1260386  92.1692467  21.2726021  38.9792371  92.7186489  22.6753116
  70.1488930  30.2077537  33.0097890  69.5668632  30.3665500  33.7529302
  70.5119092  29.3369823  33.1716633 101.1562759  35.3457694  28.0092883
 101.0817606  36.0563808  28.6462450 101.7048151  34.6920447  28.4428501
  93.3991224   4.7925811  40.8378172  94.1105205   4.1920142  40.6154346
  93.4871465   4.9293094  41.7811060  51.8876743 108.5641861  12.3687625
  52.7233362 108.5508251  12.8353739  52.1268940 108.4732723  11.4464068
  36.6133046  86.9246197  19.9321270  37.4077845  87.4149799  20.1432800
  35.9337735  87.5936794  19.8494458   2.6560467  10.7890700  68.2558086
   1.8133419  10.7498835  67.8035381   2.7053850   9.9660776  68.7420991
  50.0150537  85.8488464  28.5223794  49.7831726  86.5546608  27.9188156
  50.9019804  86.0629082  28.8118076  68.0857086  82.9747200  25.7919025
  67.2538900  83.2994747  26.1366367  68.6803913  83.7218666  25.8579540
  24.1431022 104.4554615  52.3129368  23.8851309 105.1089001  52.9630947
  24.9041677 104.0214539  52.6984882  35.2828813 106.3089848  49.5577383
  35.3120446 106.8760586  50.3283358  35.8400750 105.5650806  49.7865725
  59.2122269 106.0879230  38.3749700  59.5546389 106.1878490  37.4867129
  59.6741533 105.3263378  38.7254643   7.7875840   1.7559676  34.4283676
   6.9953953   2.2691398  34.5874977   8.4990250   2.3951011  34.4682860
  56.1938572  77.3572779  32.4622488  56.8377352  76.7896032  32.0386982
  56.7091131  77.9008389  33.0583024  29.1426206  64.1304350   7.9900199
  28.4535146  64.0670061   7.3287022  29.9218011  64.3924379   7.4996436
  53.7004566 104.4432449  11.9314909  53.7832737 104.5721626  12.8763461
  54.2785931 105.1028347  11.5481782  58.9306068  80.5150509  17.4804866
  58.4876299  79.6715450  17.5726891  58.3592224  81.1362648  17.9319775
  47.8291750  91.6692448  20.4729414  47.9328585  91.4554024  19.5457125
  47.8496075  90.8219910  20.9178805 105.9490520  -0.1348348  15.7255626
 106.0411007  -0.3095479  14.7889543 106.5385277   0.6009441  15.8910239
  76.7282104  80.0562000  34.1807914  76.5386200  80.6355190  34.9188089
  76.3652611  79.2096806  34.4413972  61.8727922  67.3806715   4.6826869
  62.5335503  68.0729294   4.6623805  61.9777346  66.9745684   5.5430943
 100.3537399   2.1748119  41.3995314 100.8329899   2.8241782  41.9141912
 100.4852421   2.4449973  40.4907179  36.2016606  99.2218494  28.4696221
  36.3662195  99.1060066  27.5338149  35.2826571  98.9793491  28.5830235
 110.0519783   4.1607719  37.0935464 110.4222948   4.9908118  36.7933416
 110.1134235   4.2023044  38.0478692  62.5107956  63.7793970  23.1858563
  62.1110201  64.4517374  23.7375498  63.2994604  63.5175419  23.6609101
  43.7335634  33.4190488  18.8509738  44.0655708  32.6786661  18.3431983
  42.8240013  33.1899261  19.0418422  18.3152169  28.8116740  96.1860614
  19.0240114  28.9961813  95.5697846  18.0651634  29.6702193  96.5275233
  68.7017805   6.2988429  56.8456268  67.7621156   6.4772849  56.8833780
  68.7722713   5.4937511  56.3327122  40.4026461  94.4165516  48.3304644
  40.7601166  93.5351181  48.4377909  39.4935441  94.2757607  48.0659914
  39.0248871 108.4362507  33.3550310  39.5248151 108.4299660  34.1712809
  38.4826922 107.6487160  33.4001708  50.4188967  99.6031761  36.3536453
  51.2838125  99.6853065  36.7554021  50.0680542 100.4937553  36.3562465
  21.9007033  46.3959311  95.4141708  22.0959776  45.6746577  94.8159493
  21.9826430  47.1828459  94.8753859  71.7515469  95.4978848  43.5591078
  72.6105642  95.7716751  43.2376051  71.1279917  95.9923172  43.0271769
   0.2460473  43.3906267  70.0609258   0.1669734  42.8092955  69.3045929
  -0.2466900  42.9507063  70.7536867  84.1746998  96.6431713  28.5478354
  84.5772362  97.2858143  27.9637098  83.2492447  96.6439152  28.3033824
   0.1979815  18.8012939  58.3715153   0.2116906  18.4815459  57.4694014
   0.7061802  19.6120410  58.3460093 101.4993132  52.9879950  88.2020947
 100.8139862  53.3605955  87.6473614 101.0479272  52.3304938  88.7314007
  72.4299192  94.5646477  21.3142586  72.5573206  94.2025089  22.1911025
  72.6147413  93.8339710  20.7241774  86.7471964  15.3719478  40.2782440
  87.2891266  15.0045734  40.9765148  87.2823412  15.2858501  39.4892979
  26.8648577  77.7500391   9.3483979  26.7153168  77.2220469  10.1326764
  26.2919807  78.5090351   9.4578171  71.0840184   1.2310462  32.8653502
  72.0224864   1.4170795  32.8953242  71.0165531   0.3029304  33.0895996
 117.4812732 110.8610821  23.6915016 117.2676627 109.9467278  23.5055852
 117.8998229 110.8390522  24.5520616 111.3206751  15.0077396  18.9882886
 110.6303722  14.9703937  18.3262300 111.7141563  14.1352801  18.9735150
  97.9011709  10.7650142  35.1643920  97.2602445  11.4535003  35.3416824
  98.3361799  11.0444217  34.3588305   4.9828437  74.3713760  26.3646221
   5.5482757  75.1043558  26.6080570   4.2000967  74.7837591  25.9992743
  87.4580669  92.7361488  47.7326965  88.2166767  93.3198547  47.7373695
  87.8132439  91.8798637  47.9711199  58.5201454 102.9922676  12.0402074
  58.3984661 103.9342022  11.9210589  59.1802549 102.7519131  11.3900399
  15.2113914 101.8918324  38.1271482  15.1599264 101.5377712  37.2393298
  16.0729396 102.3067188  38.1699777  34.4888705  70.4190253  92.0940208
  35.3363579  70.8621977  92.0540812  34.4645851  70.0268172  92.9668394
  45.9708691  98.7119198  45.9714174  46.2394667  97.8049374  45.8248854
  45.0787354  98.7560844  45.6273556  83.0694103 107.0863628  30.0598001
  82.4988651 107.8429794  29.9247885  82.5030994 106.4282036  30.4627228
 107.4644745  54.3910406  87.8351244 108.0649961  55.1056479  88.0470994
 107.9072870  53.6039828  88.1524321  41.3890284  23.1252621  88.1686285
  41.5081614  23.8446806  87.5485673  40.4809445  22.8494643  88.0439058
 114.4841202  96.8312740  11.6521561 114.4335867  97.7665138  11.8496549
 114.9917327  96.4610672  12.3743105  71.2741518  89.2481232  43.7112045
  71.4034939  89.9487877  44.3504047  72.0782042  88.7307835  43.7569332
  68.7495041  91.9959736   9.6722919  68.5345650  92.8493977   9.2958480
  68.1598711  91.3843250   9.2313331   9.3947255   1.3600783  10.1768851
   9.1939866   0.9146648   9.3537521  10.3510987   1.3769584  10.2130353
  35.0070333  93.6749077  30.4954004  34.3291664  93.2565117  31.0261345
  34.9056697  93.2854080  29.6269226  67.7655315  85.9175110  41.6130114
  67.6244259  86.4767647  40.8491039  68.3785200  86.4090157  42.1597290
  59.4618320  81.2894058   4.8264667  60.2204609  81.8666172   4.7396550
  59.5080996  80.7163048   4.0611857  87.0328743  27.6078944  34.7334146
  87.2451669  26.7410522  35.0794506  86.4090473  27.4378448  34.0276122
  46.0534525  78.7887001  17.2739530  45.2777815  79.3402719  17.3756051
  46.6819620  79.3423176  16.8105805  42.5731134 106.2923527  34.5963407
  43.1602621 106.2668133  35.3518772  43.0028915 106.8842125  33.9789081
  60.2282143  91.5474701  21.9942570  61.1613369  91.3443661  22.0595551
  60.2012253  92.4514580  21.6807103  19.6554720  88.8850498  20.5888295
  19.4966066  89.5918655  21.2144518  19.9288642  88.1437969  21.1292410
  92.4431497  10.6774955  31.7417836  92.4829847   9.9771743  32.3930883
  92.2007353  10.2347236  30.9285092  79.1534383   4.2900901  42.9963350
  79.4962675   4.0938525  43.8682222  79.8588020   4.0396934  42.3996782
 110.0142158  10.2899216  96.1670867 109.4963611  11.0826300  96.3073446
 109.5073951   9.7816656  95.5338105  34.3787241  90.2025700  27.2062612
  33.8053083  90.2859879  26.4443755  34.9264908  90.9871292  27.1808076
  90.4124433  40.2004295  33.0480909  90.9130842  40.2204089  32.2324967
  90.9967787  39.7778182  33.6775208  65.3291512  91.9108582  11.3607001
  66.1144543  91.7077637  10.8524871  64.6380901  91.3893986  10.9523678
  47.3811817  94.0643597  36.1925960  47.7357149  94.5624447  36.9291115
  47.9090691  94.3377018  35.4423618  68.9429695   0.8659225  47.5729609
  69.5477659   1.2234550  48.2230568  69.0252644  -0.0832124  47.6657295
  42.2973442  77.8678560  19.8947930  41.8717194  77.0151615  19.8053968
  41.5789509  78.4992838  19.8568571  67.1328575   2.8786426  52.4762344
  66.9643695   2.0494609  52.0286798  66.3104350   3.3626323  52.4013996
  32.8952854  51.3491915  84.2946651  33.0257433  50.5313299  83.8147643
  32.5548476  51.0754488  85.1463678   4.0982979  47.2757719  93.4695563
   3.2144945  47.5753878  93.6825174   3.9932316  46.7761992  92.6598534
 107.4852926  11.7209582  34.0895462 107.8483993  10.8426528  34.2034745
 108.0939657  12.1561866  33.4926224  25.1966214  80.5541801  17.9189920
  24.6672440  80.7549000  18.6908102  25.8799767  79.9675465  18.2432103
  60.4703712  76.7143726   5.9773540  60.9706640  77.5303888   5.9699070
  59.9229050  76.7762089   6.7600989  46.5769291  84.8476982  18.6891007
  45.7485151  84.7616959  18.2173336  47.1436739  84.1807938  18.3014500
  46.3259315  97.9278088  25.2079415  46.5062666  98.0896378  24.2819166
  45.5804634  98.4934902  25.4092050  74.6402311  85.5347252  33.9516211
  74.7800493  86.3638687  34.4090104  74.2455530  84.9620056  34.6092367
  25.0623631  57.3432589   4.1658476  24.1689873  57.0435095   4.3339702
  25.4132318  57.5484371   5.0324643  32.8941458  30.4996203  86.8420610
  32.3823088  29.9163245  86.2816909  32.5189799  31.3671587  86.6908225
  37.4858809  96.8060875  13.4664321  36.7222309  97.2444248  13.8418365
  38.0356812  97.5191212  13.1415653  92.4319154  19.7153144  40.5730343
  91.7451078  20.3698497  40.6999588  93.1754810  20.2116161  40.2309465
  52.6586962  98.7917995   9.9482298  53.2397223  99.2965794  10.5173028
  51.9945002  98.4363747  10.5387771 108.6502970  48.0488871  77.1861699
 108.5692800  47.6451300  78.0502561 108.1926478  47.4486922  76.5974834
  77.4309492  83.7886906  23.2368279  77.1548748  83.2514668  22.4942636
  76.6520882  83.8514996  23.7896991  81.8293285  83.4998226  20.9744906
  81.6214657  84.2016983  21.5912509  82.5633240  83.0362415  21.3776994
  76.8972904   6.3025909  12.6042640  76.6666800   5.6493049  11.9437599
  76.6960985   5.8802371  13.4393501  39.4790238  27.3363684  82.2245791
  39.0313214  27.2490691  81.3830498  40.1185673  26.6242026  82.2306445
  71.9742680 100.0527191  19.5118856  72.0159197  99.5032406  20.2945542
  71.5422010  99.5043850  18.8569963  69.4081306  98.6791420  45.8568239
  69.6309328  98.5244370  46.7747879  68.8528109  97.9373455  45.6168461
   8.9146202  20.2878617  80.3365484   7.9991740  20.1490448  80.5792883
   9.3884962  20.2682493  81.1679867   9.1346329  69.2290400  87.1832016
   9.3780010  70.1337908  86.9871530   8.6380928  68.9430617  86.4164582
  59.7384167 105.0653458   9.1259587  58.8463926 105.1222420   9.4684345
  60.0926161 104.2643356   9.5121682  62.1981573  86.7637444  36.8171549
  61.9180155  87.1671104  37.6387644  61.5582561  86.0692310  36.6609049
  65.5858564  98.6769009  31.5602756  65.6539631  98.3410358  32.4540257
  64.7788525  99.1916561  31.5586972  89.7161770  86.1449623  31.8754911
  90.5735111  86.4524174  31.5810990  89.2481804  86.9421482  32.1238995
  34.1513705 104.7437763  52.7722788  34.3916702 105.1574326  53.6013651
  33.2804060 105.0889206  52.5759983  51.7073727 101.5190983  26.4030123
  51.9370699 102.3665237  26.0217619  52.4401665 100.9471893  26.1746264
 100.3559143  16.6752868  49.5013332 101.2917787  16.6901164  49.7017384
 100.0197870  17.4937968  49.8664331  96.0811550   3.9847999  38.2633829
  96.7710811   3.5789256  37.7384996  95.3383905   4.0615325  37.6645136
  25.1371306  60.0718687  74.4891122  25.8160466  60.5966948  74.9132135
  24.6254748  60.7044218  73.9848140  42.9398060  93.3211327  10.1765323
  43.1119967  92.6928902   9.4751811  43.8083124  93.5831928  10.4819047
   8.1452149  26.4797304  95.4430204   7.5138539  26.2641142  94.7566336
   7.7379292  26.1656855  96.2503167 103.2298183 105.3413868  33.5370898
 102.6016426 105.3843403  34.2580438 103.1458759 104.4497967  33.1990790
   1.5851056   6.2032466   3.2140258   1.6721760   5.9548907   4.1343349
   1.6580616   5.3776317   2.7352083  90.0053293   1.5762668  73.7178802
  90.7544643   1.9393401  74.1903257  89.5146782   2.3428493  73.4214926
  92.6177276  21.1863802  85.7447067  92.5274671  20.2942894  86.0797587
  92.3315896  21.7440365  86.4681545  24.2183876  91.0106468  36.8308997
  23.5764003  90.4650211  37.2851801  23.6985373  91.7039490  36.4242935
  36.9083834  89.8351192  22.6215506  37.5067759  89.0952587  22.7253127
  36.0890126  89.4404316  22.3230767  20.1304358  47.6870631  90.5103394
  21.0626763  47.6003645  90.3112343  20.0755232  48.4643744  91.0662135
  99.3233043  11.2089114   6.5376329  99.9769241  10.8869414   7.1583939
  99.2397672  10.5070071   5.8922040  71.0952837   1.8355899  48.9659357
  71.6386825   1.0646587  48.8028145  71.7203600   2.5554328  49.0516138
  76.3609171 109.9663544  50.5026770  76.4576817 109.4365978  49.7113276
  75.6198263 109.5740891  50.9643555  48.1529760 106.2234974   8.6137241
  48.1671095 105.9039879   9.5159149  47.2549868 106.5273094   8.4812683
 118.3290304  71.4055155  84.3419531 118.2633532  70.4688166  84.1561821
 118.0046023  71.4953039  85.2380088  42.9160976  75.6441641   5.7424515
  43.3338833  74.7866058   5.8217221  42.1412849  75.4842281   5.2036417
  35.4259920  86.0172272  14.0627956  35.0589895  85.2077198  14.4180858
  35.0855899  86.7055702  14.6342397  29.7749782 106.8117046  38.7735271
  29.1884089 107.1577263  39.4461632  30.6539249 107.0031929  39.1006637
  49.2229033  88.9272976  58.5197830  49.0303373  88.4739876  59.3405533
  48.3788061  88.9799595  58.0715036   6.9256705  41.4378832  80.8816364
   6.1221188  41.0233973  80.5674103   7.5360554  41.3638113  80.1480320
  58.5573912  94.3951607  19.3603814  57.6163960  94.4141960  19.1860354
  58.8100767  93.4839058  19.2120743  44.4833040  85.2173424  23.9941955
  43.8163853  84.5999622  24.2946863  44.8644161  84.8007774  23.2212377
  57.6337433  89.9200439   6.2109131  57.3517704  89.0183735   6.0569143
  57.0417929  90.4505157   5.6775934  72.1550894  93.5594177  35.2996659
  72.1672058  93.3206940  34.3727922  73.0256462  93.9213085  35.4651856
  15.2741575  94.9333191  45.9285259  15.8970630  95.6245232  45.7038832
  14.6499348  94.9283409  45.2028894 107.2882921  16.3334708  50.2224493
 107.5563699  15.8456855  51.0011864 107.6477939  15.8323722  49.4904089
  51.9429588  96.4471626  14.7886443  51.4883041  97.2684860  14.6016943
  51.2627840  95.8708191  15.1370919  74.8095083 110.3152561  16.1203086
  75.2906132 109.5637989  16.4668286  74.1308689 109.9301910  15.5658674
  57.6288027   1.7012935  47.8623343  57.1567029   2.2207408  47.2115421
  57.0699746   0.9385448  48.0111933  59.6031434  22.5464778  33.7399244
  60.0905067  21.7668109  33.4737945  59.6141226  23.1111770  32.9671216
  63.0675364  94.3205643  34.7226691  62.9998541  93.3818913  34.5479155
  63.0027199  94.3921852  35.6749821  47.5133610  86.5630722  56.1859846
  47.0842791  85.7400608  55.9519434  48.2418108  86.3016701  56.7492437
  94.7490675  16.0365729  45.0518751  95.2425415  16.7029147  45.5301046
  95.2215988  15.9355979  44.2255878  41.2721252 100.2824783  21.6583443
  40.7172585 100.9693527  21.2888217  40.6755447  99.5501328  21.8132782
  68.4199095 111.2962818   9.6488041  68.5938501 111.2424850  10.5885279
  67.6529980 110.7393742   9.5149070  66.6319561  80.6954479  35.5458713
  67.4300146  80.3154564  35.1785326  65.9969759  79.9793434  35.5312419
  67.1848106  91.1507320  38.4978247  67.6600313  91.9783306  38.5717559
  67.3831940  90.8386612  37.6149368  62.7968866   7.4626689  43.0738878
  63.7372905   7.3115115  42.9788876  62.4610645   7.4534469  42.1775770
  75.5109358  77.0608473  26.1928678  75.5955076  77.9100180  25.7592940
  74.8186159  76.6120434  25.7075858  50.4268980  89.7363472   5.2744466
  50.0312805  88.9020157   5.5266798  51.0305452  89.5109081   4.5666173
  51.4786434 101.4915562   9.5976311  52.0714045 100.7556057   9.4451964
  50.6136847 101.1548615   9.3637180  38.2978439  85.2857208  32.9335165
  38.2721639  86.0531807  32.3620558  37.3850203  85.1426220  33.1835437
  61.8151379 102.3328400  46.0153484  62.4182796 102.9709053  45.6341410
  60.9490347 102.6186562  45.7248211  63.1068563 102.7991581  10.0162756
  63.7220860 102.2666836   9.5121050  63.1547594 103.6662579   9.6136814
 106.0693342   5.4411845  12.0227277 106.6950876   6.1585288  12.1231079
 106.6138775   4.6589713  11.9341445  58.1254959  87.1860790  18.5086000
  58.7443066  86.8885231  17.8416967  57.6466084  87.9008675  18.0890930
  85.4093820   0.9389167  29.2935252  85.8196766   1.4585071  29.9848413
  84.4697077   1.0281901  29.4524980  25.1900404  34.5644854  85.6587329
  25.3807753  34.2716597  86.5498581  26.0088604  34.4292925  85.1817766
  84.6236515 105.5302429  32.8550911  84.3193054 105.7603168  33.7329650
  84.4243336 106.3005257  32.3229527   4.6806067  32.5567053  94.6088987
   5.5752962  32.4030112  94.9124576   4.3872088  31.7043875  94.2868705
  63.3606195  68.7729359  25.3826046  62.7202320  68.2488108  24.9015355
  63.9468622  68.1291389  25.7801914  38.8376164  70.2475405   9.7769278
  39.5363331  70.8566189   9.5380765  38.1730366  70.3674984   9.0985656
  50.9520674  31.1638117  16.8266428  50.5817842  31.1041379  17.7073014
  51.1824846  32.0873713  16.7257762  64.7465992 103.2565308   1.2015895
  63.8257170 103.1429958   1.4367828  64.9379492 104.1694069   1.4166993
  38.4666300 106.2298107  26.2160444  37.8978992 106.9826221  26.0546303
  38.6474872 106.2633228  27.1554065  35.1414269  43.6379813  81.8855789
  34.6828383  42.9869746  82.4167302  36.0092181  43.2608221  81.7409232
  73.5949993 102.2285271  18.2525301  73.2140493 101.5285015  18.7826943
  74.3734837 101.8343735  17.8590381 112.4260367  35.2621840  77.6709261
 112.3770989  36.1121081  77.2333684 112.0353545  34.6492861  77.0480648
  46.6356421  89.5169163  22.1194816  46.2350035  89.0992832  21.3570547
  46.4318848  88.9308071  22.8483081  34.5196486  76.9452286   9.6748191
  35.2684569  76.9938469   9.0805519  33.7704897  76.7780256   9.1029477
  74.9618483  95.1566219  18.1663144  75.8924913  95.0353241  17.9781032
  74.5630598  95.3147507  17.3106313  58.0087805  47.5187254  16.2440860
  58.7937355  47.2049379  16.6930950  57.3586082  47.6180458  16.9395316
  30.4882979  96.5877247  25.0125909  30.8395910  95.6988049  25.0639629
  31.2495589  97.1538353  25.1399946  57.7547264  97.3002815   9.3335748
  58.5474777  97.7041435   8.9804888  57.3539591  96.8626595   8.5825098
  27.7945733  89.1852188  30.8356380  27.3785853  88.9945316  31.6763639
  28.7332177  89.1296196  31.0147715  59.6428776 108.8532925  33.1724119
  59.6041298 109.3261719  32.3410797  60.5784321 108.7398720  33.3400702
  69.6693373  92.3547173  15.2683651  68.9808369  91.6999245  15.1524305
  70.0075912  92.5054646  14.3857014  32.5708931  33.0757139  89.3068924
  32.7389925  34.0180300  89.3047264  32.1301859  32.9129504  90.1408693
  28.2669579   9.2778354  33.1452513  29.1611897   9.2271094  32.8076053
  27.7957760   9.8020415  32.4976134  83.1505013  66.1392975  26.0319233
  82.9178619  65.4637384  25.3949523  82.4457169  66.7836189  25.9659076
  35.4372287  85.2049637  32.7132440  34.6521854  85.6578445  33.0212116
  35.2800655  85.0608635  31.7800951   3.5764378  65.4924200  82.1286884
   4.2186135  66.0657881  81.7102495   4.0636605  64.6932886  82.3292914
  85.1981289   2.3871570   5.4228604  85.0527746   2.6132732   4.5041788
  84.6386701   1.6251998   5.5733913 114.4132079  21.1720036  87.8959957
 113.8619293  21.3715695  87.1393630 113.8071693  21.1576317  88.6367664
 117.2756732  52.4616431  92.1811825 117.6845492  52.9158495  91.4444676
 117.9004515  52.5598524  92.8996795  31.8798184  81.0375595  11.0374451
  31.9366193  80.6555271  11.9132650  31.8164015  80.2837276  10.4509735
 114.9397958  22.3777722  95.9490521 115.8096136  22.6093291  96.2746712
 114.3391360  22.6969527  96.6225236  68.2963610 106.2256527  21.6998816
  68.0689478 106.6771221  20.8870530  67.6701880 106.5592480  22.3424172
  30.3886223  99.7637081  42.7679539  30.9087253 100.2757359  42.1486378
  29.9882698 100.4168224  43.3418846  69.0817404  80.0409508  46.4121246
  69.6589899  80.0988579  45.6507683  69.2507172  79.1715670  46.7752361
  59.8637342  75.9920740  24.6381378  60.3204155  76.8189192  24.7930861
  58.9504051  76.1784887  24.8556495 113.0514635  50.9314345  91.4495775
 112.7944411  50.8542250  92.3683861 113.9422120  50.5822752  91.4198866
 107.3675251  87.3599052  25.9559107 107.4514961  87.6479816  25.0469589
 107.8832436  87.9923344  26.4562130  50.0559855  94.6552753  15.4562628
  50.1782322  93.8898373  16.0178602  49.3090677  94.4289112  14.9020910
  95.9295112  23.6255221  41.6030455  95.8705646  22.8911166  42.2141218
  95.4018194  24.3151431  42.0057726  45.1485825  72.0046139  17.8910291
  45.4913330  72.8964281  17.9495513  44.8490620  71.8044615  18.7778533
  26.5456122  48.1525610  88.5036668  25.9569329  47.9567622  89.2326066
  26.1602467  47.6965807  87.7554634  91.2167246  13.0351691  19.3174481
  92.0314152  13.5370784  19.2929339  90.5342323  13.6927562  19.4516551
  46.1808825  99.1712761  14.2427814  46.8431568  99.6599197  14.7315133
  45.7012272  98.6829567  14.9118900  45.7541800 105.8479214  33.9426327
  45.4008770 105.0323105  34.2978764  45.2326345 106.0127926  33.1571150
  55.4583883  87.4215698  58.4631491  55.0941420  88.0220127  57.8127480
  55.4483938  87.9192829  59.2807198  83.5169315 102.9784393  22.6734281
  84.2426491 103.5985374  22.6024270  83.1046867 103.1871796  23.5117054
  76.3000209   8.6483531   6.7802131  75.5912573   9.1911750   6.4349031
  76.6331321   8.1756930   6.0174131  50.5664396  95.2414799  29.6855402
  50.1318502  94.9064350  30.4698300  50.0110197  94.9518967  28.9617443
  82.6070786  64.2678642  24.4244885  82.2647858  64.8029804  23.7084436
  82.1690464  63.4228945  24.3225932  29.0206265  94.5294380  19.4381833
  28.7931848  93.9527607  20.1675296  29.9761295  94.5809555  19.4625425
  83.5464764  97.2957993  24.6737719  84.0679550  97.2863102  25.4763937
  83.7267876  98.1499195  24.2810798  71.1241204   4.4216304  20.5904841
  70.6130821   4.6054797  21.3786936  70.5764324   4.7360759  19.8711836
  90.4066879  17.1521525  58.1842756  90.2455026  18.0853419  58.3236170
  89.5499546  16.7412334  58.2999229  10.6139057  27.7477167  87.5192854
  11.3893383  28.2878111  87.6717260  10.2478283  27.6025866  88.3917263
  14.6646422  36.5810965  74.9727967  14.2947167  35.6985186  74.9518016
  14.1591709  37.0367144  75.6459525 116.3315708  11.7674785   1.5765069
 116.4805252  12.2027640   0.7371207 117.2010261  11.4794402   1.8545561
 112.0373821  80.2114868  43.4548807 111.0888958  80.1321220  43.5563803
 112.3862457  79.3985510  43.8204670  68.2904816  99.3661404  21.5816116
  67.7661324  99.1705227  22.3581576  67.8330660  98.9243031  20.8662176
  80.3353882 100.3999329  31.3560486  80.7400417 100.1638889  30.5213189
  80.1753044 101.3411140  31.2869549 113.3845836   2.6936011  77.0904541
 112.4674589   2.7441173  76.8210697 113.3489019   2.4825339  78.0234098
  89.4634706   6.9199710  46.2958765  90.3861648   6.6653400  46.2899685
  89.2509157   7.0714717  45.3749561  93.5693485  15.4643207  38.1180692
  93.0522424  16.0337310  38.6878085  93.4512264  14.5879130  38.4843731
  86.4629299   4.5347648  59.1867590  87.1844513   4.0036636  58.8497591
  86.7308075   4.7660213  60.0761366  93.4317493 110.9813595   6.0173863
  92.5133610 110.8584023   5.7772177  93.4492016 110.8609962   6.9668287
  68.6249828 101.9478321  17.1301365  69.1245890 102.2530460  17.8874135
  69.2318773 102.0287895  16.3943672  58.4159708 104.3078136  19.5276272
  58.1562614 103.7511349  20.2617168  58.1376553 103.8240337  18.7499869
  64.5670080  94.7811699  54.0011930  64.0894413  94.4261646  53.2514334
  63.9515591  95.3888893  54.4112349   1.7857777  15.3944450  11.0403538
   0.8498465  15.3391891  10.8474600   2.1875321  15.6438403  10.2081096
  79.2569971  89.8911381  23.0301118  79.6166515  89.4439888  22.2639966
  78.4869480  90.3528786  22.6983619 104.8732645   6.5981631  22.5958037
 105.5684215   6.0405212  22.2464848 105.2737266   7.4647479  22.6656437
 110.1825744  18.8433604  28.3984923 109.9914152  18.3333736  27.6113439
 110.0136883  19.7502952  28.1431675  89.1201145  47.6018767  12.2045505
  89.2194921  47.5341277  13.1541634  89.9301655  47.2333579  11.8520594
  75.2981663  73.8254452  26.1313081  75.3744459  73.6619091  25.1912713
  74.8329353  74.6597528  26.1922979 102.7912807 108.8957500  27.0338559
 102.4138451 109.2010880  27.8588080 103.5394669 108.3596802  27.2966743
  20.4714715  13.5852389  52.8985548  21.1432301  13.8367515  53.5323715
  20.1809536  12.7203231  53.1879616  70.4131365  98.6584568  48.3366394
  70.5450439  97.7535534  48.6194468  70.5549335  99.1794872  49.1269922
  61.7591793   7.5978141  20.6984997  61.0997898   7.1812301  21.2533808
  61.8502909   8.4808402  21.0565472  68.5870886 100.7424259   0.4967797
  67.7897358 100.6404114   1.0164481  68.4743166 101.5797997   0.0469681
 112.9325962  68.5899496  40.9565687 113.8107777  68.7486219  41.3027620
 112.5594902  69.4637394  40.8402967  80.7410318   8.6530261  29.1039634
  80.4477150   9.3481212  29.6930575  81.6961366   8.7148719  29.1173744
  65.1782799  89.6316814  39.8230243  64.2443275  89.7358513  39.6410465
  65.5863047  90.4035187  39.4305849  77.2789955 105.7397461  13.2789040
  77.9207516 106.3288975  12.8823113  77.3935699 104.9117947  12.8124332
  51.3907558  42.8840976   7.9441524  50.5021185  42.5605540   7.7962410
  51.2763018  43.6496120   8.5072833  67.7754885   1.9739394  27.4422836
  68.1165678   2.8655009  27.3713684  68.5144455   1.4149814  27.2019911
  75.0651741 102.9708958  45.3584194  74.9879932 103.5836506  44.6271229
  74.4329977 103.2873058  46.0037661  80.7233906  81.0356522  29.4824672
  80.0696564  80.8052826  28.8223243  81.4560032  81.3919640  28.9799142
 103.3301813  11.0325198  36.1943841 103.8044340  11.4375548  35.4682541
 102.9291660  11.7675643  36.6582060  77.8064394  77.4068689  50.4209089
  76.9637156  77.0166683  50.6528425  78.1849861  76.7992020  49.7855473
 109.7494632  38.8021426  43.2691431 110.2959902  39.4315963  43.7395954
 110.2768451  38.0039744  43.2371044  43.7400436  82.9619884   2.3103276
  44.5012379  82.3929787   2.4245410  44.0149260  83.6005592   1.6523831
 102.7535070  28.3751868  81.7272606 103.2663811  27.8047179  82.2997632
 102.2612656  28.9360903  82.3266902  48.9647532  87.9091358  17.1390462
  48.6219072  87.5025368  16.3432038  49.5928717  87.2731686  17.4814522
  58.1388569 102.0099258  31.2241125  58.0595684 102.9359245  30.9950495
  57.2416210 101.6778851  31.1932445  92.9474384   7.3721748  37.0250702
  92.8039819   7.8553920  37.8387976  92.2459156   7.6671558  36.4444828
  53.3641100  85.1919270  61.4335299  54.1444016  84.7393703  61.7537928
  53.4241772  86.0693932  61.8112516  36.9008231  88.0550098   8.9786184
  37.6516032  87.4644756   9.0404910  36.8078017  88.4172916   9.8597151
   7.6749550  11.6141086  47.6003838   8.5330807  12.0146136  47.7398062
   7.2820221  11.5799670  48.4725523  60.5209112 111.4433956  26.0508227
  61.4210653 111.6109467  25.7717490  60.0524759 111.2423038  25.2406573
  59.8407459 110.2334404  30.8264732  60.5957270 109.8434925  30.3858232
  59.4556189 110.8157253  30.1716065  97.0869064  71.9245863  15.0774336
  97.4273491  72.5110197  15.7530296  97.6034451  71.1243343  15.1724339
  44.3705654  97.0629311  10.5604088  44.1100883  97.2413063  11.4640486
  44.7204733  96.1722755  10.5833781  57.0610237 104.0804386  29.3090272
  56.1336184 103.8616180  29.3999290  57.4105835 103.4051323  28.7276483
  31.7154187  10.7056855  93.3037826  32.4267929  10.8831499  92.6884091
  31.1105269  10.1468228  92.8159141  91.5965063  12.0423083  46.1500835
  91.2053091  12.9112392  46.0597372  92.5328905  12.1857600  46.0128307
  47.9035521 100.4373455  53.7553167  48.0028534 101.1329651  53.1053257
  48.7967348 100.1365089  53.9225245  85.0827312 109.6730042  52.1111965
  84.4598675 110.3190231  51.7781162  84.7453880 108.8327599  51.8006659
  67.5813293  78.2751989  10.8490217  67.7433109  78.5096931  11.7628098
  66.8594933  77.6477194  10.8871090 100.2130968   2.7392440  24.7156501
 100.0682098   2.6114135  23.7781525 100.9157354   2.1273666  24.9350381
  94.3273956   6.9413905  20.3544688  93.4806329   7.0958285  19.9356937
  94.8713285   6.5642409  19.6630025  51.7233324  89.0848541  17.9171741
  52.1936131  88.7306118  17.1624684  51.2494850  88.3352852  18.2775128
 109.0609915   2.0466476  18.8872945 108.9399702   2.9957633  18.8597023
 108.4232694   1.7425590  19.5331049  81.1100006  87.3713493   6.4750475
  81.1725140  88.0563736   5.8094138  80.5864620  86.6840649   6.0630035
  17.6949430 109.6627426  34.5671439  18.0143642 109.9487495  35.4229498
  18.3346546 109.0120888  34.2779350  84.0107059  80.6695366  29.8196268
  84.3275070  80.6597805  30.7228255  83.5621929  81.5106297  29.7321987
   6.4848362  36.6125922  54.1238880   6.7556225  35.7085757  54.2840958
   6.7086445  36.7706924  53.2067490  29.4138074 101.5680313  28.2825613
  30.0608277 102.2220898  28.0183458  29.8404527 101.0799408  28.9868140
  30.5744683  16.4004188  29.1281176  31.3354622  16.8017345  29.5477247
  30.6273114  15.4758411  29.3701744 114.6503479   3.2336860  10.4781294
 114.4612819   2.3772102  10.8614421 115.1544124   3.6912494  11.1510289
  96.5367729   0.6869273  49.7337103  96.3528520   1.5632491  50.0720310
  96.8162710   0.1876979  50.5010986   4.0478342  65.2549933  91.8931115
   4.2183607  65.2135275  92.8340858   4.2879933  64.3874262  91.5677163
 115.8146667  88.1898975  23.2352924 115.1732540  88.7836838  22.8451157
 115.3688335  87.8242588  23.9993453 100.3163528 102.1539497  20.2700377
 100.1072311 101.3091183  20.6684971 100.0694084 102.7989960  20.9327292
  64.2219591 107.5651646  29.4987106  64.5254230 106.9923306  30.2029824
  64.8893738 107.4816608  28.8176727  54.1751146  78.4553432  30.5263853
  54.0817547  79.2115736  31.1057258  55.0395155  78.1001997  30.7335377
  60.8877945  85.5006981   6.7738855  60.1228952  85.9555435   6.4213610
  60.5581284  85.0404930   7.5457418  69.3295765 111.4321232  12.5190806
  69.5546913 111.7527294  13.3924460  69.3748665 110.4789925  12.5947917
  11.9497907  91.5829754  11.3750672  12.4918592  90.7975388  11.4491510
  11.8445623  91.7133522  10.4326439  97.1244795  22.6650863  11.4529681
  96.2907058  22.7296214  11.9186831  97.1310121  21.7771869  11.0954356
  17.5349128 105.8274460  33.3514643  17.0888078 106.1972904  32.5896025
  17.9496694 106.5792751  33.7745047  80.6526661  65.5984545  15.7748580
  81.1141205  66.0491991  16.4820468  80.5770493  66.2544489  15.0819027
  57.9849768 106.7204952  31.8657160  58.6983204 106.7234612  32.5039673
  57.3096275 107.2733498  32.2587562  73.8119316 107.0317745  19.3339348
  74.3842697 106.8156433  20.0701070  73.6558723 106.1940670  18.8979053
 105.8761961  17.4722152  14.9330509 105.3920728  16.6897922  14.6690905
 105.9146291  17.4192767  15.8880138  83.8965225 105.1246166  27.9049397
  84.7794628 105.0710773  28.2706976  83.4452629 105.7601833  28.4604979
  22.2176957 107.9509163  23.8696814  21.6143346 108.4524345  24.4180155
  22.5920200 107.2977543  24.4608593 115.2614689 105.7470512  16.3176250
 115.7817745 104.9475861  16.3974345 114.3566132 105.4562664  16.4312625
  71.0511065  68.8462114  51.6584396  71.8074083  68.2609749  51.6167688
  71.1686087  69.4424534  50.9188986  58.2530785  88.6477947  71.4079237
  57.4735308  89.1611481  71.1957502  58.3578253  88.0532455  70.6651115
  66.1683369  96.2224960  40.4038239  66.5123701  95.8684254  39.5837593
  66.9247150  96.6319275  40.8239317  17.8569846  91.9087410  22.3735547
  17.9730086  92.7918339  22.7241635  18.4935241  91.3761711  22.8504348
   3.2198559  54.3708282  36.5172052   3.3678757  53.4486442  36.7267275
   3.2333504  54.8143058  37.3653674  13.3636940 100.7174015  25.9204578
  12.8109646 101.2208939  25.3227806  12.8862560  99.8989296  26.0560870
  71.4940023  98.8509369  34.2454648  71.4658165  99.2959404  33.3984685
  70.6016827  98.5307217  34.3775964  59.9905699  84.7904299  95.2963476
  59.4225806  85.5400084  95.4745010  60.4292506  85.0121973  94.4750050
  12.1101540  84.3191431  95.2291402  12.8664702  84.3244837  94.6424673
  11.3843697  84.6284197  94.6870859  82.1159649  71.4835024  16.4293039
  82.3489285  72.2007036  17.0188630  81.2098789  71.6639662  16.1789382
  82.5906069  12.0778613  33.2897592  82.7305109  11.2108379  33.6704636
  83.3509285  12.2170501  32.7251625 103.4619505  13.4788756  45.4832888
 102.7344066  14.0927940  45.3832102 103.5877210  13.4087520  46.4295959
  49.5952892 110.7732296   1.9928122  49.2280102 110.0655746   2.5224960
  50.4624939 110.4572487   1.7391548  60.8980942  91.6461849  25.7046032
  60.7369328  91.2621689  26.5664577  60.3507710  92.4312496  25.6860471
  42.5515097  29.9120043  87.3798403  42.4203032  30.8552454  87.4763653
  43.4936255  29.7881888  87.4952677  23.0886334  26.8130873  86.6781559
  22.4054688  27.4670790  86.8258592  23.8818234  27.3260592  86.5234116
  49.0934277  96.9162464  42.3302174  49.2180538  97.7827930  41.9431639
  49.6791792  96.3453579  41.8330145  75.8045483 110.9301853  19.2211151
  75.4495096 111.6479111  19.7455561  75.0337172 110.4992867  18.8518226
  77.3304892  99.8772240  23.4325600  77.8224277  99.8268986  24.2521286
  76.4950752 100.2744102  23.6786652  75.7847834  92.1768856  26.9213271
  76.0355425  92.7021599  26.1614347  74.8307228  92.1199226  26.8688154
  69.6490145 100.1029015  11.7121303  70.0768900  99.8047066  10.9094894
  70.3151035 100.6255627  12.1586633  46.8952751  96.5673733  33.3541036
  46.7918634  97.0941448  34.1465998  46.7796564  97.1897030  32.6360703
  60.3282118  76.0465574  29.3094778  60.5277491  75.4042101  29.9905133
  60.0427055  75.5218172  28.5615659 116.0226566  18.5062556  47.9670429
 115.2099163  18.3843379  47.4763012 116.5691978  17.7623229  47.7138805
  93.0384731  87.1760654  23.0426908  92.8562450  87.9875088  22.5687933
  93.4711075  86.6148567  22.3991776  59.2285347 107.0273685  23.9019060
  58.7735844 106.5844345  24.6181822  58.5948944 107.0356846  23.1845069
  50.2908611  77.7699184  13.8980520  49.4168663  77.7636194  14.2883420
  50.8731270  77.5054455  14.6102691  46.3268280 101.9961071  13.4799314
  45.7741213 101.2877655  13.1497896  46.6962099 101.6524220  14.2933643
  54.3242455  97.2241592  30.2078772  53.9784575  96.3502502  30.0263691
  53.8892460  97.4903774  31.0178995  80.7201099  65.0783300  42.6946926
  80.5332279  64.5864201  43.4942770  80.9597206  65.9526682  43.0018711
  75.6123972  83.1640625  32.5489926  75.0925875  83.5871124  33.2324076
  75.1326704  82.3610783  32.3457170  43.5218382  97.8393650   3.3577633
  43.6961746  98.2624054   2.5170073  44.2939377  98.0345917   3.8887805
  91.3085747  86.4092827  50.6442118  91.2430668  85.4764843  50.8487177
  92.2442913  86.6022205  50.7029438 104.2198736  28.1505637  42.6877213
 104.3675691  27.9141288  41.7720175 104.0633136  27.3154216  43.1284714
  73.2651091  83.0462265   9.1452330  73.9205217  82.4287796   8.8205516
  73.6299992  83.9087868   8.9475626 113.0769010  75.3144789  33.5175157
 112.1468587  75.5369234  33.5596132 113.0960043  74.3579531  33.5478950
  33.3204007  37.8312778  12.0543385  34.1290092  37.3213816  12.1032131
  33.2845449  38.1371737  11.1480415  56.5094895  92.6454323  81.9477108
  56.5009374  92.8946155  82.8718677  55.5976135  92.7285689  81.6687813
  60.7722664  25.4782295   2.0779385  61.3432837  24.7830439   2.4048711
  60.2221823  25.0482440   1.4231467  43.3879280  53.3095646  47.2816467
  43.4355354  52.8999901  46.4178085  42.4505663  53.4074640  47.4489689
   1.6486372  31.1265063   6.5484488   1.7131567  31.9729757   6.9906694
   1.9531664  30.4930043   7.1981949  21.9150829  28.7165928   5.0927907
  22.1757174  29.5965958   4.8209485  21.3429141  28.4084392   4.3900141
  27.6197410  45.3317261  25.1039529  27.9364133  44.4320917  25.0226474
  26.9795156  45.4249573  24.3985105  12.2653735  63.9797020  13.9115107
  13.1771743  64.0064144  13.6214459  11.9390070  63.1361341  13.5982955
  27.2573447  49.7187614  25.1994777  27.7357268  49.0480757  25.6868839
  27.7123618  49.7744799  24.3591881 117.3654150  53.2615757  58.6891699
 116.9005717  52.9116488  57.9291010 117.3349968  52.5553274  59.3345499
  71.8264682 104.2589229  92.9862830  72.2711498 104.9117416  92.4456158
  72.1725065 104.4016545  93.8672581  25.1465034  34.4267964   7.8850907
  25.4364729  33.5269165   7.7355295  25.3859878  34.6076679   8.7940264
   5.9357661  67.0930386   3.2368612   6.2579483  67.0593023   4.1375789
   6.6201037  67.5574398   2.7549413  81.7835027 106.3917440  76.4168289
  82.0164282 105.6181234  75.9035161  81.3666994 106.9802373  75.7873991
 104.4205267  81.6695946  76.9035664 104.7016317  81.4629691  76.0122087
 104.4562656  82.6249712  76.9505754  21.4862132  30.9342980  10.4846895
  20.7279372  31.4347243  10.1833189  21.1955833  30.5273080  11.3008547
  78.4391958 106.0769647  94.9021652  78.6647040 106.8390649  94.3687077
  77.4868233 106.0098689  94.8334804  45.2230358  39.4223142   8.2896149
  44.7956514  40.1009083   7.7670383  45.4097414  38.7212300   7.6652330
 114.7611941  50.8167362  43.0246830 115.1143061  50.7074356  43.9076328
 115.3765325  51.4088345  42.5922394  54.8727846  76.9184351  25.9517431
  54.1362619  76.4319992  26.3220739  54.5064163  77.3620796  25.1867700
  60.4605484  50.3151608  27.9069710  60.8401728  51.1861801  27.7910376
  60.3221655  50.2379084  28.8509583  73.9089901  85.3812354  61.2090710
  74.4964391  85.3713911  61.9647410  73.2294924  84.7427767  61.4255979
  20.1157713  73.6230135  43.4851408  20.6178403  74.0228271  42.7749968
  19.6328318  74.3509722  43.8763905  23.0957103  15.1010787   7.2717583
  23.9692831  14.9908304   7.6471871  22.9613423  14.3146932   6.7428201
  56.5667362  79.8651689  87.5322923  56.7982096  78.9408653  87.6234707
  56.3080591  79.9579757  86.6153928 102.7939565  10.5915177  26.1131787
 103.6667485  10.3199029  25.8291173 102.7740867  10.3927171  27.0492959
 114.5940937  58.2115412  15.3068423 113.8844944  58.8108444  15.5382144
 115.3855695  58.6406231  15.6319368  45.7526779  55.0479698   2.7004406
  45.9665728  55.9170628   3.0397975  44.8854828  55.1506710   2.3084477
  19.0671461  11.2313841  88.3076998  18.2437151  11.1026953  87.8369197
  19.0675228  10.5502413  88.9802143  30.5551910  21.7805791  19.0094352
  29.7076201  22.1472740  18.7576592  30.3612232  20.8761930  19.2557979
  47.8303337  43.0453396   5.4708099  47.0618534  43.3057117   5.9786302
  47.7298069  43.4996271   4.6342993  45.4631281  17.7619624  16.8637884
  46.0590649  17.1100163  16.4949274  44.6913004  17.2599828  17.1255791
  29.7920895  36.5063643  52.3442888  30.5965734  36.2930202  51.8715048
  29.8914838  37.4281359  52.5823879  44.1537142  54.2024136   6.3883764
  43.5366964  54.2315817   5.6571645  43.8034773  53.5281467   6.9705540
   5.9182638  14.7145557  36.2953758   6.4131361  14.7300959  35.4761744
   5.0051773  14.8129368  36.0255146  70.0278432  75.8403891  71.1031130
  69.8273474  76.7742389  71.1660388  69.8498065  75.6182473  70.1892260
  54.9523401  68.8241625  28.3377814  54.3091106  68.4916258  28.9638042
  55.5506372  68.0904531  28.1965613  47.9906273  40.3178549  38.2937646
  48.0941916  40.4345274  39.2381668  47.8025627  39.3854213  38.1868267
  47.4798203  18.2778239  23.7881303  47.7766466  19.0055239  23.2417107
  48.0249071  18.3299577  24.5732379  30.0393152  27.1635389   9.3047297
  29.6787643  27.5741482   8.5188329  29.8291755  27.7737212  10.0116599
  91.7284757  78.2667845  89.6342257  91.4940054  78.0184453  88.7400320
  91.3162882  77.6002377  90.1838127  34.9397683  35.1799941  36.9357824
  34.0005708  35.3605652  36.9749403  35.3210044  35.7480884  37.6052308
  70.5916983  99.5827621  78.7466863  70.5273587  98.8756173  79.3885866
  69.9939591 100.2561610  79.0714577  57.0047712  86.1371613  20.4933429
  57.4396563  86.4657116  19.7064769  57.5160837  86.4976311  21.2178087
  57.2214419 105.0088828  94.8690665  56.3770181 104.5810359  95.0109318
  57.5129480 104.6865981  94.0161940  60.2136517  15.4834294  23.0327177
  59.7586250  16.2100625  23.4583759  59.6225500  15.2082944  22.3319077
  98.2696272  19.4257878  93.9468932  98.2924570  20.2637623  93.4848282
  97.7601541  18.8510702  93.3756068  40.8724356  57.7507257  38.0324507
  41.6156816  58.3343506  38.1847668  40.1542997  58.1427956  38.5292315
  75.1246030  14.9063729  83.0484918  74.5962871  14.2833756  82.5495007
  75.9614582  14.9360989  82.5847867  45.7332277  21.2036514  23.8778377
  44.9379921  20.7186127  24.0982246  46.0072231  20.8437896  23.0342412
  89.4062406 106.1255878  83.7408247  89.6420652 107.0522636  83.7843707
  88.4528047 106.1248058  83.6560407 115.2645982  18.4319256  80.7900670
 115.2800621  17.9967783  79.9376336 114.3502558  18.6875866  80.9119204
  32.1532845  78.2681894   8.1219345  31.6282964  79.0308094   7.8789610
  33.0133629  78.6284876   8.3379972  23.1491208  11.5983832   9.7074181
  22.8274059  11.3565290  10.5758870  23.5610199  12.4530971   9.8340446
  49.5020050  95.4372876  95.6707245  48.9307476  96.2000793  95.7604122
  49.2334587  95.0326007  94.8458959   9.3706232  61.3193703  10.4936993
   8.6019790  61.0085201  10.9720218   9.3636775  62.2681952  10.6198502
  -0.0288574  38.2268691  14.2099297   0.7924269  37.8409076  13.9053714
  -0.6723920  37.9737449  13.5480976   4.0458333  38.4095407   0.2045901
   4.7249827  39.0287876   0.4720276   4.3206728  37.5744200   0.5830988
  21.7530942  30.1070404  56.4697266  22.2276306  30.1287103  57.3007393
  21.7654014  31.0137415  56.1631775  80.8045942  70.4137724  94.1444439
  80.6326181  71.0352772  94.8518251  80.0121767  70.4362219  93.6079705
  92.1748347  54.2116976   6.7434478  92.4151249  53.4553862   6.2082034
  92.8145666  54.8840094   6.5089869 111.3970626  14.0225027  77.0793333
 110.5493606  13.6827944  77.3660889 111.8934954  14.1420172  77.8889659
  32.5970888  68.5095215  11.9388890  33.5118914  68.7006712  11.7319357
  32.5381327  68.6197615  12.8878903  55.2931446  80.8790868  96.1178090
  55.5998821  81.5068906  95.4635872  54.3970269  81.1539500  96.3118552
  42.8172016  37.1164036  36.4414096  42.0805645  36.8281817  35.9024072
  42.9661846  38.0243921  36.1776090  41.9611773  99.9283641  85.6916788
  41.1153543  99.5303147  85.4858377  42.3044044 100.2130025  84.8446789
 115.9267726  17.9514372  18.2447660 116.8023229  17.6457977  18.0076408
 115.8610222  17.7838182  19.1848791  31.9884599 104.1779655  67.6666143
  32.1878255 104.6989196  68.4444907  31.8895537 104.8223155  66.9657114
  99.8233921  76.5884703  81.8553343 100.1047642  75.7237452  82.1541861
  99.9453670  77.1562570  82.6162377  39.7472429  55.3089571  12.4901640
  40.6147194  55.6958342  12.6086640  39.8866630  54.5939350  11.8692482
 116.4039360  60.7615757  13.3420622 116.0552446  60.9055233  14.2217922
 117.1676823  60.2003431  13.4760129  46.0831594  56.8140364   5.7701027
  46.4148569  55.9425116   5.9860837  45.9189606  57.2249460   6.6188824
  15.7532692  47.2300959   0.5623320  15.1720679  47.6872587   1.1701488
  15.2360630  47.1343422  -0.2373934  16.0694635  59.5348978  23.6803579
  16.6234183  58.8798523  24.1049576  16.6841447  60.1064634  23.2202363
   8.8494879  57.7898455   3.2372272   9.4518721  58.5090494   3.0472115
   9.2645639  57.3133755   3.9562005  33.1415207  96.4643901  89.1904595
  33.1522573  97.3681300  88.8752398  33.0340434  96.5426152  90.1383844
  71.3481504  85.2772897  91.6148275  70.5585176  85.6504195  92.0066061
  71.9633753  85.1992481  92.3439640 109.7982462  30.5616713  10.3614211
 110.0438179  29.6390510  10.4299498 110.3875615  30.9176230   9.6964109
  18.7106359  50.7136393  19.0919983  19.2428339  51.3224220  18.5797691
  19.2343223  49.9134302  19.1326284   2.0111388  23.5255764  77.9923323
   2.3929041  22.6494311  78.0457893   2.0874136  23.7641142  77.0684734
 105.8429988  41.2426329  40.3826284 105.8535750  40.6538057  41.1372137
 104.9779268  41.6514587  40.4099464  33.5314131  41.2063360  38.5165596
  33.7021613  41.4708900  39.4204879  32.8519607  40.5358553  38.5875082
  98.1398142  17.5772379  60.6683877  98.3185769  17.1018980  61.4797619
  97.5509144  18.2849692  60.9301975  26.0812974  29.2555308  25.3413796
  25.6293511  28.8306522  24.6123719  25.8098698  28.7591004  26.1134648
  82.6217348  95.9565633  66.6798618  82.7529079  96.8974536  66.5625956
  81.9178325  95.8914655  67.3252442  88.1909782  71.5742152  80.9373835
  87.3697025  71.9967335  80.6859544  88.4700233  72.0422929  81.7243197
 115.8841646  20.5761862  19.1299129 116.7843299  20.8754945  19.2577744
 115.9732552  19.6760714  18.8167238  12.3482072  43.7738514  19.2216074
  12.8817749  43.5752439  18.4521317  12.8279543  43.3845282  19.9527037
 109.8186434   5.0832175  87.4547282 109.9641884   5.1636980  86.5120867
 109.3224681   4.2704485  87.5519392  26.0007000  13.4896314   1.7841329
  25.4310322  13.4800947   1.0149661  26.8879414  13.4966850   1.4249897
   7.1957767  55.0468683   9.9996942   6.9749439  54.3694115  10.6388497
   6.5800929  54.9071741   9.2802143  26.3081098  25.7804441  16.2495208
  27.1950674  25.9239435  16.5795898  26.3700390  25.9585619  15.3110814
 100.5454601   3.6736010  88.0829158 101.2290467   3.0054186  88.0331442
  99.7262109   3.1785582  88.0831262  31.2202883  32.3989129  35.5201650
  30.6892824  32.5897169  36.2933779  31.5338492  33.2547379  35.2278090
  31.5976095  47.5899887  26.7804670  31.0166502  47.8278828  27.5030470
  32.4779177  47.6480484  27.1518445  45.1379776  40.4632759  15.5958736
  45.7246304  41.1826229  15.8295572  45.3278732  39.7806358  16.2394381
 104.3241388  94.9951785  74.8879054 104.6635181  94.1503590  75.1834228
 103.3728391  94.8904389  74.9051812  56.3862801  72.8077412   7.8136915
  56.4680386  72.4231815   8.6864239  55.8925867  73.6158276   7.9533195
  48.4798241  51.8965340  30.2185392  47.9742813  52.6845312  30.4178476
  48.7925243  51.5908480  31.0700083  29.1437411  35.4085541  20.8712506
  29.5552421  36.2348199  21.1245894  29.6306372  35.1259589  20.0971031
   3.0179524  49.0840578  15.0276446   3.0291283  48.2603788  14.5401371
   3.0098432  48.8180828  15.9471130  76.9259357  32.5003672  10.2515781
  76.0254002  32.8069139  10.1452839  77.3907423  32.8551555   9.4937420
  45.6359005  59.7434473  22.8190160  45.9689474  59.7203112  23.7161088
  46.4209795  59.7284317  22.2716069  18.4674710  28.6291121  84.0623596
  18.7944906  29.5156954  83.9098850  18.1020087  28.3603667  83.2194796
  44.9660206  46.9251394   9.3503284  44.1000366  46.6805363   9.6766394
  45.5774593  46.4682484   9.9279279  24.3923521  13.6110568  11.1960542
  25.3479886  13.5935795  11.2478566  24.1291118  14.2623341  11.8462646
 101.4718563  85.7576841  87.8232094 102.2117168  86.3463038  87.6736572
 101.4109737  85.2406400  87.0199719  17.3698103  50.4413605  16.5730643
  17.8989494  50.1043892  15.8500886  18.0043471  50.6420279  17.2610533
   0.1866287  32.8001593  94.7394377   0.0306147  32.0407866  94.1779646
   0.0596565  33.5540388  94.1634437  30.0314546  45.6895781  22.7635646
  29.1930866  46.1050653  22.5617218  30.6685948  46.1639500  22.2294688
 105.5887157  84.1796439  87.7808812 106.0571033  84.9547404  87.4709233
 105.0877458  83.8827937  87.0211842  12.9764855  86.0278893  27.4245548
  13.6897421  85.8691692  26.8062472  12.3434305  85.3331566  27.2434139
  60.9685427 107.5544971  87.0899221  60.9696776 107.6264136  88.0444160
  60.3195435 108.1965297  86.8021282  40.9310150  28.3506393  45.3724432
  40.6301689  28.8549566  46.1283493  40.9614372  27.4462867  45.6846189
  56.4830751  95.2341550  90.9819648  56.0995514  94.8221248  90.2077731
  56.9805319  95.9756368  90.6370404  30.9702318  97.9506237  11.3513386
  30.4486769  97.1950729  11.6221786  30.9713953  98.5271592  12.1154308
  47.9960645 109.9508279  81.3312319  47.0776916 109.6843808  81.3739922
  48.4712178 109.2435258  81.7673364  54.1694355  36.8822455  17.7136493
  53.8519049  36.2733173  17.0468593  54.8036623  37.4319673  17.2534323
  37.1012282  44.1990280  21.8716812  37.2167826  43.3035898  21.5537715
  37.8900003  44.6588898  21.5842748  55.2226543  26.5247178  30.6201673
  54.3374300  26.1975837  30.7801533  55.7963943  25.8552575  30.9928298
  29.5884967  46.1216259   0.6913780  30.1508641  46.0264540   1.4600897
  28.8480878  46.6442013   0.9994990  66.0175497  94.2260330  77.6869097
  65.6801230  93.8236302  78.4871891  65.2357132  94.4337600  77.1752336
  47.9508448  39.4121814  15.0033987  48.1837654  38.5988116  15.4510701
  48.5124350  39.4283247  14.2284214  91.2247831 109.1548818  93.5966727
  90.7217104 109.9661391  93.5258946  91.0042984 108.8110822  94.4623630
   8.9142292  31.1684225  91.8538451   8.6940974  30.9248827  92.7529898
   8.2789152  31.8476103  91.6272977  56.5269709  51.5900373  27.0782852
  57.1473789  52.1219969  27.5766253  55.9686995  51.1871672  27.7433109
   2.9952782  24.0024184  83.8452855   3.5805481  23.7449692  84.5576146
   3.2496374  24.9019812  83.6395743  26.5847754  65.7980680  22.5306463
  26.0173702  66.5296221  22.7737737  26.0190749  65.2136135  22.0260382
  55.9770918  65.6993055  22.7734303  56.0363960  66.3115406  23.5068393
  55.7004642  64.8741722  23.1720066  28.1366134  50.9446907   2.4463958
  27.4811912  51.1472940   3.1139332  28.4721422  50.0830698   2.6939011
  41.1453962  48.5505724  44.8539066  40.5630970  47.8277397  44.6200848
  41.8008089  48.5653687  44.1564465  44.5249987  91.4501286   5.8248347
  44.3439722  91.7078400   4.9209270  45.4779816  91.3697147   5.8646888
  22.3506069  77.5084352   4.2968941  21.5378141  77.9473591   4.0459916
  22.0675707  76.7712069   4.8378307  51.3720608  53.4208345  24.2990255
  51.5188885  53.9201307  25.1023769  50.4195404  53.3725548  24.2177391
  72.7432496 105.0259584  59.3586758  71.8432242 104.8003762  59.5938375
  73.2772190 104.3546098  59.7834137  49.7978067  42.9689646  49.7400284
  49.2750263  43.5914326  50.2454615  50.4682064  43.5063124  49.3180656
  18.6909449  23.9761138  20.3893137  18.2811117  23.9254951  19.5257711
  17.9998410  24.3062353  20.9634447  99.8100454 105.0349372  77.8197220
  99.8604185 104.5242875  78.6277631 100.0591070 104.4186204  77.1309867
 102.6103819  -0.0747778  82.0627537 101.6722120  -0.1012136  82.2508219
 102.7599300   0.8036850  81.7132214 101.8047506  81.6288560  85.3217068
 101.0163099  81.3302463  84.8684707 102.5137407  81.1184710  84.9304595
  72.9875094 103.0675262  63.9216211  72.9404122 103.5349029  63.0876139
  73.8834841 103.2110637  64.2263535  37.5550222  61.0474825   4.5630494
  37.7808142  60.5432367   5.3447050  36.9020867  60.5116701   4.1127029
 109.5209468  19.4520281  65.6285980 109.8360122  19.1841505  64.7653439
 108.9970792  20.2351950  65.4599503  34.9195647  57.4878311  30.4387569
  35.5963278  58.0506420  30.0626373  35.3932691  56.7130089  30.7412267
  51.5687466  21.6522551  16.9293642  50.6848526  21.3029885  16.8154645
  51.5180445  22.5468087  16.5925610  32.7331257  44.5628023   3.2631835
  32.8993988  43.6510134   3.5023987  32.9393935  44.6069002   2.3295128
   8.6692446  12.3253010  93.0544329   7.8920716  11.8445442  92.7696439
   8.4078854  13.2454584  93.0193651  92.3182487  57.4383402  11.3591063
  91.8085575  58.1494665  11.7473698  93.1933880  57.5386953  11.7336595
  52.7477980  50.4999828   7.0515478  53.4576654  50.2525330   6.4590222
  52.8914976  49.9666977   7.8333342  54.8577976  18.8084257  35.4634738
  54.3785381  19.6352172  35.4090810  54.8181820  18.5690880  36.3894224
  48.1062919 103.4395974  89.7142544  47.6016534 104.0179341  90.2861795
  47.7791530 102.5620692  89.9121156  98.1223703  14.9787663  71.5139106
  97.9835130  15.0489949  70.5694416  99.0009392  14.6087073  71.5999654
  93.9867152   1.2397145  87.2326448  93.8930155   0.9491490  86.3254395
  93.8738299   0.4436205  87.7519956  37.5299697 110.9735387  80.5843440
  38.3129617 111.3511699  80.9850290  37.7482169 110.0504821  80.4556396
  34.5278239  36.6640854  54.9656200  33.6035848  36.7881417  55.1815510
  34.6575356  35.7164717  55.0035095  42.8760576  42.7835274  10.0046635
  43.0604649  41.8979454  10.3176641  43.3570623  42.8510523   9.1798544
   5.5863922  12.9707096  95.2085778   6.5247029  13.1580780  95.1822142
   5.4121083  12.5048350  94.3907654  99.8669369 107.6877731  85.9389999
 100.6386263 108.2538121  85.9209195  99.3964559 107.9494422  86.7304590
  28.7740874  72.4590349  15.3768921  27.9405403  72.8381681  15.6556165
  28.5680914  72.0001364  14.5625138 103.7488825 100.0036948  62.0614889
 103.9545662 100.2337926  61.1554101 103.3494360 100.7941621  62.4245789
  18.3271933  68.5190010  22.6810837  18.1229997  68.7719107  21.7807651
  17.5267684  68.1021929  23.0001783  66.1854750  81.1505240  73.5021856
  66.6869647  81.1710017  74.3172458  66.8435628  81.2454599  72.8136089
   2.5810307  13.9658211  93.0182335   2.6053017  14.8832367  92.7462226
   2.9865759  13.9622687  93.8852703  29.6284795  45.8889484  28.0539203
  29.8203373  46.6812754  28.5555553  28.6937618  45.9505415  27.8570938
  20.8108211  43.1372690  10.5518007  20.7110333  42.2373629  10.2412355
  20.2604175  43.1832647  11.3335752  44.0899897  49.5975876  14.3381441
  44.6662903  49.3689585  13.6088741  43.5652685  48.8105345  14.4845998
  32.1992826  52.5256920  32.8044033  32.2563910  53.4035492  32.4271226
  32.9908967  52.4414587  33.3358955   3.5324356  30.4941177   4.7660550
   3.2610700  29.6258688   4.4681644   2.8366989  30.7710528   5.3622836
  20.6455612  57.3750734  37.1559334  19.8801160  56.8206596  37.0044255
  20.5815673  58.0590916  36.4894080  10.3739136 110.7802060  44.0815020
  10.4138201 109.9192307  44.4978714  10.0650471 110.6025379  43.1930971
 101.8909271  44.9300051  13.2939935 100.9494312  44.9904013  13.4557629
 102.2921260  45.3493118  14.0552127  24.7977853  21.3880110  18.1388557
  24.5201230  20.5648780  18.5408330  25.7511687  21.3866258  18.2242239
  24.3458843  56.6703081  38.6965799  23.9891553  56.0063505  38.1065512
  23.7454653  57.4112368  38.6143851  50.8917386  71.6271108  93.7908858
  51.5016312  71.1283701  93.2472691  51.4143068  72.3520821  94.1337725
  34.9973249  44.0199947  19.2213011  35.9436202  43.9041281  19.3069506
  34.7419739  44.4969034  20.0109744  90.3641319  85.0900269  29.1124773
  91.0667038  85.2591038  29.7402072  90.0108624  84.2390537  29.3718433
  25.2809668  67.0712948  12.0074308  26.1763382  66.8111277  12.2238946
  25.2114201  66.9278669  11.0635972  18.8044226  50.7094431   6.1452317
  19.1805589  50.2021170   6.8645179  18.6004460  50.0583220   5.4739141
  98.7821085  86.7754739  87.9823962  99.6915323  86.8538993  88.2705453
  98.7051470  85.8720678  87.6755348 103.6331595  18.9258478  80.1279738
 103.9793504  18.7401293  79.2551091 103.2524551  18.0962370  80.4161504
  79.0680129  93.6193770  88.4711650  79.5249397  93.9250510  89.2547563
  78.6016852  92.8338235  88.7569502  15.7281798   2.4785279  86.5923109
  15.6217831   1.5879677  86.9267002  14.8616474   2.8743933  86.6852811
 106.7733801  25.6938551  88.2361838 106.2213481  26.4548682  88.4160796
 107.6676668  26.0335730  88.2688913  68.2082469  92.4569958  83.4387103
  68.5153825  93.3588546  83.5311857  68.6633426  92.1272510  82.6638630
  28.0539250  55.2937937  18.7507212  28.2550216  56.2259531  18.8336504
  27.3741055  55.1362228  19.4058919  39.8072195  31.1216807  26.9902849
  39.1062140  31.7243910  26.7421651  40.2886915  31.5837860  27.6764894
  73.2972097  92.5736809   7.6428115  72.5130510  93.1054783   7.7788877
  73.5039520  92.6848793   6.7148435  17.6405776  18.0694211  31.7975187
  18.3195305  18.6988318  31.5544176  18.0127168  17.5895154  32.5374079
  53.8632059  32.2735119   6.7269462  54.7298431  32.1928477   6.3286197
  53.7946606  31.5151358   7.3069459  47.4911737  39.2781496   3.7726557
  47.4449205  39.1614032   4.7215825  48.0453205  40.0494003   3.6529559
  82.6437885  71.9035595  58.6387589  82.4319774  72.6873034  59.1458228
  83.3330280  71.4711266  59.1429260  39.1067815  40.8575058  45.7847881
  39.9085975  40.8608961  46.3075829  38.4350371  41.2002468  46.3743019
  52.1196604  67.3341608   3.1157333  52.4216413  66.4429522   2.9402757
  51.4161205  67.2269917   3.7558728  22.2174913  87.2207730  91.2635740
  22.6709086  86.8505686  92.0209339  22.6373381  88.0696576  91.1244526
  31.3223314  66.2128210  16.2246466  31.7958045  66.9865799  16.5301824
  31.2222505  65.6691933  17.0061076  82.1016342   2.2651534   1.8120597
  81.6519672   2.9522281   1.3201773  81.4068729   1.8314605   2.3074853
  80.3842283  12.5029085  84.3600276  81.2024445  12.1646307  83.9962640
  80.4388564  12.3069619  85.2953639  56.8824530  64.3462086   3.8732696
  57.5639343  64.7678375   4.3967631  56.0709047  64.5238304   4.3487346
  51.8834782  51.4191437  10.0833690  52.6522732  51.0090065  10.4795706
  51.7713690  52.2366428  10.5685091  86.0702277  32.8880499  36.5897634
  86.6096396  33.2460497  37.2948149  85.9523089  33.6193178  35.9834888
  40.1114845  96.2750244  10.4853404  40.8908081  96.2286568   9.9315029
  39.7818732  97.1650410  10.3609717  32.1216989  40.4813194  29.2666936
  31.7348123  41.1379433  29.8458266  31.4250612  40.2698135  28.6452484
  61.9887740  95.6071394  93.1773633  62.1473271  94.8725312  92.5845364
  61.3208396  95.2861446  93.7832138   2.6250717  43.5977507  47.6843882
   2.9190022  43.4193516  46.7910719   2.1280125  44.4128036  47.6147079
  81.8096191 105.6544774  84.0768722  81.1809713 105.3509563  83.4219602
  82.4382717 104.9370044  84.1560057  47.9271173  55.7261801  33.1961632
  47.0439863  55.5906105  32.8527617  47.8783178  55.4315758  34.1055918
  51.8122196  40.9207058   9.7944933  51.7724085  41.3933134  10.6259334
  51.8518686  41.6083336   9.1297930 112.5301136  11.6297911  89.0813252
 113.3504189  11.5670346  88.5920480 111.9783700  12.2048376  88.5511038
  38.5170627  36.9542170  47.5335264  38.5264659  37.0069528  48.4892273
  38.9161539  36.1067915  47.3364735   4.6993386  93.6489862  75.8019665
   4.2410981  92.8087347  75.8169177   4.3784939  94.0827411  75.0113037
  16.7653209  77.8545898  89.9544039  16.4406521  77.2103971  89.3252495
  17.7182943  77.7822679  89.9010774  14.2626131  86.7444134   5.8157313
  15.1406050  87.1253109   5.7990742  14.1453099  86.3746357   4.9406663
  22.5123692  60.8250189   8.9000416  23.3690953  60.8661985   8.4751236
  22.7109909  60.7719612   9.8349029  30.6051230  70.0313902   8.3066642
  31.3875198  69.5288086   8.0797338  30.9034753  70.6516647   8.9718533
  93.0568362  23.4276388  91.9840666  92.1420766  23.7094448  91.9784033
  93.0671371  22.6589869  92.5544181   8.7484152  88.4222835  86.4708236
   8.5013682  88.7730807  87.3264757   7.9151160  88.2240122  86.0435811
  59.0566730  70.6804180  33.5158086  59.1377401  71.3955116  34.1469169
  58.1811190  70.7872105  33.1440091   8.3379572   1.4003084  74.8893526
   7.6373833   1.1275194  75.4818180   7.9085129   1.9826887  74.2627385
  27.9873419  66.4233875  12.7852416  28.3525085  66.1872196  11.9325340
  28.6850357  66.9171286  13.2161403  16.4168620  73.2196236  10.2864897
  15.7668221  73.4870338  10.9362364  16.2055886  72.3051214  10.0986493
  69.0466166  87.8327847  18.9202297  68.7565851  88.4751415  19.5679200
  68.6474562  88.1227303  18.0999660  34.5382094  70.0801039  10.7698405
  35.1748967  70.1822138  11.4772546  34.9352765  69.4383383  10.1810217
  85.0657827  91.6742914  95.4712259  84.4716007  92.0317643  94.8113836
  84.6567518  91.8967860  96.3075403  54.1814518  51.6452885  22.9176784
  53.6991119  52.2948933  22.4062157  54.1908407  51.9994545  23.8068962
   3.1471890  12.3828219  88.7276801   2.5115078  12.7048348  89.3667814
   3.9077776  12.9534100  88.8379863  40.5820036  28.1934357   2.0632537
  40.5621147  29.0555739   1.6478565  40.7761621  28.3750486   2.9827929
 101.6206551 109.5146179  16.8742180 102.2084522 109.0467548  17.4673700
 101.8508911 109.1901588  16.0036159 117.9343978  26.8715572  17.7194035
 117.4276684  26.0971975  17.9639995 118.7136087  26.8328929  18.2739913
   4.2997020  86.7931938   9.2652929   4.3327704  87.4962521   9.9140221
   4.0104532  87.2232628   8.4605521  25.6499546  24.3179034  83.2515696
  25.3923529  24.2764376  84.1725209  25.0517863  24.9568747  82.8640845
  -0.0572682  32.8275418   0.2242136  -0.5734221  32.2864771   0.8217635
   0.8256540  32.4608326   0.2711534  59.6984011  99.1929334  89.0239402
  59.7878749  99.6342033  89.8686346  60.4807431  99.4494050  88.5356805
  55.3855515  71.4911556  16.8919909  55.5516863  71.4555979  15.9499896
  55.6707096  70.6375074  17.2178805  40.7698154  44.3946314  24.1617656
  40.9759569  44.8113489  23.3250546  41.4083624  43.6858606  24.2400885
  55.3488207  40.6330490  11.9651961  55.0761461  40.6274366  11.0476732
  56.2059450  40.2069473  11.9629478  92.5427664  32.1308802  91.5669480
  91.9165457  31.9034861  92.2542408  92.0196558  32.5867461  90.9075746
  45.8823729  33.6325812  37.6314569  45.2833843  32.9174113  37.8458834
  46.0135031  33.5598707  36.6860747  34.2196394  93.3949464  93.0305043
  34.4262726  93.9280503  92.2628227  33.5212589  93.8755625  93.4749204
  62.6755619  79.0078449  18.3304477  62.3830986  78.3430719  17.7069342
  63.5541439  78.7266207  18.5858655  57.1005964  47.1756601  23.5523677
  57.3673773  46.6076803  22.8295565  56.1493683  47.2404718  23.4675288
   2.4072188  12.5248240  86.0659888   2.6562136  12.5071095  86.9900670
   3.2345026  12.4335621  85.5932286  44.0854836  62.8021860   3.3105877
  43.1700897  62.8070402   3.5903457  44.0911102  63.3122778   2.5006452
  71.5991718 111.2512057  67.3046544  71.3937003 110.3372329  67.5012973
  70.7553584 111.7010301  67.3478296  68.1338388 107.7065747  82.0981231
  68.3142597 108.1743711  82.9135027  67.2712976 107.3140662  82.2329989
  59.6258688  42.6281071  20.2316999  59.5677137  41.6727543  20.2196622
  60.4150248  42.8263950  19.7275722  36.8171954  61.1678076  13.9544427
  37.5609612  60.5779982  13.8312805  36.2358356  60.9771156  13.2183111
  43.3361292  39.7254992  35.9555459  43.0109978  40.3140688  35.2742910
  44.2863894  39.7277784  35.8405232  29.2058897  62.2702646  20.9164572
  29.6607685  62.9315329  21.4380336  28.5611033  62.7655458  20.4113054
  48.0655718  39.2251468  12.0360231  47.6360798  38.4124088  11.7691445
  47.5210571  39.9178195  11.6619384  26.9186568  76.3161659  11.6758585
  26.1836505  75.9372139  12.1579289  27.6686811  75.7721710  11.9162035
  45.6754303  31.9845867  31.1242294  44.7493696  31.7470169  31.0772705
  45.6785393  32.8617930  31.5072846  52.2600460  35.7088494   4.8716930
  53.0969667  35.5284595   5.2997732  52.4708939  36.3521934   4.1950205
  32.0657539  54.7387266   1.4417867  31.3218212  54.1370487   1.4138743
  31.6749740  55.5948114   1.6168331  55.3282112  96.2968391  85.9968081
  55.6066305  95.8019107  86.7673668  56.0780997  96.8529456  85.7855168
  78.6953211  68.4233618   6.2791491  78.2797098  69.0312386   5.6676066
  78.6112022  67.5669622   5.8599406  93.7143135  60.4972458   5.1224893
  94.5203876  60.7924080   4.6989790  93.0776501  60.4372454   4.4102433
 115.1462401  28.3688258  88.2164922 115.0986708  27.5055407  88.6272290
 115.5166162  28.9358233  88.8929316  45.2653599  43.4889460  18.7398708
  45.6037569  43.6502075  17.8591251  44.7283173  42.7017450  18.6496985
  82.0435810  63.7856245  13.8153672  81.5450287  64.4355440  14.3106210
  82.2311783  64.2134285  12.9798901  29.5028734  68.8655806  23.5399818
  29.2696667  67.9719639  23.2884002  29.2993784  68.9122438  24.4741368
   9.6285694  12.9360388  87.1536305  10.3370827  13.5590552  86.9921169
   9.0111511  13.0845211  86.4374032  60.6563026 104.7187560  70.8550146
  60.6773359 105.3382056  70.1255825  61.3428551 105.0238031  71.4481619
  43.5093975  46.9381809  12.9922855  42.9461145  46.7110062  12.2524667
  42.9012680  47.1762609  13.6920905  52.8366280  49.2604971  23.3386540
  52.8164339  49.1548347  24.2897916  53.4900522  49.9434185  23.1873536
  90.0224496   0.9252642  88.2514646  89.1678716   0.5126952  88.1260958
  89.8188425   1.8164538  88.5352972  15.3411162  94.9525356  15.2381098
  15.8044243  95.5618191  15.8128703  14.7929466  95.5120659  14.6879601
  62.2493458  65.5800438  11.5804470  62.7344608  65.5860090  10.7553053
  62.5517750  64.7911739  12.0303941  58.3184433  51.2539291  11.9380164
  59.1722679  51.6701651  12.0561755  58.3766413  50.4411697  12.4402797
  66.6170692  72.2677422  16.9801712  66.0846663  71.8467712  16.3052189
  66.1469984  73.0755615  17.1867943  59.8119694  85.4486244  90.6349733
  59.1943568  84.8577541  91.0658571  60.6671006  85.0394719  90.7675454
  45.6483984  47.7603340  17.9872239  45.8979654  48.2353497  17.1945632
  46.4799261  47.5493574  18.4118235  56.7907763  11.3631475   1.8450177
  56.7675638  11.7189658   2.7333230  56.7378712  10.4150128   1.9653305
  45.0882912  66.7567635   1.6762851  45.4846668  67.6021671   1.4655504
  44.2837000  66.9795322   2.1445109  46.8829632  49.3568420  15.5403543
  46.4178991  49.6840477  14.7703660  47.2656631  50.1383781  15.9390688
  60.0358677  34.4555831  18.6645675  60.1759720  35.3287506  18.2982588
  60.3869915  33.8592529  18.0032563  88.8570488  64.7063063  96.3954353
  89.3858386  63.9429091  96.6274741  89.4167806  65.4559134  96.5979896
  47.4688721  56.7362404  37.5567317  47.1282578  57.4215841  36.9818234
  47.9442978  57.2103119  38.2389736  99.5320428   9.4358156  74.7028592
  98.9103831   8.9969872  75.2835491 100.3891791   9.1148899  74.9831417
 117.5852836   3.6826943  80.4814365 117.0007146   4.3480633  80.1183978
 117.8613294   3.1671809  79.7236278 107.8072251  39.8206232  92.6846599
 107.8564037  40.5553053  93.2962641 108.4117354  40.0544642  91.9803032
  55.9662867  64.5674038  27.2823787  55.2309656  64.8937559  27.8010583
  56.3145351  63.8369608  27.7936625  29.6033287  85.6406498   4.1674319
  30.3680539  85.2490044   3.7454802  29.8087215  85.6200695   5.1021093
  52.1906204  94.5886319  93.6287406  52.9584224  94.9188035  93.1621581
  52.2826654  93.6363738  93.5977179  75.5305106  73.9012318  92.0539069
  75.7401425  74.7007697  91.5711781  75.7574422  73.1919234  91.4525625
  63.9393091  38.4959912   2.4564296  63.6973667  39.0606999   1.7223987
  63.9347792  37.6117301   2.0899701  29.4096201  30.6577872  84.7940317
  29.4131916  30.8573817  85.7301846  29.9873894  29.8994158  84.7086182
 110.2189530   2.6284502  93.9067337 110.8170498   2.2420977  93.2670119
 110.3110255   3.5728548  93.7808287  22.4377489  69.0105343  20.2219033
  21.8657446  68.7737083  20.9519410  22.8936219  69.7975159  20.5203509
  81.7326156   3.7869404  49.3825510  80.7952025   3.6388729  49.5073154
  82.1273709   3.5410307  50.2191713  45.8564568  28.6040258  14.9918056
  45.6735420  28.2506323  15.8623731  46.6749334  29.0889978  15.0972939
  47.7080107  35.4405475  27.8626180  46.7561054  35.3626180  27.7991486
  48.0416441  34.6450281  27.4478030 104.6713348  69.2702770  17.0511174
 104.7009356  70.0036192  16.4366555 104.8695727  68.5015535  16.5163267
  68.3749110  92.0538514  91.3897601  69.2804605  91.7969387  91.5635604
  68.4431702  92.7325147  90.7182035  95.5313474  85.3449934  95.1533824
  94.6787626  85.4683130  95.5706677  96.0746938  84.9449700  95.8323406
  51.1361647  15.7766533   7.7160609  51.2756968  15.1707864   6.9882649
  52.0005274  15.8742392   8.1155425  55.9939575  48.1999636  13.0954659
  56.0789347  47.7634048  12.2478640  56.6325855  48.9122391  13.0631125
  16.9824517  30.3694010   3.2530102  17.7336049  30.6067181   3.7967762
  17.2527695  29.5658231   2.8086877   2.7720836  27.6504731  22.9750991
   3.1144264  27.1190262  23.6938453   1.9987920  28.0793643  23.3415771
  26.6964912  69.1574287  20.1822066  25.9408021  68.7508011  20.6062579
  26.3273215  69.8844528  19.6808267  40.1107615   5.1456497  78.6095932
  39.4699877   5.5829476  79.1703167  39.9684637   5.5249165  77.7423325
   8.2692641  10.2398966  96.7390198   8.7045210  10.8847998  96.1814486
   7.7507227   9.7105263  96.1331230   3.3375584  99.2131322  71.7225149
   3.5459839  99.6038621  70.8739140   3.3293091  98.2704585  71.5566090
  27.8477693  73.8048124  29.0669012  28.7074614  74.2074585  29.1895127
  27.4225640  74.3458843  28.4015656  22.3368901  34.3477152  79.9569085
  21.9742459  35.1833437  80.2509108  22.0192402  34.2513846  79.0591040
  56.8020773  49.1521215   1.5283559  56.3224554  48.3238363   1.5164895
  56.1202478  49.8238707   1.5186243  65.6102228  68.7758827  30.6708741
  66.2464142  68.1314945  30.9811306  65.7928038  69.5606947  31.1875582
  98.9950401  84.6132296  86.2473455  98.9338094  85.3295892  85.6154349
  98.9704305  83.8195675  85.7128087  59.6810007  53.9393330   8.0108887
  59.1632271  53.2054853   8.3419597  60.0239611  54.3643999   8.7969726
  78.3770478   5.1034830  68.3134773  78.3000445   4.2830656  68.8005236
  79.2350900   5.0523661  67.8923085  15.3568804   0.4469595  18.3109927
  15.7243907   0.2499469  19.1725922  16.1119401   0.4462512  17.7226758
  37.7270055  86.5846539  12.6466560  37.4442434  87.3847294  12.2037649
  37.0387888  86.4102650  13.2886672  84.1448004 110.1274198  68.7090948
  84.1400224 109.3947070  69.3250039  83.5050232 109.8825162  68.0405572
  55.3787417  87.1909207  92.2172186  56.1188251  87.5562399  91.7323974
  54.9460501  86.6097778  91.5916923  28.2157612  19.6707129  40.1616001
  28.4433341  18.8239312  40.5455303  28.1998086  19.5094430  39.2182207
  64.9808264  72.8819799  26.9231153  64.1285849  73.3072472  27.0183015
  65.4071236  73.0074263  27.7709150 104.4183922  68.4741879   2.5716788
 105.0988483  69.1350603   2.4434100 104.0521145  68.3349085   1.6983637
  84.7499275  70.0111723  38.5851645  85.2647781  70.8180904  38.5780144
  85.3938770  69.3150330  38.4549928  81.6692257  61.5481472  44.7410631
  82.5392818  61.5999842  44.3454027  81.3524818  60.6750298  44.5095921
  44.0479612  73.7040424  23.3385444  44.2245007  74.5329237  23.7835455
  43.2428455  73.8633823  22.8459644  66.2511808 102.7076905  84.6943405
  65.3816039 102.6367324  84.3005970  66.2884385 103.6021560  85.0331178
  26.3306366   1.1251025  20.0350738  25.4447209   1.4873080  20.0214982
  26.5972172   1.1097293  19.1158724  45.6298685  82.2185612  23.9307928
  46.3291931  82.8242588  23.6852169  46.0847807  81.4091206  24.1633773
  70.8687973  40.7360697  22.1474195  70.4030514  40.0476980  21.6725922
  70.2730179  40.9847403  22.8541327  25.3224104  13.7308691  93.9531690
  24.8007983  13.9887093  93.1931242  26.2264269  13.7438963  93.6388099
  37.6953667  19.3874548  95.9753498  37.3651665  19.0365742  96.8024424
  37.2779339  18.8489388  95.3030528   4.4034165  24.9555014  86.2947240
   4.0432566  24.5450018  87.0808604   5.0451201  25.5841158  86.6253248
  92.9620678 102.7209895  79.4516900  93.4248287 102.8422540  78.6226073
  93.6219103 102.3599427  80.0437060  55.7540274  56.7025614  28.2781196
  55.6514263  55.8580446  28.7168598  54.8583317  57.0061398  28.1304550
  19.2391270  33.4620856  85.7518509  19.0515679  32.5422762  85.9389725
  18.3836096  33.8471697  85.5620339  58.4622622  78.7412548  33.6352229
  58.9607859  78.8111210  32.8210807  59.1204691  78.5503531  34.3034720
  75.4734427  86.1522000  93.6062941  74.8784429  86.2736695  94.3461934
  75.8220608  87.0266956  93.4332195  73.4097290  90.1829433   2.4132824
  73.7459850  90.5483437   1.5949675  74.1932392  89.9663925   2.9187030
 115.7010841  58.2624960  44.4317198 115.0983047  57.9794979  43.7441158
 116.5716457  58.1302404  44.0564013  53.7546349  50.1272154  11.8846142
  54.0120316  50.7637310  12.5515676  53.4550047  49.3665552  12.3824537
  93.7603092 110.7074070  12.8024638  93.7536144 110.1237869  13.5611284
  93.1531334 111.4098167  13.0352592 102.4021710   8.7148522  93.0064365
 102.1037234   7.8649996  92.6825458 101.6211046   9.1121195  93.3915919
  33.8423824  97.2371197  25.2868891  34.7652864  97.0315456  25.1378345
  33.8123369  97.5660610  26.1852932  63.5297203  60.2499676   7.4954093
  62.8375149  60.5887747   8.0631155  63.0640268  59.8708630   6.7499971
  37.8614855  86.1964703  16.5702069  37.5027370  86.9855976  16.1642277
  37.0970988  85.7378387  16.9189155  38.0695796  83.9080143  26.6516042
  37.1290898  83.7406540  26.5907907  38.4770465  83.0777740  26.4048147
  40.9419173  28.2839964  91.4653262  41.1872118  28.2043265  90.5435279
  41.3410490  27.5224875  91.8860692  84.9629957 101.1333030  81.0145596
  85.5233366 100.9883493  81.7769483  84.2061168 101.6065448  81.3601163
  34.2005318  19.5021532  95.5925102  34.8327702  18.9341353  96.0328054
  33.5532301  19.7080515  96.2669271  50.1598883  87.1812057   6.4322799
  49.7306108  87.1129417   7.2850966  51.0816383  87.3347473   6.6397142
  58.8839245  51.8718004  18.9099228  59.0839386  51.4893627  19.7643030
  59.1653252  51.2091541  18.2790935 113.5938872  29.2641638  93.5679048
 114.5302046  29.0731524  93.6232313 113.1794871  28.4062765  93.4754771
  53.2984877  64.6555996   2.5199321  52.6947355  64.1247368   2.0004125
  53.7052822  65.2457094   1.8854842  57.7803421 109.1728973   0.5538301
  57.4173594 108.7210464  -0.2079457  57.3666382 108.7469292   1.3045828
  47.9549694  76.8532753   5.5104584  47.5595140  77.7029991   5.7049352
  48.8968754  77.0033455   5.5911994 108.1663257   2.7244239  32.0407581
 109.0983230   2.5367694  31.9294310 108.0309517   3.5498672  31.5754032
  21.2147188  47.1534014  40.2199602  21.7390966  47.1950340  41.0196686
  20.3082085  47.1748161  40.5265760  97.2070503 102.2332478  16.8544042
  98.0050850 102.3361778  16.3359785  96.6278362 102.9288483  16.5431333
  34.1713881  29.5343852   7.5114298  33.4191132  30.1139760   7.3914832
  33.8301253  28.6585116   7.3308212  80.2692795  73.6034060  26.6628647
  79.4397020  74.0809155  26.6667390  80.2079773  73.0229521  25.9042120
  42.8537512  41.2173414  14.1333878  42.8964615  42.1676970  14.0273702
  43.6942148  40.9821892  14.5265198  68.0363083  80.0447464  16.3285029
  67.3076820  80.4192924  16.8235362  68.6623240  80.7637691  16.2427890
  53.2792997 107.4993515  23.3612251  52.5843906 108.1564713  23.4002376
  53.0482197 106.8657780  24.0405035   4.2124193  18.2870434  95.3604618
   4.6316498  19.1199253  95.1441650   3.7924641  18.4428500  96.2063879
  24.9437397   4.0253018  84.6496358  24.0846222   3.9812849  85.0694075
  25.0384920   3.1809233  84.2088619 100.4948224  36.2415026  94.7848703
 100.0145401  35.6914042  94.1660434 100.7683123  36.9999312  94.2688921
  70.7964182  95.1510143  40.2792168  70.0561619  94.8895454  40.8268404
  71.5334177  95.2137280  40.8867741  35.4596996  57.3336887   9.2199951
  35.0248551  58.1117630   8.8710827  35.6165028  57.5398874  10.1414752
  65.9157515  77.4500561  22.8654480  66.2594557  77.4553013  23.7587953
  65.7402992  76.5271759  22.6817393  50.2434492 106.3938808  21.9939041
  50.5295372 106.5420818  22.8952479  50.8264971 106.9384098  21.4649606
  61.4761353  68.7087488  12.3091042  62.3830271  69.0075254  12.3762691
  61.5409040  67.7547646  12.2648931   0.1963349  58.3175230  39.6903348
   0.2413081  58.3473873  38.7346578  -0.2455667  59.1306448  39.9348450
  41.4505404  38.6086844  85.1518872  41.2218397  38.3287524  84.2655662
  42.3841780  38.8144110  85.1046660   3.1224745   8.8337849  92.4054301
   2.8550833   8.6983393  93.3144891   3.0595415   7.9664181  92.0054918
  64.4508219  45.5350113   4.2697272  64.6802521  45.7882452   5.1638573
  65.2309513  45.7410765   3.7547839  70.9191704  86.7028236  20.8685255
  70.1958704  87.1803951  20.4623222  70.5022287  85.9543991  21.2954307
  75.9264708  66.4676619  22.4837327  76.3714409  65.8734226  23.0879807
  75.2933788  66.9342422  23.0293798  33.0857914   9.8749159  78.3726325
  32.1545618  10.0884007  78.4315207  33.2242649   9.2170714  79.0540233
  67.1620989  58.7902927  12.2215199  67.1461105  57.9386950  12.6582754
  67.9844570  59.1895914  12.5052762  82.5537586  57.7238703  15.3108549
  82.8349304  58.3370018  14.6317089  82.8033352  58.1460285  16.1328804
  65.9336090  77.4403667   1.2994574  65.6684494  76.5344620   1.4583609
  65.2786446  77.9657650   1.7590372 102.6600541   0.8941553  72.5028422
 103.3693541   0.7877444  73.1367233 102.2633303   0.0253628  72.4392441
  48.7411356  76.4179134  10.2641654  47.9895639  76.9074678   9.9299335
  48.5466623  75.5053091  10.0506961  67.2932720  80.7370472   9.9691659
  67.2712994  79.8289967  10.2711415  67.9342842  80.7376099   9.2582947
  60.4162025 102.4784756   9.9996823  61.2302828 102.6043987  10.4871750
  60.6988621 102.3110199   9.1006309  35.3334063  19.3096445  90.0067338
  35.2826231  18.5210608  90.5469134  34.5990723  19.8488377  90.3004238
  91.5292246 110.2539342  86.5658316  90.8860952 109.7114556  87.0222697
  92.3656303 109.8147815  86.7201254  59.3776805 110.4914802  88.1939462
  58.4634632 110.4846996  87.9104093  59.4369728 109.7772401  88.8284328
  56.8518114  61.0286570  21.8737555  56.4902306  61.4673948  21.1036873
  57.7551794  61.3409185  21.9252086  30.9489649  12.5124644  84.5159343
  30.0058954  12.3591469  84.5738104  31.3269299  11.6403197  84.4030705
  61.0563326  86.7541599  22.9996753  61.6491652  86.8006897  22.2495985
  60.3163528  87.3098278  22.7549434  81.1800766  72.9978752   9.5681721
  81.2058640  73.9530087   9.5107901  82.0876503  72.7433538   9.7347862
  63.8151550  53.5495234  14.6085882  64.6021509  53.0408049  14.8037040
  63.8024282  53.6142445  13.6536634  90.4029369  81.5020752  18.6561561
  90.1776505  81.2649250  17.7565789  91.3529110  81.3939095  18.7016189
  64.0276796   9.3278556  12.0832336  64.3729693   9.9089961  12.7609384
  63.6066920   9.9153476  11.4556551   4.9037474   4.5780848  71.4975622
   4.4022005   5.3509615  71.2380722   5.3447550   4.2983101  70.6953934
   9.1890209  57.3736571  81.7771461   8.4000700  57.3782728  82.3191514
   8.9734190  57.9391001  81.0355094  30.4241055  26.6342829  86.8611076
  29.9763315  25.8455275  86.5551743  29.7702759  27.0907400  87.3906287
  14.5152109  39.0764902  95.2641718  13.7305516  39.4512652  95.6642800
  15.1634186  39.0700148  95.9684551  63.8224459  70.9437037  18.7192869
  64.6766329  70.5451584  18.5526907  63.5513878  71.2928963  17.8702736
 106.7973423  81.3351536  34.6707845 107.6640415  81.5709972  34.3399644
 106.8577003  81.4682102  35.6167674  53.2365561  69.2707205  13.9285493
  52.3931885  68.8337040  13.8103354  53.5991383  68.8804817  14.7238350
  41.0645788   8.5714672  53.3392742  41.2827986   9.3780707  52.8723648
  40.9108752   8.8511942  54.2416933 114.2235793  56.1948965  86.9744524
 114.3906797  56.0708712  87.9087576 114.6389569  57.0316695  86.7658624
  47.6661062  36.9912195  23.5776138  47.7800608  36.1352324  23.9905691
  48.5338688  37.3933434  23.6165166  40.0592709  83.2526398   9.2328292
  40.8991671  83.5705376   8.9015520  40.2927446  82.5689220   9.8607212
  73.0867624 110.2805519  39.5625663  72.3610306 110.8412266  39.2883801
  73.0828428 110.3339291  40.5182695  46.6156721  43.3282328   0.6808538
  45.8999729  43.0676126   0.1011300  46.9304943  44.1552210   0.3158762
  45.7173586  84.7925568  13.1312943  46.1777830  84.7187805  13.9672375
  44.8975277  84.3173885  13.2666576  72.5116110  78.6004496  12.9271138
  71.8297100  78.2782555  13.5165513  72.0438242  79.1472006  12.2958636
  22.0038908   9.7471617  67.7574780  22.1529454  10.2262591  66.9423202
  21.6583937  10.4042338  68.3617332  66.4950848  53.8419104  15.4205179
  66.7416000  53.6429358  14.5172620  67.0528364  53.2736254  15.9517407
   9.4128245  42.4584196  94.6586731   9.4290751  42.8988074  95.5083940
   9.7500485  41.5806006  94.8373699  71.2062597  65.0979471  12.3620391
  70.5937862  64.3634367  12.3219347  70.6927538  65.8538198  12.0770848
  68.1972218  89.5269585   2.5098243  68.1722975  90.4750538   2.6391557
  68.8345146  89.2143059   3.1519604  44.3563271  60.9763241  10.2481008
  43.9083958  60.6893539   9.4523376  44.5890141  61.8887568  10.0761831
  11.6760319  15.2307938  87.4535033  12.4008816  14.6113013  87.5374809
  11.7210310  15.5304430  86.5455296  47.5278521  28.9780521  22.7365375
  47.5703526  28.0611587  22.4650002  48.0694818  29.0198016  23.5246515
  32.8739572  89.3118286  23.8143063  33.5308146  89.9360847  24.1226411
  33.0176401  88.5300064  24.3475485  86.9846439  77.9479456  28.0533600
  86.2826252  77.4200153  27.6729703  86.8911648  77.8257847  28.9981198
  76.7709827  71.4211512  19.1535592  77.3663282  70.7320976  19.4485188
  77.1217823  71.6940689  18.3058059  52.6845551  74.2665911   8.3509648
  52.1358204  74.6796894   9.0176505  52.8518248  74.9614286   7.7142137
  28.8371849  67.2964334   5.0623626  28.4022117  66.6319132   4.5280936
  29.6992707  67.4008751   4.6597040  70.3946692  96.2068170  87.6282069
  69.9992997  96.8896144  88.1701496  70.3334934  95.4134005  88.1601700
  43.7064219  52.7810764  15.7200563  43.5781574  53.3775806  16.4575946
  42.8320265  52.4390841  15.5337417  70.1319838  86.4467812   9.7344381
  70.1893139  85.5632782  10.0982571  71.0314035  86.6635132   9.4888669
  36.3143706  78.6424875  20.1984096  36.9347167  78.0642891  20.6423616
  35.4748797  78.1870031  20.2618289  51.5084791 101.0823917  19.7065759
  51.2533569 101.9968510  19.5844567  51.1110783 100.8322048  20.5406690
 115.5764283  36.5217875  76.5008142 116.3582529  36.0332201  76.2433508
 115.3975976  37.0969199  75.7568553  75.2360916  82.8908539   1.2518276
  74.9728012  83.6348438   0.7101707  74.8889494  83.0924892   2.1207744
  15.2172821   4.8338841  69.4828227  15.1734083   5.6610535  69.0031412
  16.1441201   4.5954083  69.4647673  26.9259596  82.2778606  27.7141333
  26.7632151  81.3853455  27.4088860  26.2178445  82.7950954  27.3303795
  30.2184456  24.0053509  93.9509863  31.1672371  24.1170405  94.0106293
  30.0770634  23.0713032  94.1052531  93.6397076  69.1254902  32.0163298
  93.1868458  68.3207846  32.2685027  93.7448406  69.6081543  32.8362155
  66.1173677  78.4369135  25.6786156  66.9132328  78.9645672  25.7450533
  65.4158068  79.0761995  25.5546737  41.1979532  61.5599728  36.8290091
  40.9160519  62.1515226  37.5267434  41.8165636  60.9659100  37.2540212
  20.2790659  52.8301619  91.0139742  20.5145758  53.3580015  91.7769652
  20.9941166  52.9731081  90.3938928  51.7712831  69.1929817  31.9970036
  51.0367775  69.7126961  31.6704535  51.5998363  69.0982580  32.9339480
  26.0871720  79.0438366  12.1529281  25.3394437  78.8581467  11.5849018
  26.3675237  78.1846857  12.4683523   1.5989989  54.6128653  86.6398379
   0.9466379  53.9131258  86.6077283   2.2652262  54.3484972  86.0054210
  67.3550445  96.4471477  75.3263333  66.6876847  95.9447616  74.8589232
  67.2338897  97.3468297  75.0228050  83.7121040  15.0991206  37.7046704
  83.2128507  15.1907592  36.8931413  83.6020500  14.1807799  37.9511809
   6.4845854  57.0245934  50.1718664   6.7663628  57.8490591  50.5682087
   6.0622233  56.5474892  50.8861589  82.5912666  75.4054928  14.2995572
  83.1508064  76.0117579  13.8141787  83.1342316  75.1119661  15.0311768
  49.7556782  84.7508430  20.1529145  50.6440306  84.4533062  20.3491974
  49.3684959  84.9305534  21.0096669   5.8051699   8.9371870  94.3072009
   5.1835650   8.9036272  95.0343272   5.9390229   8.0211113  94.0640539
  13.6835831   3.4757803  88.2370815  12.8722208   3.5315464  88.7418684
  14.2434996   4.1580675  88.6075106 107.3259939  42.3396967  93.9657125
 106.4768470  42.7772520  93.9047062 107.7980889  42.8261374  94.6415314
  49.7617292  43.4766912  15.4473543  50.6578970  43.1612301  15.5639875
  49.7514248  43.8479996  14.5651674  74.0835333  74.7241068  34.8487854
  73.1898975  74.9342346  34.5776772  73.9887094  73.9553213  35.4111123
  18.6861408  56.9764662  15.0350118  17.7604079  56.7849827  14.8847353
  18.7422800  57.9313040  14.9980938  49.4574261  64.0691853  14.5979738
  48.9187145  63.3155489  14.8389244  49.9781561  64.2512655  15.3802276
  32.5395775  52.4538660  17.2609830  32.0685601  53.2856512  17.3110092
  32.2462416  51.9658566  18.0304205  44.5844984  50.9964895  29.6828604
  44.8363781  50.7094765  28.8051271  43.7338495  51.4184093  29.5619845
  76.9524652  95.9165662  81.2383988  77.1715338  96.5142530  81.9532493
  76.2585980  95.3615373  81.5943828  34.1763895  24.3514345  70.8912113
  34.7512453  24.1025494  71.6149738  34.6429032  24.0658329  70.1057008
  75.9823370  88.6689377  30.8131456  75.5989981  87.9963684  31.3761020
  76.8376780  88.3165359  30.5673122 103.3755380  11.2713962   4.8794553
 103.5638267  10.9861903   5.7735682 102.5805933  11.7986732   4.9586400
  28.5502315  71.6721869  10.7671082  29.1415596  72.2705698  10.3104901
  27.6904964  72.0876694  10.7002962  69.2159510  62.6965761  12.3325074
  68.7607908  62.0646954  11.7759228  70.1443434  62.4977350  12.2109342
  57.5243015 105.0029844  86.8517956  57.9687161 104.9959415  87.6995447
  58.2226784 104.8554986  86.2140265  39.5866179  60.2121782  35.1514292
  38.8590837  59.9517632  35.7163262  40.2726030  60.4914141  35.7577968
 110.6021250   9.2319821  85.4558828 111.4097584   9.6072720  85.8067635
 110.3747715   9.7991989  84.7191289  66.8554306  48.4126186  33.0103683
  67.6050425  48.8422251  32.5983691  66.3329887  48.0874348  32.2771931
  36.3328815  77.4403048  16.8176484  36.9771147  76.7396307  16.9188774
  36.7914343  78.2304144  17.1034610  50.1214695  99.7785282  23.5188866
  49.6748638  99.9386883  24.3502283  50.4467344  98.8811588  23.5907292
  71.4663839  82.0583820   4.2930779  71.1487961  82.0368385   5.1957977
  70.6758404  81.9799423   3.7591133  42.7281523  86.7873764  12.4531281
  41.8810225  86.5001678  12.7938843  42.8025103  87.6994419  12.7339208
  39.7456217  97.8681183  22.3802161  40.0897598  97.0363522  22.0546842
  38.8808990  97.9438686  21.9767952  25.7993913  81.5542412  14.5564973
  25.7403612  82.4766731  14.8052156  26.6642499  81.2790298  14.8606563
 102.5382460  53.2168959  95.3716656 102.4019612  54.1640757  95.3942802
 101.7369164  52.8506182  95.7457553  14.3681162  36.9586085  79.2509475
  14.0759009  36.6901205  80.1220158  15.3161162  36.8269633  79.2652038
  67.4135685  70.4649782  21.5439630  66.8660927  70.6036425  22.3167992
  68.3030891  70.6521940  21.8438578  40.7794714  38.4259796  32.7231550
  41.3539743  38.7337255  32.0221043  40.5909872  39.2095065  33.2396722
  77.6995373  75.8284712  26.8522143  77.0212317  76.3997841  26.4920259
  77.9723978  75.2850723  26.1129594 112.7284908  59.9326658  16.2925303
 111.9795704  60.5209112  16.1959851 112.9317284  59.9551630  17.2276330
  42.9502296  49.0888119   6.5354723  43.5633087  49.3761444   7.2120881
  43.2747269  49.4932318   5.7308739 114.0526522  37.1657942  92.1745789
 113.2021488  37.4190138  92.5334012 113.9764751  37.3351572  91.2355676
  96.4989853  83.0126762   7.2215331  96.0136414  82.7800179   8.0130810
  96.9637680  82.2111130   6.9812858  31.6522431  86.5447998  22.8581619
  32.2013688  86.8116665  23.5953689  32.2374845  86.0389805  22.2943568
  34.3159580  72.7977037  19.3756294  35.2603793  72.9341412  19.3002343
  33.9302421  73.6193419  19.0717137  30.0884836  19.2938278  78.3137312
  29.1970986  19.6202896  78.1908884  30.0461643  18.7793349  79.1197947
  66.0919911  95.3757280  89.9012074  66.1765606  94.9099749  89.0692493
  65.1652653  95.6100124  89.9514124  38.6938047  79.1933918  14.8396301
  38.8211966  79.9135733  14.2221010  38.4627414  79.6223879  15.6635261
  56.6667652  95.0270081  16.8380868  55.8072519  94.9827480  16.4191580
  56.5203238  95.5422974  17.6313508  88.9087200  29.7004771  23.9140224
  89.3439674  29.0554571  23.3565879  89.0491867  30.5358624  23.4683442
  83.4900610  30.4583071  85.4693201  83.8799954  31.3278578  85.3795042
  83.9794255  30.0489043  86.1828640  93.8617325  40.5451012  14.9552715
  94.7750378  40.2643776  15.0127327  93.3576393  39.7763729  15.2220523
  16.0592526   0.9075545  95.3131526  16.4913576   1.7603157  95.2650599
  15.1626461   1.1081646  95.5816354  10.6361359  27.0647524  91.9966364
  10.2022427  27.2885893  91.1733094  10.3309601  27.7275847  92.6161209
 112.0384502  98.1533241   8.9430398 111.5973282  98.4358978   8.1419218
 112.5283051  97.3727703   8.6841595  46.0002184  60.4210424   2.8763562
  45.7921982  61.3399506   2.7073261  45.3292942  60.1335764   3.4955955
  52.2176313 102.2728539  12.1206081  52.8537941 102.9802322  12.0150340
  51.7675161 102.2276592  11.2770534  17.6346147  74.7003984   1.0387884
  17.3564172  73.9805222   0.4725556  17.9495633  75.3725386   0.4344175
  61.6972589  75.1921558  18.3247769  62.1296453  75.8718872  17.8078234
  61.2493944  74.6474838  17.6774883  69.8345709  38.0957031  39.5811224
  70.2831602  38.0599880  40.4259443  70.4521370  38.5405350  39.0006351
  53.7316370  64.5424223  13.7894392  54.5277691  64.7803593  13.3142638
  53.6578989  63.5950756  13.6739981  61.8263340  73.8441467   9.8021197
  62.1267128  74.5545340  10.3689992  62.5844097  73.6369419   9.2556596
  51.9580954  12.3186825  85.6991628  51.5847510  13.0630492  85.2271798
  51.4950865  11.5571116  85.3500774  62.3672485  48.8564873   9.6204108
  61.5185308  48.4445620   9.4584614  62.4733305  49.4777203   8.8999617
  30.2558732  56.7862988   2.2438087  29.7643375  57.4389553   2.7424660
  30.1477814  57.0514631   1.3304442  61.9134331  36.5265036   6.3969666
  61.2793922  36.6691089   7.0997405  61.6920567  37.1841002   5.7375813
 113.8677276  14.4891976  75.9102991 113.1475914  14.1572855  76.4464643
 114.2117299  13.7146900  75.4652884  82.4753952 103.1725216   8.9856797
  82.6765347 103.3001423   8.0585939  83.3167362 102.9514694   9.3850774
  58.4813976  65.6950188  21.7326403  58.4530973  64.8338175  21.3157916
  57.5952291  65.8273268  22.0694351  24.4097185  85.6687450   3.9075863
  23.7352467  84.9935436   3.9812574  25.1408172  85.3346920   4.4273293
   0.4529446  38.1806563  93.3996165   0.1065129  38.7672232  94.0720454
   1.4021414  38.2140730  93.5185444  66.8638468  52.5892258   9.3182725
  66.6823101  52.0515728  10.0891173  66.4828968  53.4423828   9.5262051
  79.2947609  94.6641606  66.8264416  79.3187792  95.3012174  67.5404528
  79.8163683  93.9275187  67.1450546  75.4960537  75.3173399  28.8735175
  76.0215473  75.7929659  28.2301927  74.5914412  75.4541349  28.5921001
  50.9443903  48.3449841  12.3520255  50.7823849  49.2180920  12.7093291
  50.7125950  48.4182692  11.4262104  53.6180323   3.7799071  95.9898256
  54.2640322   4.3594883  96.3935446  52.7772539   4.0823077  96.3331760
 112.7824486   6.7649649  83.5618022 112.7547921   6.7834280  84.5184246
 113.4719838   7.3871182  83.3300736  98.7568569  92.7701759  39.9942803
  98.6618423  93.4039497  40.7052851  99.6721363  92.8476810  39.7250509
  29.7415447  92.2404480  41.7833662  29.0956354  92.4048424  42.4703932
  29.3772173  92.6635742  41.0058928  60.8816862  58.9365959  20.2979469
  60.6631136  58.2285404  20.9038472  60.7967567  58.5433626  19.4293940
  75.8271456  82.1892357  50.9334517  76.0843658  81.3326263  50.5924511
  75.3353024  82.5936794  50.2187872  43.7435198  52.4083138  56.4613390
  44.4407988  51.7550802  56.5189838  44.1139793  53.1907511  56.8697309
  34.9145865  48.1028318   9.7418880  34.3508792  47.4649000   9.3042672
  35.7517862  48.0375910   9.2824614  65.1925468  75.2488470  20.0932145
  64.5744133  74.5365906  19.9294209  65.1197052  75.4179287  21.0325432
  27.6903343  96.6060543  12.3278236  26.7755985  96.7914963  12.1154523
  28.1462717  96.6566563  11.4877093  14.9885386  31.0720347  83.1623962
  15.4860371  30.7875250  83.9290634  14.6354407  30.2629946  82.7922526
  50.8329010  64.5011187  17.2227192  51.0754108  64.2330885  18.1090486
  51.6687202  64.6404934  16.7775118  60.3909397 100.3442001  30.0021648
  59.7585344 100.7953358  30.5614161  59.8573971  99.9252224  29.3268704
  46.8022490  98.9963627  22.3477030  46.1605930  99.4191456  21.7769551
  47.4173594  99.6938133  22.5744987  63.6690950  78.3286095   6.3431817
  64.0530777  79.1922951   6.4943039  63.9541435  77.8053617   7.0923060
  69.9312067  83.3699608  43.3510542  69.8062420  83.0570793  44.2470026
  70.1829576  84.2880440  43.4508896  54.7127814  17.6287608  37.8613257
  54.3935949  16.7478995  37.6652908  54.6962768  17.6823573  38.8168812
  75.1193380  75.7887459  20.1133943  74.5835066  75.1716042  19.6151519
  75.8134604  75.2504730  20.4937744  17.7012461  32.5235842  89.9762234
  17.5071734  32.8283213  89.0898242  16.9822043  31.9281576  90.1875958
  35.2331513   9.5378540  68.6303738  35.2519720  10.4716919  68.4210303
  34.8515099   9.1262291  67.8550342  65.5446672  65.5442190  13.3526599
  65.3214121  65.1515913  12.5087214  66.1616659  64.9281836  13.7476933
 112.0561314  71.8709850  23.6770034 112.5662518  72.3941708  23.0587101
 111.3316345  71.5240288  23.1564689  58.9409065  93.3738708  16.3148808
  58.2047367  93.9509583  16.5180135  58.9371538  92.7243328  17.0179558
  60.5145073  70.6461239  29.2613554  59.5623159  70.6399775  29.1637254
  60.8395100  70.2232790  28.4664941  96.9272137  95.7557297  13.6285305
  97.1007919  96.1033726  12.7537477  97.7125359  95.2539825  13.8470364
  74.7846746 111.2190628   6.3345593  74.5007610 110.6196594   7.0247406
  74.5325708 112.0862579   6.6518062  92.7109623  63.8691378  23.8291764
  93.5257530  64.0089417  23.3466911  92.1621037  64.6173334  23.5942507
  84.9023151  76.1724806  27.1498775  84.1437626  76.4185238  27.6793027
  84.9091244  75.2155447  27.1713138   0.5621045  33.3002756  86.4146367
   0.1979225  32.7171038  85.7486692   0.8445137  34.0739821  85.9269348
  15.7397717  30.5699538  90.9015688  16.4284390  30.1908968  91.4477190
  15.2721995  29.8138998  90.5466261   5.7497250   3.7987189  23.4622622
   5.3787838   3.5241847  24.3008733   6.5070187   3.2269244  23.3366561
  81.5050411  83.7502193  16.9290924  81.9437695  82.9091549  16.8012261
  80.8466625  83.5770798  17.6019955  69.8299646  95.2682400  34.3849540
  70.3876877  94.9791050  35.1071548  69.0726662  94.6837616  34.4183350
  26.0690069  98.2527924  39.2014480  26.7655730  98.9078808  39.1580009
  25.2898359  98.7480831  39.4540596  53.0652905 100.9153080  37.9208159
  53.7801027 100.4647160  38.3705258  52.5414181 101.2963581  38.6255074
  93.8498057  27.2532557  81.3329068  94.1735185  26.4870928  81.8066516
  93.4687627  27.8108977  82.0111933  46.6901207  74.3861485  14.6891582
  45.7352591  74.4417763  14.7263217  46.8874025  74.2723465  13.7594485
  46.2692850   6.2174938  79.5594480  45.7105273   6.6099690  78.8886347
  46.7914694   5.5691860  79.0869525   0.5235724 104.4716072   2.9891974
   0.8421664 103.8451290   2.3393808   0.7689528 104.0887070   3.8314596
 113.3790523   1.0049873  45.3299570 114.1506607   0.6111770  44.9228096
 113.0644256   0.3388457  45.9410954  63.1821156 110.7220650  32.3798656
  62.8962755 110.1550293  31.6636276  62.6737928 111.5252399  32.2669578
  90.7377434  80.2200222  28.9083457  90.2577019  80.1533222  28.0829144
  90.2808857  79.6222448  29.5000958  38.7353247  27.3367213  93.1426853
  38.1230515  27.1080969  92.4433368  39.4599026  27.7722643  92.6937687
  77.5130415  77.4847984  12.7193594  78.0404902  77.9577017  13.3630919
  76.6118193  77.5902748  13.0241597  71.8743753  89.9367523  19.8242497
  72.4308252  90.6867123  19.6141267  72.3976088  89.1738987  19.5782423
  34.5130825  76.7476177   6.0293716  33.5580778  76.7089081   6.0813564
  34.7446489  76.0842514   5.3793287  57.0317793  61.6076612   6.7764759
  56.1460161  61.9394398   6.6296035  56.9140720  60.6701231   6.9294471
  75.0956011  67.6286983  11.1138570  75.5747747  66.8084335  11.2313139
  75.6694651  68.2970476  11.4883161 102.5516033 107.0516109  53.7564278
 103.4560299 107.2103500  54.0266991 102.6286602 106.5891933  52.9218864
  48.1139421  74.5031548  21.7990756  47.4607420  75.1983261  21.7197251
  48.3357334  74.2786169  20.8954048  28.6372441   6.2519406  94.6130842
  27.6996105   6.3735340  94.4637664  29.0083807   6.1518954  93.7364557
  95.7320786  98.0807114  24.1914415  95.4782677  97.2618484  23.7656856
  96.0450268  98.6352730  23.4767628  78.2631302  74.8158264  24.5914626
  78.5450029  73.9077950  24.4807291  78.7122536  75.2928257  23.8936138
  78.3512545  56.4926815  23.5277510  78.6332750  56.0910606  22.7059269
  77.4216938  56.6794920  23.3964276  71.7906094  93.1943130  19.0525782
  71.3122654  94.0165806  18.9463544  72.1407509  93.0066872  18.1816983
  45.9686678  35.0341891  96.2163143  46.2911528  34.5451067  96.9733069
  45.2805918  34.4797419  95.8483716  65.4429483  87.7075863  13.2648206
  65.6438160  88.3243370  12.5609016  64.5879698  87.9874992  13.5917795
  10.1990002   5.6678389  86.2355891  10.5482214   5.7812594  87.1195641
   9.6712464   6.4519070  86.0841253  68.7348843  95.0977993  45.4436398
  69.3072367  95.5665493  46.0510206  68.2148933  95.7845116  45.0262022
  90.0543976  79.2872000  85.3470421  90.7800102  79.6521759  84.8405838
  89.7273922  80.0244808  85.8625221  88.4099960  85.8742714  12.0713151
  88.6090851  84.9383831  12.0979071  87.6912975  85.9840393  12.6939404
  97.1780396  82.9539871  11.1766946  97.4577904  83.8376045  11.4158249
  96.4749336  83.0890656  10.5413723  75.8695793  98.5980511  30.5981612
  74.9227524  98.6837673  30.4867816  76.2058067  99.4867229  30.4822421
  58.1217974  21.2109135  95.2905628  58.1445139  20.5958317  94.5574955
  58.3391016  22.0572995  94.8998701  96.3772041   7.4826102  37.1168375
  96.7805988   7.7705627  36.2979412  95.4439480   7.4176936  36.9142485
 104.6414835   3.3548408  49.7874212 104.7924644   3.6974864  48.9064980
 104.1822559   2.5268321  49.6468973  71.8317270  97.6376915  13.7893212
  71.3939381  96.7882442  13.7345040  72.2825527  97.7294064  12.9499316
  70.3576374  91.4903641  31.0306048  69.5444250  91.8791580  31.3527155
  71.0234833  91.7746353  31.6567612  25.8490979   4.3883185  21.2185574
  25.6304966   4.3816142  20.2866769  26.7994915   4.2769389  21.2424374
  84.8901766  27.7925585  84.9851039  84.3145674  27.9937456  84.2472508
  84.8692148  26.8379210  85.0518659  17.8042954  21.9780730  90.1758143
  17.4608868  22.8297756  89.9058053  18.7552660  22.0805023  90.1385137
  54.6213818  59.1642189  20.3018999  55.4402065  59.6522665  20.3888941
  54.8901367  58.2982302  19.9951982  92.2254086 110.4394913  25.5682302
  92.8405285 111.0467052  25.1569629  91.3616371 110.7680225  25.3188229
  60.0453997 105.4829788  33.3296943  60.7378578 105.7488346  32.7246714
  60.0824594 104.5264912  33.3307409  62.6065445  73.8193989  27.7017546
  61.7276478  74.0698719  27.4170899  62.9542112  74.6046114  28.1246090
  21.4913177  91.8880558  13.8342655  21.9325662  91.2394238  13.2858169
  20.9679914  91.3690853  14.4450259  54.4015169  95.3491116  15.6251502
  53.7898445  95.9054184  15.1428556  53.8487148  94.6820450  16.0321653
  66.2739897  86.2392616   6.3797337  65.4791355  86.3765717   5.8643866
  66.3663340  87.0402718   6.8955815  26.9595718 108.6916733  44.8066711
  26.7522931 108.0521011  44.1253376  27.7466369 109.1339207  44.4885778
  42.5273180  86.5215492   0.8945161  42.8872585  86.7890167   1.7401710
  43.1407070  85.8617401   0.5710225   2.4146384  43.0573843  77.4010363
   2.8110188  43.4779452  78.1640890   1.5368098  42.8109358  77.6924184
  53.7734699  74.6225643   2.8643548  53.1788206  74.3327665   3.5561958
  53.2502460  74.5768642   2.0641169  44.9194622  92.3331738  34.9458551
  44.5955610  92.9431438  34.2830896  45.7601309  92.7004814  35.2189732
  52.1103001  66.3699341   7.6571190  52.2746563  66.0646772   8.5493284
  51.3053656  65.9228802   7.3954839  99.9558544  80.1228905  29.9576330
 100.5062199  79.3426466  29.8902345  99.1631031  79.8193312  30.3999329
  34.8677414  31.8575762  88.2723173  34.2022246  32.2337340  88.8483605
  34.4094294  31.1641310  87.7976414  40.2001047  87.7104568  25.0886297
  39.5945859  87.1865940  25.6131673  39.9945879  87.4787712  24.1829181
  39.2134523  57.5344753  32.2515917  39.7627354  57.6509285  31.4763761
  39.2768264  56.6006279  32.4519491  67.3850012  93.6513042  25.2346563
  68.0048609  92.9545975  25.4505634  66.6692972  93.5373783  25.8599734
   1.4546048  14.1601997  25.0429630   2.0699727  14.8397403  25.3182602
   1.9718586  13.5812526  24.4830465  85.1400757 103.4458447   9.7190255
  85.4747581 103.9525032   8.9790821  85.7299805 103.6594486  10.4419458
  80.0539684  92.4375916  11.9772756  80.8493805  92.6838303  12.4494183
  80.0553131  91.4804554  11.9886184  81.5481186  88.5127354  59.0423441
  82.2381496  89.1641045  58.9166451  80.7835579  89.0224457  59.3104458
  94.0125925  13.1173377  22.0687771  94.3883020  12.3279147  21.6790676
  94.6403581  13.3728461  22.7446938  44.6033382  95.6328297  27.5766730
  45.0228500  96.4544392  27.8320122  44.6377182  95.0911999  28.3651447
  65.8174038  84.5386219  26.1230445  65.6903791  84.9057007  25.2482009
  66.1871576  85.2589035  26.6336417  67.8282642  75.1288462  16.8731356
  67.8309059  76.0856247  16.9014227  68.3345747  74.9109697  16.0905695
  41.2945509 101.9112301  40.3219509  40.8987808 101.0678673  40.1020956
  41.3749838 102.3641491  39.4825292  91.6061783  65.7280779   9.8384434
  92.2152424  65.7972574  10.5736256  91.6175556  64.7999716   9.6045172
  74.2112589  71.9120646  32.5499368  74.8427153  71.4739895  33.1205368
  74.7443771  72.4822187  31.9959116  99.4091702  89.2269039   2.1481586
  99.2934132  88.3024216   2.3676197  98.6046028  89.4664574   1.6882613
  82.1930343  90.4034012  66.5863350  81.6061146  89.6684020  66.4087704
  83.0148441  90.1623552  66.1588362  67.7697086  82.0103741  42.5498724
  68.3100700  81.3316822  42.1453667  68.3927965  82.6881218  42.8118610
  33.1813353  44.2041300  87.5576773  33.6273449  43.8567637  86.7852530
  32.5215405  43.5440729  87.7703461   2.7035956  69.3820858  21.9404960
   2.8761344  70.1301956  21.3688374   2.0671801  68.8540459  21.4584351
  94.9327118  11.6301684  16.5853667  95.6938011  11.0545497  16.6604614
  94.1934520  11.0865264  16.8577242  38.3195465  46.4384077  91.5749484
  38.7222307  46.9250391  90.8557388  39.0313071  46.3027190  92.2004217
  69.6204710  72.3689032  17.0812750  69.7362518  71.8548107  17.8803587
  68.6718559  72.4567127  16.9883049  77.7828693  58.2986975  18.6637926
  78.4003496  58.2962799  17.9323959  77.8138781  57.4054480  19.0063858
  46.5910149  57.5046539  30.4954743  46.5493107  56.6978121  29.9821520
  47.4824667  57.8270864  30.3628707  42.3645514  20.3078221  80.3521839
  42.5269526  20.7615851  81.1791995  42.6367300  19.4050310  80.5168632
  51.5480757  47.9521990  41.6282558  52.0226002  47.7185583  42.4260473
  50.6969166  48.2618856  41.9378519  99.7578794  98.8812059  76.5689793
 100.2425987  99.4451135  75.9662464 100.4092390  98.2573026  76.8894604
  46.3072443 107.3830414  44.0427589  46.5263462 107.6914692  44.9220228
  47.1305609 107.0371342  43.6981916   6.4725464  12.1532915  89.5571467
   6.3393992  12.9769610  90.0262615   5.6485146  11.6789149  89.6674660
  23.2960242  57.7279471  82.7440670  22.9147738  57.4418639  81.9139853
  22.7312678  57.3409365  83.4130278 100.5266649  17.4234252  10.9736431
 100.6185514  18.1684928  10.3797853 100.9637148  17.7029758  11.7780507
  62.8544378  98.5484123  14.1538191  63.5082150  98.5224247  14.8524857
  62.6230717  97.6311016  14.0080619  53.0969334  91.7383289  15.0806570
  52.5254726  90.9829140  14.9427629  53.5553741  91.5457058  15.8985591
  47.7193213 101.5002823  47.8941774  47.5770044 100.6875038  48.3793306
  48.6682558 101.6249371  47.9088354 107.2762669   9.7412775  93.0190492
 107.8630484  10.3310059  92.5456181 106.5862502   9.5333432  92.3890710
  54.4866085  73.1604671  26.0377312  53.6738300  73.3097649  26.5207791
  54.7105980  72.2482586  26.2219501  41.9369078  66.4196396   3.6514586
  41.9616747  67.2917986   3.2578111  42.6685715  66.4145470   4.2686129
  36.3099640  36.9263457  78.1711247  36.8740052  37.5590514  78.6158326
  36.4543169  36.1050223  78.6410466  54.2723274  65.5101156  29.0765738
  54.4239521  65.6647539  30.0089526  53.3761692  65.8111191  28.9264941
  73.7638777  32.0397471  93.9258706  73.3421152  31.6835306  93.1439075
  73.0415171  32.2142123  94.5291871  92.8614616  90.2317524  13.6714005
  93.2036972  89.3781471  13.4059262  93.6379051  90.7360458  13.9144182
  48.8505030  92.2711372  28.9849281  49.5772409  91.6865635  29.2002344
  48.1069851  91.6858292  28.8406086  68.6372215   1.9615417  35.8534145
  69.4449741   2.2064643  36.3048363  68.1568844   1.4337974  36.4913702
  99.7536755  79.6336365  40.5334520  99.3885136  80.4276276  40.9239149
  99.0486431  79.2906857  39.9843264  74.8573875  66.7846918  30.3327870
  74.3675518  67.2103548  29.6291542  74.2493820  66.7682028  31.0719013
 111.5924835 105.7700348  26.4986396 112.5144577 105.7804680  26.7557049
 111.6000843 106.0023785  25.5700970  55.5495453  27.4536490   1.9212483
  56.3073587  27.8929710   1.5353155  54.8177814  28.0478215   1.7547786
 100.8200849   4.3806122  94.2597139 100.3524197   3.7858485  93.6733875
 100.5902685   5.2554653  93.9465898  88.7663776  77.7857512  54.1048363
  88.8436109  78.2178682  53.2542255  88.7597067  76.8509930  53.8988951
  25.1887941  32.8695464  11.1937642  25.5584717  33.5617089  11.7419267
  24.9035358  32.1990752  11.8145096 109.4255371  35.6598210   3.2458639
 109.3044473  35.7769871   2.3036104 109.5717515  34.7200012   3.3535227
 114.4030029  58.5111430  79.9828377 113.8576538  58.0604602  79.3380800
 115.1775915  57.9558098  80.0714293   3.3544317  97.5401402  20.4290605
   3.2030061  96.8755913  21.1011267   2.7197176  98.2290173  20.6260943
 101.9728578  20.9046553  79.0177527 102.3965562  21.7213057  78.7535694
 102.6666583  20.4020785  79.4447020  83.7419254  76.9879478  81.7992881
  84.5010788  77.3701637  81.3590279  83.9775688  76.0692948  81.9288161
  17.5481236  18.0134463  24.4761658  16.7496383  17.7706552  24.9448919
  17.5809848  18.9681113  24.5375299  18.0882883  52.1346140  39.7547626
  18.3608747  52.9827261  39.4045687  18.8260388  51.8498755  40.2940941
 114.5534546 100.5158370  93.6589962 114.0533954  99.7090047  93.5357278
 115.4470474 100.2849286  93.4052187  51.2974501  51.5768814   4.8056743
  51.6474009  51.2067318   5.6160802  51.9348669  52.2445869   4.5525002
  46.9389534  45.9014511  11.2756884  46.9693232  45.9447384  12.2314274
  47.6625776  45.3212595  11.0390961  91.7043955  83.6633032  64.6340754
  92.4095279  83.3794039  64.0523365  91.1270077  82.9026621  64.6995213
  53.8704890  32.7992056  88.8900998  54.6790522  32.3841093  88.5898587
  53.8059061  33.6009978  88.3712682  61.8098450  34.4786549  25.0025272
  61.7156696  34.6314120  25.9427547  60.9550667  34.1476059  24.7268581
  29.9859255  22.2984646  80.2512458  30.8103579  21.8270300  80.1317039
  30.2395027  23.1230782  80.6659069  16.7020619  12.2567225   0.8227902
  16.0090387  12.6637602   0.3029151  17.5143516  12.5934422   0.4445871
  84.6656877  99.2508643  83.7102154  84.6847374  99.9544900  84.3588915
  85.5718166  98.9464276  83.6604062 116.5259446  -0.1788570  73.5271862
 117.1728338   0.4713057  73.2532170 116.1319626   0.1930474  74.3162969
 113.9858705 107.4062913  75.1476219 113.8092882 107.8709596  75.9656265
 114.7089607 107.8901714  74.7485784  85.4540920  38.3381319   7.1925837
  84.5411587  38.2710481   7.4723792  85.5763531  37.6002622   6.5952313
   7.2135865  94.5764559  95.7311919   7.8658139  93.9599055  96.0639052
   7.6979577  95.3922599  95.6043719  65.4135054  10.6640147  94.6004625
  66.0308283  11.1886261  95.1102856  64.8717898  11.3078879  94.1441685
  33.5733771  39.8901057  14.1288805  33.2107139  39.5689631  13.3033049
  34.5173335  39.7559905  14.0440834  56.1357695 110.7641881  72.1337631
  55.8737714 110.0529569  71.5491822  55.7191283 110.5532497  72.9693153
  49.7317839  17.8865969   9.7883493  50.2737474  18.0455697   9.0155399
  49.9859762  18.5735321  10.4045784  57.6159477  28.6023903   0.7511032
  58.3181810  27.9601407   0.6480831  58.0603838  29.3986130   1.0422001
  57.1455669  56.7088032   4.1465598  56.3479090  56.4277411   3.6982551
  57.6784611  57.1085215   3.4591877  82.6291370  40.7719421   0.6652572
  83.3373070  40.8231211   1.3072145  82.8624630  41.4185715  -0.0008181
  45.7682037  58.8093901   0.2877470  46.4013052  59.3063974  -0.2303244
  45.6441593  59.3319941   1.0800419  98.7070448  95.4073137  73.4693125
  98.0210525  95.3596729  74.1351798  98.4947807  94.7037428  72.8559902
  44.6921015  56.5926552  24.4179201  44.5360231  57.2557974  25.0903153
  44.8475313  55.7857609  24.9088311  14.4448345   3.6547278  91.7635745
  13.5484713   3.3312653  91.6734165  14.9333924   2.9112004  92.1167242
  18.9277983  36.7963719   2.7663583  19.3861544  37.6338053   2.8359720
  18.0209208  37.0349360   2.5742841  64.8108196  64.3602705   5.7031655
  64.2280436  65.0154924   6.0869449  65.1989555  63.9145708   6.4561164
  53.0307770  12.8415585  14.0079165  52.8299618  12.9460609  14.9379623
  53.7705278  12.2343874  13.9893579 111.2784607  70.1366811  79.0488663
 112.1877033  69.9955517  79.3126598 111.2754757  71.0101479  78.6573580
  81.8601734 107.6479858  60.3972128  82.5960142 107.1685594  60.7778886
  82.0432789 107.6612943  59.4577840  22.4329823  10.4376076  83.6300686
  21.5170925  10.7017563  83.5428825  22.7877062  11.0210512  84.3008867
  13.8559073  13.6440514  86.5747985  13.7603062  13.0180357  85.8570269
  13.5693663  13.1635187  87.3514697  57.7735281  30.4883027  33.7028146
  57.7048063  30.6941819  32.7705479  58.4724665  31.0584903  34.0231276
  80.7931024 110.1682847  77.9846242  79.8751528 110.0569766  78.2320288
  80.7935459 110.1018899  77.0297304  88.1812668  48.1794214  25.8035636
  88.1444263  48.3847809  24.8693776  88.4756660  47.2692442  25.8372831
  90.4468948  83.7452930  82.1014145  90.8430940  84.6076792  82.2261074
  90.8415062  83.1997770  82.7818003  81.8239307  16.2540174  32.4291205
  82.0482254  17.1491611  32.1748710  81.5226173  15.8432293  31.6187501
  83.2348663  77.3885530  86.4525464  83.8899929  76.8874925  85.9667697
  83.2911665  78.2722181  86.0889545  84.9704361  56.6881084  16.3666654
  84.1524220  56.8778896  15.9072506  85.6477070  56.7756033  15.6959260
  53.8166046  56.0695028   5.6007463  53.4089184  56.9042110   5.3699005
  54.0819454  56.1770439   6.5141261  95.5696899 108.6657422  92.2311416
  95.6443197 109.4407647  91.6743597  96.3366443 108.7064832  92.8024128
 114.6094686  89.4243067  91.0039374 114.0172989  90.1534169  90.8196333
 115.3353674  89.5446747  90.3917172  19.2243326  45.9942389  11.4458680
  18.9394629  45.0805473  11.4616287  19.1567922  46.2503433  10.5260420
 102.1123153 105.5226129  94.4376884 101.7500908 105.2015250  93.6118987
 102.8381807 106.0893291  94.1765678   4.0632632  38.2279444  14.6946049
   4.9724981  38.4174895  14.4630957   3.9882594  38.4965873  15.6102669
 104.3812830 104.8749393  90.6210807 103.6122162 104.3929427  90.9251258
 105.1230556 104.3222850  90.8672049  52.8694820  10.4616427  35.1087976
  53.5315037  10.5644369  35.7924557  53.3642721  10.4908645  34.2899227
  62.3446703  49.7598314  14.6725392  62.8790712  49.3077707  15.3254449
  62.1367502  50.6029081  15.0753105  42.9354048  23.5893321  18.5386217
  42.3921394  24.0203214  17.8788149  42.9588175  22.6716638  18.2673848
  46.8931913  14.0266025  10.4812586  47.6435089  13.7685013  11.0166430
  47.2390699  14.0712833   9.5898521 110.4770053  57.5178049  79.2735091
 110.2055324  57.9419230  80.0875428 109.9255217  56.7376707  79.2144194
   8.0529421   5.1784228  82.9271772   8.3477228   5.8868788  82.3549643
   8.8492602   4.6877812  83.1306007  80.8832771 106.2750381  86.7928400
  81.4814026 106.4006656  86.0561624  80.0456125 106.0533708  86.3861289
  62.9668903  55.1795340   4.9985975  63.7189484  54.6012068   4.8713928
  62.6531553  55.3627586   4.1130286  73.2698328  83.3031481  69.2964700
  72.5356395  83.0885356  69.8719099  73.6804396  82.4594420  69.1072824
 107.2410488  78.6427307  32.3916531 107.3051929  77.6933575  32.4956393
 106.3287830  78.7956047  32.1454120   8.2786434   1.8114851  84.8473742
   8.2627600   1.5709875  85.7737329   7.3756378   1.6917322  84.5533171
  13.1571358  39.3408011  67.9050615  12.6882046  38.7611006  68.5052970
  12.5168246  39.5501612  67.2250631  83.2616520  38.9807487   3.5766020
  82.4996471  38.7616301   3.0403423  82.9001331  39.4606972   4.3217096
  43.5023707  21.6341303  87.9822656  43.2655733  20.8476160  88.4737506
  42.8198546  22.2683190  88.2018468  68.2691813  34.4467902   3.0376667
  67.8746986  34.1018438   2.2366501  68.9823055  33.8393140   3.2342860
  96.6638166  90.9183567  39.4825438  96.9199354  91.8051403  39.7360161
  96.4416105  90.9893530  38.5542038  13.7942570   0.4863118  89.8929533
  14.6030777   0.9223889  89.6248624  14.0844124  -0.3397562  90.2798101
  62.2101068  54.6118593  30.9979248  62.5357628  54.7475815  31.8877339
  61.7006350  53.8031864  31.0500765 117.1765531   2.8291128  87.5956926
 117.1777309   3.0191468  88.5338381 117.9687775   2.3105334  87.4553671
  43.0041426   9.9728678  96.1766424  42.1036642   9.8265789  95.8868823
  43.0521029  10.9141825  96.3435704  68.2106113  61.3792849   2.7633837
  67.4035931  61.6533232   2.3276664  68.6941433  62.1930170   2.9057646
  70.2795076  72.4414015   0.0678458  69.9491119  71.6215944  -0.2995603
  69.5420504  72.7955389   0.5648146  55.7932252  82.1859210  89.8304549
  56.0896379  81.4092129  89.3560091  55.4074306  81.8417781  90.6360355
  43.1624985  54.4345045  18.0184758  43.4680176  55.2240944  18.4650624
  42.2078085  54.4904995  18.0592275  96.7880518  94.9477213  87.1364364
  97.2782070  95.4218262  87.8081527  95.8704883  95.1423281  87.3273268
  49.5415217  95.8998388  90.2880868  48.8282908  95.2617901  90.2673808
  49.7956902  96.0047906  89.3712357  82.8604794  11.0146928  17.6454830
  83.1492805  10.6213868  16.8219948  83.1779766  11.9167697  17.6043916
  22.9914927  57.3344564  20.0437808  23.9374900  57.3589230  19.8998296
  22.7265477  58.2542276  20.0515985  88.5649807  74.4929796  70.5719259
  88.4565527  74.7585374  71.4851358  89.2264921  73.8017326  70.6004289
  28.7553900   3.8893889  78.3738866  29.0293902   3.9361904  79.2898372
  28.1944626   3.1149576  78.3309534  52.3784876  48.8411808   1.7190534
  52.5645018  48.4359407   0.8720523  52.8127432  48.2741833   2.3563692
  92.5219406  12.0578049  58.0278376  92.5620223  12.8992937  57.5733951
  93.2902719  12.0570563  58.5987118 101.5429241 102.1493810  87.1927002
 102.1018678 101.9304698  86.4471212 101.2935573 101.3022226  87.5619879
  91.8264580  94.3962383  10.8906484  91.2658310  95.1696491  10.9520149
  91.3316631  93.7060928  11.3323593  24.5416849   7.0409821  83.9007154
  24.6865624   6.1935614  83.4798601  25.1772135   7.0648907  84.6160927
  56.0346460  37.0408154  26.4824533  55.5701733  36.4419460  25.8977723
  55.8956575  37.9064679  26.0983229  62.9657507  83.9116859  20.4627848
  63.0446815  83.9031792  19.5088816  62.1986246  83.3687973  20.6444907
  98.4736902  76.6977971  95.1631023  98.2530338  77.6289766  95.1841619
  98.8441974  76.5198391  96.0275611  52.5016212  78.6826515  18.1723011
  51.6811895  78.4929323  18.6274171  53.1756163  78.5924721  18.8459706
   4.9617039 110.5291408  82.8531924   4.6202504 111.4153522  82.9726651
   5.5985867 110.6115192  82.1433905 114.4746620  81.4407104  71.2886575
 114.0839416  81.4982932  70.4167321 114.9608833  82.2592443  71.3877657
  27.4393582  34.4703197  14.8737586  28.3154559  34.0907478  14.8058748
  27.2743821  34.8480392  14.0098464 113.1837065 108.9466756  79.9451831
 112.9216463 108.2935708  80.5940357 114.1387159 108.8878101  79.9183073
  90.4055006 105.7808440  60.9626821  90.6674558 104.9049895  60.6789735
  89.5485431 105.9171813  60.5586198 104.1860086 102.5820869  82.6902559
 104.0212089 102.8931659  81.8001428 105.1030857 102.8015321  82.8547183
  92.7189064  39.8033452  10.0701940  91.9963360  39.7893238   9.4425613
  93.4944725  39.6005416   9.5471227  43.5381746  29.8509336   5.6713063
  44.1206408  30.4400015   6.1508572  42.8443336  29.6393704   6.2958515
  51.5811396  22.8749371  54.3026495  52.2864199  22.5027466  53.7732315
  51.6279602  22.3996615  55.1321983  66.7113876  45.8924961   2.8460345
  67.0930290  46.7210531   2.5560829  66.6534996  45.3639269   2.0501077
  37.2082233  70.9075308   3.3011314  37.6826000  70.0765324   3.2758340
  36.4314222  70.7563686   2.7626476  42.7770376  42.3410559  28.9696789
  42.5384998  41.4940977  28.5928631  43.7090731  42.4364614  28.7736320
  58.2012510  63.9230633  12.9388523  57.5501537  64.4809294  13.3643985
  58.7638378  63.6238480  13.6531341  67.4015474  61.7865849  10.0628138
  66.9913054  61.1829233  10.6821096  66.7843056  61.8370724   9.3329525
 106.0893095   0.5484389  80.1639345 105.8361400   0.3968619  79.2533520
 106.4507283  -0.2888872  80.4546049  74.4006252  48.6560202   3.8610977
  73.6737537  48.6737823   4.4836503  75.1229477  49.0804195   4.3240917
 107.0292676  97.1573467   6.7641354 106.9327940  97.9584927   7.2790045
 106.2076128  96.6853077   6.8993968  43.7649536  45.6323004  19.4471049
  44.3372631  44.8814869  19.2890835  44.3437433  46.3920832  19.3841577
  63.3229954 105.0910848  95.2683675  63.4399111 104.9400085  96.2063120
  64.0986473 104.7018140  94.8645547   7.0624482  57.5513824  86.8203732
   7.5738370  57.8641587  86.0741249   7.4900662  56.7347974  87.0783713
   6.7956608   2.0211647  60.3653172   5.8820217   1.7979000  60.5432132
   7.2305792   1.1763190  60.2499226  47.5883722  49.5609951   2.7039939
  48.4002542  49.3720675   3.1745031  47.6274681  50.5008078   2.5266400
  99.4717593  68.2770252   1.6489300 100.2990408  68.5593843   2.0389433
  99.5448978  67.3241043   1.5958568  61.9637156  16.3237119  15.1313686
  62.6902342  16.9409645  15.2173793  61.8061876  16.2690437  14.1888034
  78.7776977  88.9048975  95.9471508  77.8533274  88.9979714  95.7167028
  78.7812335  88.8415855  96.9022481   8.5263556  13.7450598  84.7795537
   8.2106798  12.9727886  84.3103233   9.4431418  13.8268421  84.5167795
  59.0142918  63.8771772  25.1652384  59.5761681  64.6472216  25.0782824
  58.1264257  64.2135859  25.0437665  77.3387152  73.1773918  78.5061636
  76.7986256  72.9981642  77.7364805  77.9954821  73.8017255  78.1977883
  82.4658966  46.4691782  17.9676306  82.2963047  46.3351917  18.9001107
  82.4497223  45.5887747  17.5923216 113.8035358  16.0969351  83.2809070
 114.2684735  15.2670477  83.3874741 113.4522952  16.2880896  84.1505745
  62.4918955  13.7244175  90.9928110  61.8398112  13.0298088  90.9004375
  63.1921309  13.4774397  90.3887388  48.4606123  73.7786674   9.4993585
  48.6309624  72.8558969   9.6883261  47.7050591  73.7673092   8.9117813
  33.9977932  57.5735188  21.3061500  34.0156150  57.6503229  20.3522038
  33.2464504  57.0087004  21.4869666  43.5169840  61.1365461  29.8097491
  43.8997602  60.2603483  29.7651649  44.1015959  61.6240644  30.3900886
  84.8207760  56.2884188   8.3953404  85.1621056  56.5440702   9.2522955
  84.7980022  55.3318691   8.4222442  62.5721550  61.9024467  28.5812211
  62.0287561  61.8000031  29.3625379  61.9546413  62.1398592  27.8894496
  55.8427811  69.3260098   0.2016212  56.4795160  69.2177725   0.9080838
  55.6113720  70.2544451   0.2279192  35.1528757  14.5492314  91.0894826
  34.9524563  14.0227030  91.8633231  35.8592337  14.0735052  90.6524750
  73.9408922  86.1523056  20.6233883  73.3674240  86.5466499  19.9662268
  73.4365320  86.1916447  21.4359832  33.8474243  10.7980870  84.3382516
  34.0383738  11.3471411  83.5777858  34.6120375  10.8996771  84.9050644
  97.3546392  80.8606284  94.3355028  96.7193014  81.3351458  94.8716092
  97.9972488  80.5292123  94.9627583 103.7356073 107.6661866  60.0250366
 103.5480577 108.5118859  59.6177986 103.2045109 107.0402473  59.5327285
  83.9310074  55.0950718  39.3080091  83.9814854  55.9830284  38.9541388
  84.7696495  54.9657249  39.7509313  59.7527504  66.3911867   0.2742249
  59.7598886  65.5611753   0.7509442  60.6766224  66.6270065   0.1900659
  16.7804592  27.8835486  89.6862307  16.3507527  27.4035643  88.9782718
  17.6956623  27.9452990  89.4126966  51.2569857  84.5806313   5.7051790
  50.7562923  84.1195202   5.0321913  51.0434675  85.5041504   5.5719161
  52.5429583  65.6172085  10.1966822  53.4773016  65.5877018  10.4025030
  52.1251583  65.1351452  10.9103286  33.2364910  30.5593203  82.5137189
  33.8189142  29.9551676  82.9741719  32.9685896  30.0820349  81.7284420
 112.1143228 105.8617156  86.4681330 111.2383873 105.4853481  86.3826075
 112.2461588 105.9495109  87.4121365  51.8257826  16.7497109  80.8721390
  51.4514750  16.3774012  80.0736955  52.1875876  17.5920676  80.5968764
  97.5985748   4.8508983  23.1263852  97.3529560   4.7197585  24.0421939
  96.7644531   4.9011760  22.6595378  91.8938160  33.0314374   1.3693169
  92.0448208  32.4844217   2.1401632  91.7375755  32.4079299   0.6600507
  30.0752180   4.9087809  83.6702421  29.5833367   5.7289599  83.6303404
  30.9021729   5.1456211  84.0900996  91.9540596  61.0652399  23.5752463
  92.2905350  60.1708126  23.5204053  92.7334785  61.6181517  23.5201454
  83.7484455  70.2036953  12.4260998  83.2275581  70.9998941  12.5308299
  84.0908909  70.0245953  13.3018196  78.1238699  50.8211040   6.9147527
  77.6399326  51.6461992   6.8793732  78.0734777  50.4754734   6.0235560
  62.3874998  92.7593613   7.4780643  61.6158295  92.6530838   6.9217688
  62.1130514  92.4298573   8.3338332 115.9551157  17.0465611  96.5215077
 116.5626992  16.4363955  96.1034497 115.8228744  17.7362583  95.8710778
 116.4849771   6.2525318  80.4351988 116.9727005   6.0940359  79.6269694
 116.7703999   7.1203659  80.7209101  85.7419205  54.3935537   1.4639439
  86.0109138  53.7259531   0.8329211  86.5414715  54.8875093   1.6455005
  28.6087435  16.1697577  78.0870798  29.1858023  16.6198157  78.7040725
  29.0025299  15.3040741  77.9786637  79.8074848  89.5993441  78.1666830
  80.5173046  90.0601595  77.7194241  79.6870167  88.7959903  77.6603809
  29.6219080  30.5224322  82.2103348  28.7847584  30.9268759  81.9826701
  29.7198647  30.6863211  83.1482985   0.2481764   8.8257931  74.5096639
   0.5900543   8.9927195  73.6313203  -0.6660372   9.1063736  74.4681623
 110.6933338  98.2481998  86.2832156 109.9436790  97.6627963  86.3907090
 110.3135425  99.1268247  86.2867561  26.0580700  22.9095600  62.2527554
  25.8883875  23.3634184  63.0782559  26.9234389  22.5172089  62.3686245
  69.0127897  29.5239568   5.6384838  69.9691439  29.4838214   5.6362110
  68.7467909  28.8617206   6.2763870  43.1494253  13.0586146  95.6325501
  43.5678690  12.9529856  96.4869359  43.0845278  14.0061186  95.5131453
  27.4827212  50.7107542  79.9014905  26.7348498  50.8363722  79.3174150
  27.7058285  51.5930651  80.1980999 100.0416309  96.4133685  64.9697736
 100.2173168  96.2166637  64.0496257  99.1116220  96.2173360  65.0832704
  18.6713457  67.2102118  16.1018932  18.9357972  66.8761206  15.2447581
  18.6436570  68.1604958  15.9904253  51.9814682  57.1482754  24.4002151
  52.5330877  56.9729805  23.6378384  51.2849474  57.7139521  24.0668988
  65.4580719 104.8049110  56.0069015  65.4202086 105.7608646  56.0377052
  64.5681888 104.5230144  56.2187460  27.0542097  60.7843924  17.3625422
  26.2691736  61.2020922  17.7167737  26.7325687  59.9857759  16.9442284
   4.0500611   2.2563027  89.3686214   3.1118029   2.1765517  89.5405158
   4.4681376   1.8591927  90.1326558  96.5225887  49.0258837  24.7112727
  96.7464161  48.6270857  25.5521584  96.0242462  49.8095942  24.9429655
 114.8783875  63.1456470  20.2235556 114.0044689  63.2499075  20.5998921
 114.9444866  63.8455725  19.5739627 101.6675121  92.9913848  90.4441449
 100.7956964  93.0905884  90.8266809 101.6734297  92.1026056  90.0888035
  57.7990341  86.3220692  14.7190702  58.6071348  86.5755177  14.2730165
  57.3845291  87.1523094  14.9538434  36.4317942  35.9555769  39.9207211
  36.8553567  36.1191607  40.7633781  37.1472478  35.9755778  39.2851448
  37.2947550  45.6130600  15.1434422  37.8714490  46.2205839  15.6066608
  36.4406180  45.7291651  15.5596137  49.2517853  58.2190180  23.9495826
  49.0428352  58.0804443  23.0258036  48.9676332  57.4141359  24.3827701
  40.9476280  71.6429710   4.8829320  40.0834417  71.8532562   5.2367538
  41.1718607  72.3954296   4.3354341  85.8194542  83.7291145  28.7260485
  86.4288330  83.1346130  28.2884979  85.9623337  83.5740280  29.6597314
  86.9988728  67.3863602   3.3414388  87.8839397  67.0776844   3.5353720
  87.1126652  67.9986715   2.6145542  63.1416798  32.3055100   8.3913887
  63.5627317  32.3494077   7.5328904  63.7016392  31.7218184   8.9032269
  40.8496493  12.4466465  93.7384257  41.5248030  12.8904389  94.2516987
  41.3148897  11.7399262  93.2908463  57.1088791  69.1902590   2.7114683
  57.8972912  68.8065863   3.0954430  56.4021635  68.6022282   2.9779318
  58.8642740  57.5755501   7.3326409  59.5917225  57.7127695   6.7258281
  59.2845774  57.3797703   8.1700432  17.7559155  19.6514176  95.3510956
  17.1773022  19.7908543  96.1007604  18.6389368  19.7267006  95.7128137
  83.8454325  97.1041673  62.1377662  83.7565166  96.3753884  62.7519396
  83.9242536  96.6863959  61.2801626  69.1536379  35.6085634  23.7970448
  69.2842340  35.5520678  24.7436094  68.3424711  36.1066914  23.6964869
 114.1728509  49.5016859  78.5218575 114.7834505  48.8080977  78.7715331
 114.4860805  49.8006819  77.6682094  37.6565838  40.9979963  24.9282908
  36.9914651  41.6096306  25.2441263  38.0913043  40.6860542  25.7219815
  46.2443113  33.9764285   0.8243253  46.5313959  34.0847230   1.7310144
  46.2999630  34.8551679   0.4488923  91.4126301  77.9634619   8.2874596
  90.6133175  78.4016037   7.9952800  91.3043308  77.0549870   8.0060714
  98.2329559  76.8149185  26.9670939  97.9923058  77.6170874  26.5035796
  99.1811657  76.7484236  26.8543458  48.2105923  45.4780102  17.1985948
  48.7403202  44.7511148  16.8711197  48.7566471  46.2524080  17.0630693
  20.4350489  46.9253252  66.7039326  19.6126097  46.5106486  66.9644454
  21.0863274  46.2267969  66.7680743  56.2053442  51.4475155  16.0689712
  57.0767975  51.8293571  15.9641099  55.9852219  51.6017723  16.9876564
  53.3470743   9.3171929  84.7796979  52.4603194   9.6227406  84.5885423
  53.8274973  10.1101158  85.0178173  99.7401792  93.6633533  79.4461158
  99.2284185  92.9512852  79.8298982 100.4226524  93.2222026  78.9402988
  45.0324059  54.9440289  32.9165483  44.4495010  54.6711111  32.2080469
  45.3665876  54.1243982  33.2809138  64.1952467  72.1894836  23.0276728
  63.2754278  72.2594643  23.2831597  64.5810986  71.6045094  23.6797118
  51.7980862  41.9505596  25.2079797  52.5323153  42.4334478  24.8285651
  51.0528469  42.5458908  25.1277661  27.0298498  16.4342259  43.7738684
  26.6092890  15.9410952  43.0694654  26.3302725  16.9775818  44.1366270
   1.3293427   5.6479357  53.7370232   1.5843409   6.4164017  54.2475822
   1.9805210   4.9836348  53.9626291  23.1682301  39.9931955  17.3906827
  23.7963128  40.1611090  16.6881514  22.5052881  39.4309258  16.9899404
  49.1903400  52.3493242   9.0263212  49.0764093  53.2314062   9.3801373
  50.1388121  52.2237873   8.9967573  10.8865755   2.5417851  68.8320091
  11.0492724   1.8044327  68.2437280  11.2437647   2.2597025  69.6740725
  77.7729565 101.7542785  84.9906698  78.1108887 100.9293073  84.6421614
  77.9431683 101.7045396  85.9312990  10.7354563  20.7449959  82.6700643
  10.2151554  21.0725306  83.4037152  10.9225720  21.5220450  82.1433642
  28.7577265   3.0584572  95.3053142  28.1332653   2.9133175  94.5945304
  29.6016091   3.1614159  94.8654388  54.7775459  52.4021435   3.7423080
  55.5426645  52.6603603   4.2562607  54.1167498  53.0635118   3.9476687
  96.1420250  16.3024294  41.9924545  95.7250595  15.4428005  41.9340897
  96.9073296  16.2366879  41.4212942  84.7517204 101.6800404   1.3437584
  85.1121616 102.3774052   1.8914759  83.8038826 101.7537403   1.4551069
  74.8515654  46.4599085  38.0889416  75.6142855  46.3219166  38.6505914
  75.1433420  47.1026659  37.4424410  73.8919640 102.9198551   3.8887021
  73.8384676 103.0573273   4.8344678  73.5774183 103.7404060   3.5092345
   4.7168177   4.5576666  58.1997731   5.1349705   3.9601324  57.5798276
   5.2822941   4.5360993  58.9717844  53.5303164  53.2253504   8.5302693
  54.4469547  53.1568384   8.2632160  53.1403017  52.3928738   8.2636255
  81.9894869 102.0320266  69.0215471  81.7597801 102.8444093  68.5704353
  82.0832426 102.2861379  69.9396279  36.0438364  31.7153071  93.1599030
  36.4494150  30.9507464  92.7510169  36.6852539  32.0095633  93.8066098
  93.2118589  89.5723360  55.6523111  93.3155376  88.6284702  55.7731274
  93.8308031  89.9622410  56.2696531  30.0653380  24.0303944  77.3020747
  29.9289387  24.9619673  77.4747065  29.3431586  23.5946797  77.7546671
  68.1456137  24.9965310   0.1541699  69.0779829  25.1238513   0.3294162
  67.7026892  25.4725623   0.8566223  99.7947485 107.4283212  89.0158203
 100.4612238 107.6955836  89.6487567  99.1014416 108.0818694  89.1076824
  50.8675909  46.2052393  22.9621339  51.1145353  46.9407892  22.4015856
  51.4267731  45.4846191  22.6718712  18.6023205   5.0237082  83.1859591
  18.8184469   4.7707508  82.2884431  17.7079504   4.7079848  83.3150127
  22.6333683   4.8370980  79.5471337  23.2883518   4.5675848  80.1910236
  22.7869671   5.7742356  79.4270852 103.7742836  82.7384632  91.8946519
 103.9797146  83.4136694  92.5412771 104.0402633  83.1194347  91.0577866
 103.9088596  16.1829899  64.8972323 103.4942568  16.1714218  64.0345600
 104.6462310  16.7856215  64.8005250  91.7766315  90.4005902  76.6259649
  92.3776609  90.9786671  77.0958868  91.0828001  90.2117770  77.2577694
  20.0504988  37.0070170  83.1177369  20.4259222  36.9687937  82.2380617
  20.7518976  37.3646258  83.6621550  53.2265186  71.5171337   2.6906899
  52.5051594  70.8934021   2.6080391  53.2702208  71.7100525   3.6272278
  54.4818640  39.8167467  20.4430199  54.8929214  39.4268465  19.6715009
  54.5608139  39.1459250  21.1212516  12.9559677  24.2980097  91.9347557
  13.3538836  25.1541804  91.7770770  12.4173563  24.4244192  92.7158770
  44.8163241  50.8905695  82.6350549  45.3034704  50.2062605  82.1761122
  43.9063566  50.5946730  82.6098946  63.7764931  52.7392483   0.0438745
  64.5002222  52.6200581   0.6588832  63.1588745  52.0414543   0.2626677
  48.4472990  55.9217882   3.9652148  47.7218103  55.3093147   4.0867475
  48.8575315  55.9813786   4.8279962 107.0913202  90.8756798  89.0592602
 108.0054886  90.6909841  88.8438091 106.9026882  91.7020577  88.6145684
  89.8209030 100.0424045  93.3298978  89.3289167  99.9032252  92.5206938
  89.3463403  99.5356982  93.9888915  19.6920048  85.7297652  72.8499630
  19.5385872  85.7764452  73.7936333  20.5774819  85.3754681  72.7685025
 102.8978348 106.3424873  23.9347839 102.5010109 105.4729271  23.8835812
 103.7165737 106.2044621  24.4110537  25.8560580  47.3994921  95.0084482
  25.5092734  47.4125193  95.9005259  26.7618674  47.1064757  95.1078509
  45.0197220  55.3622198   9.7136474  45.2942705  54.5413733   9.3049121
  44.5610476  55.8341980   9.0186012  81.3950443  45.8323097  13.6646283
  82.3362255  45.7380772  13.5178924  81.3260555  46.4703369  14.3748319
  59.1187763  62.5060558  17.4025786  58.3962154  62.7798414  17.9675341
  58.8178778  61.6871452  17.0087838  38.5594034  81.7588806  21.2674761
  37.6742220  81.4753056  21.4961028  38.4310508  82.5652027  20.7678795
  77.8509665 106.8767548  30.9343123  77.4931669 106.8991852  31.8218422
  77.9382563 107.7975750  30.6879187  56.2568808  42.6216412   7.9217416
  56.2176514  42.8235626   6.9869041  56.9659948  41.9833899   7.9993653
  24.4639176   5.8476637  69.5224550  24.2412108   6.4547060  68.8166693
  25.4153317   5.7570647  69.4691470  32.7091568   6.3867567  78.1746009
  32.4074524   5.5725334  78.5774043  31.9659680   6.9843720  78.2567993
  33.9059769 105.4099792  80.2165082  33.3044659 106.1012452  79.9398020
  33.7472378 104.6939700  79.6013930  45.5270195  80.3091240  10.2350712
  46.0458374  80.9629154  10.7036972  45.2200365  80.7641506   9.4508886
  27.5998562  20.3940485  78.2138315  27.1993798  19.9882363  78.9827075
  27.8170508  21.2820767  78.4974852  77.0796061  57.8292561   3.0206358
  76.8873024  57.7114820   3.9508939  77.7743959  58.4873772   3.0011353
  36.2055527  88.1682819  79.3476227  35.4348218  87.6520961  79.1114715
  35.9627854  89.0703624  79.1389373  99.5256359  65.5183017  66.6760495
  98.8107473  65.0125586  67.0625666  99.6188337  66.2785834  67.2500852
  48.2691973  31.9098852  93.9484340  48.6289614  31.1538790  94.4123882
  47.5134104  31.5627192  93.4746316  22.3887764 107.6231855  78.8291254
  22.4650704 108.5670608  78.6894420  23.0071484 107.2383969  78.2080045
  55.9666348  53.2120132   7.3301274  56.4435816  52.9330254   6.5485132
  56.0136175  54.1678667   7.3109341  44.0489477  12.5946765  22.3639417
  44.0380943  11.9649749  23.0847669  43.3590851  12.2936874  21.7725635
  15.0460529  65.6292439  32.5921822  14.8627794  65.6640482  31.6533351
  14.6692681  64.7974110  32.8790927 103.1704302 103.3630848  58.7375546
 104.0686281 103.6229801  58.9423132 102.6732738 104.1807175  58.7609196
 109.0010197  88.0205536  64.1214848 108.1774278  88.5074520  64.0922832
 109.0791018  87.7363873  65.0321913  52.1704716   6.0911040  68.3887196
  52.6536042   5.6479220  67.6912928  52.8283889   6.2672000  69.0612984
  13.9760673 110.9259605  25.7584810  13.6523998 110.1907158  25.2380109
  13.9095414 111.6809273  25.1738262  20.9213376 108.4770393  31.3932657
  21.1821389 107.5650311  31.2650347  21.7162776 108.9124775  31.7010021
   4.8677537  93.5534573  41.5504408   5.6096268  93.5671425  42.1551466
   4.5823815  94.4657707  41.5007591  27.6739287  93.9281178  43.2837009
  27.2281432  94.4556427  43.9464378  28.0190468  94.5677280  42.6607895
  54.9418742  20.6327872  20.4683590  55.8616072  20.8819442  20.3775549
  54.5203764  21.4055877  20.8443260 113.1292273  82.8740120  59.3050957
 113.0380036  81.9753838  58.9882565 112.2654416  83.0937672  59.6541166
 118.2187844  90.3069878  37.3379207 117.5957626  89.9482155  36.7059779
 117.6903649  90.4991531  38.1125665  16.8593371  50.9045982  53.0149746
  17.6553500  51.1316776  52.5343180  16.4909506  51.7473745  53.2800245
  74.3622510  27.4863909  94.0203851  75.1775364  27.9834746  94.0870467
  74.4052426  27.0701121  93.1595126 107.8396387  78.6478424  36.0368562
 107.7263243  78.8166618  35.1014996 106.9549759  78.4722757  36.3574481
  15.7154381  40.0501156  29.0945244  16.6148496  39.9472976  29.4055223
  15.7440090  40.8227015  28.5301423  11.1962485  64.3688059  30.2707553
  10.8727515  64.5813704  29.3953133  11.0374951  63.4293985  30.3632021
 107.9117997  84.5522022   7.3546559 107.7877374  84.9782372   6.5065193
 107.4217601  85.0971508   7.9703856  96.1185761  86.3073444  60.0059223
  95.3186341  86.3043499  59.4802666  96.1974950  85.4090977  60.3270864
   7.7270770  98.3142853  48.2187557   8.0613095  98.0994701  47.3479080
   7.9050446  99.2493725  48.3196592  30.1439857  91.6479015  50.6820107
  29.4040132  91.6363907  50.0749350  30.7756519  91.0377598  50.3012848
  15.0724947  69.7944307  33.5261536  14.8730230  69.7133064  32.5934887
  14.5385659  69.1192865  33.9448857 106.5174527 106.5097332  52.2830248
 107.1326311 106.0704231  51.6958284 105.7495017 105.9385014  52.2962761
   6.0233676  18.2191420  58.6208916   6.9697070  18.2944703  58.7433624
   5.6638372  18.9959896  59.0492344  33.2484895   3.2168727  69.3289614
  33.2550735   2.7254157  68.5075855  34.1217292   3.6051993  69.3827343
  13.3594167  37.6176214  40.3024435  13.9276958  37.0925903  39.7388530
  13.7741697  38.4800291  40.3240252   7.9523861  62.1797419   3.1156003
   7.0733833  62.4187613   2.8215709   8.5342658  62.7671242   2.6332843
 103.7235893  34.2440604  95.4719087 103.8490690  35.1620100  95.7124514
 103.3357013  33.8434599  96.2499136  84.8595162  76.1651516  17.8406489
  85.1043983  76.6554022  17.0558441  84.7245164  76.8361473  18.5098076
 109.7760548  81.6285324  53.1558561 110.3097381  81.1657524  52.5099087
 110.2348329  82.4567795  53.2964373 109.8351069 100.7867241  59.0677404
 109.0149482 100.3263569  58.8898945 109.6276630 101.3732624  59.7951889
  48.9225376   2.2625690  11.1220503  48.7551636   3.0147891  10.5542588
  48.8518781   1.5043311  10.5421293  29.1122532  97.7646828  55.8862591
  28.6934662  97.4091244  55.1024055  28.7312031  98.6370182  55.9866238
 101.9547005 106.6008759  63.1394148 101.4406939 106.4628601  63.9350176
 102.5563975 107.3108959  63.3631563 110.7600893  65.6592894  20.9541273
 109.9577029  65.3459120  21.3715005 111.4286221  65.0255346  21.2142158
  72.9459078   8.2255130  58.2980776  73.0743891   7.3277812  58.6043358
  72.0038873   8.2929092  58.1422329  26.0276651  98.2247925  24.4230700
  25.1916146  98.1918621  23.9581299  26.6505980  98.5497475  23.7730050
   7.0774603  66.7297554  23.4387469   6.2096447  66.6104794  23.0528688
   7.1473241  66.0328388  24.0911746  96.2047692  94.3494511  16.7317283
  96.5911169  95.2219200  16.6557693  96.9206186  93.7510681  16.5178812
 100.5239458  83.4901714  20.8361840 101.3863213  83.7228680  20.4920983
 100.7099922  82.9332924  21.5921569   5.5058658  76.0573769  18.9273131
   6.2769836  76.2544632  18.3955562   4.9273050  76.8088961  18.7979996
   3.3450300  47.7336931  40.6147289   2.6660576  47.6519728  39.9449897
   2.9541433  48.2943153  41.2849092  28.8969189   2.3308997  17.9391313
  29.2118150   2.4822669  17.0479751  27.9942352   2.0329433  17.8268147
  34.1888595  98.3076954  41.4569569  34.3387890  99.2183113  41.7109776
  34.0176725  98.3465958  40.5159950  97.9969664  95.1484680  34.0964723
  98.0936284  95.2660942  33.1514573  98.8860746  94.9814224  34.4092250
  12.1758008 104.4841480  22.7721786  12.8459930 104.1131973  22.1981812
  11.5034938 104.8118687  22.1748257  75.6554882  17.8448818  96.4144185
  74.7388614  17.6413582  96.2283944  76.1488904  17.1557329  95.9696035
  11.1960363  79.6132803  41.2679243  10.7874167  78.8427258  41.6622639
  11.9029284  79.2596531  40.7280350  26.0175920  81.7038822  23.7173080
  25.9290290  82.5412846  24.1724443  26.4532161  81.9237518  22.8938270
  88.7091274  81.3287640  24.5036507  88.1618233  82.0409012  24.8346257
  89.5915361  81.6985416  24.4744921   2.1748824  70.4563141  45.6713247
   2.0612858  69.6485949  46.1722374   1.6541365  71.1061192  46.1433554
   5.4853499  66.3015556  46.9784451   5.0560319  67.0765829  46.6161585
   5.6725502  65.7532692  46.2164974  29.7588498   6.1160712  63.6089754
  28.8859112   5.8354240  63.8836527  29.5970774   6.7931132  62.9519653
  58.3703841  39.3504904  86.9979545  58.5379089  39.6029948  87.9059258
  58.2390440  38.4030054  87.0331809  10.0541639  93.2896709  57.3144960
   9.8048502  92.5045872  56.8269253  10.5617046  92.9599571  58.0560684
  11.8393159  92.9572868  35.3846884  11.5313029  93.1115818  36.2777472
  12.0296717  93.8308144  35.0427055  21.8460155 109.6091366  51.8119955
  21.8391848 109.3909550  52.7439690  22.4229288 108.9552975  51.4171553
   1.9594754  88.7003231  64.1607857   2.7015293  88.8308048  64.7511768
   2.0632923  89.3775177  63.4923077   9.1885871  92.3720741  63.3105326
   9.4727910  92.2726631  64.2191458   9.4830102  91.5703201  62.8784037
  64.4573350 108.3023453   3.0428529  64.8096509 108.2758522   3.9324608
  63.5937448 108.7038136   3.1391141 104.0102167  65.2572966  34.4357085
 103.8496609  65.0088644  35.3460574 103.7902637  64.4740629  33.9313340
  29.2220551   7.8304534  42.8936386  28.8914389   8.6420207  43.2787180
  30.0123424   7.6316505  43.3957863 110.3059395  98.3510780  24.4682097
 111.1640127  98.5608959  24.0995383 110.5002113  97.9630184  25.3213811
 108.6308081  88.5610485  35.4430819 108.2425399  87.9470444  36.0663605
 109.3580200  88.0771732  35.0515938 116.0521054  90.5635738  20.4959989
 116.3420178  89.8039341  19.9908900 115.3989609  90.2133083  21.1017632
  15.0787747  99.0283966  39.2882156  14.6699500  99.6525860  39.8877835
  16.0120785  99.0727139  39.4960904  57.0039797  82.1473598  18.4116077
  57.7234554  82.4244976  18.9788616  56.8720531  82.8840542  17.8148544
  40.0358785  14.5764785  29.6673155  40.6850943  14.9651008  29.0810370
  40.2276245  13.6388545  29.6491766  34.3132920   7.4414497  28.1781411
  33.9302367   7.4453406  29.0553451  35.2296934   7.6811652  28.3158946
  71.6766782  59.0364933  35.9742045  72.5240894  58.8434315  35.5731416
  71.4140601  59.8723030  35.5886102 118.1254020  72.5395203  58.2243729
 118.6122079  72.1931744  57.4765110 117.2087201  72.5026608  57.9513025
  94.7184034  76.1154509  66.9024134  95.5015726  76.6562653  66.8004274
  94.0407820  76.5802383  66.4114618   1.5771671  97.6074028  16.8814695
   1.8124595  96.8222713  17.3758876   2.2043037  98.2699013  17.1713471
  48.9289278  35.5143504  40.6572437  49.4151140  35.1840072  41.4127111
  48.3429748  34.7965865  40.4170132 101.6605194  93.5895824  14.7424448
 102.5559516  93.8574028  14.5357931 101.6337307  93.5610867  15.6988454
  31.1660719  96.2240696  34.4606018  30.3258419  96.2389946  34.9188852
  30.9335804  96.1257458  33.5372853  17.7536213  81.5328884  25.7305861
  18.4931004  82.0065594  25.3497386  17.0296121  81.6923523  25.1250982
  68.3294040   6.3647990  35.4347253  67.7969248   7.1250301  35.2007365
  68.0906445   6.1752753  36.3420892  15.3217399 100.7626438  29.2625308
  15.7880187 100.6402779  28.4355831  14.4100833 100.9003735  29.0053463
 104.3596978  88.1603813  21.3619494 104.0638144  87.5733757  22.0577264
 105.1051493  87.7076626  20.9675097 107.4088581  93.0579185  38.9981318
 107.6598628  93.5005283  38.1873798 106.8431981  93.6853027  39.4482946
  13.2663941  87.9331589  55.9225178  13.0353427  88.8013649  55.5922604
  13.2041383  87.3614597  55.1573277   3.6469662  77.3117924  26.2308884
   3.3323464  77.3296118  25.3270483   4.4829324  77.7771950  26.2027216
  24.9951649  76.7879391  20.5439949  25.7713532  76.9890022  21.0668135
  24.5588946  77.6320791  20.4285455  49.5736188  10.7773452  38.2245946
  50.0543684   9.9972587  38.5013175  50.1246983  11.1708598  37.5480700
  53.2848186   5.5222087  22.2808981  54.2126018   5.4316669  22.0635247
  53.2651479   5.5566936  23.2372737  13.6838531 104.8368931  11.6245019
  12.8953063 104.5031357  11.1966813  14.2820144 104.0897846  11.6407180
  19.6067345  89.6953773  23.2306170  20.5570269  89.7779846  23.1508994
  19.4693708  89.3523693  24.1136289  25.1029045  16.4915900  46.5605974
  24.6767170  16.8692546  45.7912064  25.6165356  15.7612662  46.2155724
  13.1098974 110.9173965  29.9301004  12.3065555 110.7496452  29.4374204
  13.5077274 111.6690636  29.4908214  14.3615842  84.3661118  57.0198154
  14.1580033  83.8207150  56.2599897  15.3167367  84.3469620  57.0793724
   8.8962728  80.4116726  52.9466677   8.6544925  79.5794249  53.3530378
   8.3596545  80.4566288  52.1553040  31.3234067  96.6164780  71.0143089
  30.9126043  95.9131813  71.5171480  30.7890892  96.6891098  70.2234507
   4.0331125  66.7331934  33.8556814   4.9160188  67.0928621  33.7699556
   3.6464575  66.8377113  32.9863119  14.4768894  94.5533180  42.3892498
  13.8713253  94.5391178  43.1304121  15.1663411  93.9350510  42.6313972
  93.9073057 106.2703609  31.5854788  93.4934612 105.6928635  30.9440279
  93.1986876 106.5132809  32.1813679   0.5046360  86.9431210  53.4160995
   1.1365320  86.5752983  54.0338707   0.4373087  87.8654671  53.6630344
 112.4349107  78.3265829  39.9451804 112.4282594  77.9173899  39.0798783
 112.8134121  77.6624489  40.5212831  98.5328551  72.1904230  94.4244289
  99.1137464  72.0542240  95.1729202  98.8821216  71.6164780  93.7426376
 113.9461671  91.2342262  27.7417517 113.8638012  92.0555878  27.2571778
 113.7341089  91.4671040  28.6456490 103.7071617  62.9991198  13.3942473
 103.4842940  63.1715679  12.4794662 103.7238248  63.8640833  13.8038647
  14.7276151  86.5081978  33.4606671  14.1095352  87.0633507  32.9852557
  14.5928442  86.7334652  34.3811703  17.9269767  69.2174196  29.4587517
  18.0713367  68.2777166  29.3476319  17.2319078  69.4283247  28.8353491
  78.6659165  99.7269821   7.1620393  79.3495460 100.0743008   7.7349716
  77.8556915  99.8429966   7.6583314  99.6316047  89.5612240  38.4282732
  99.9940355  89.0447807  37.7084398  98.7682862  89.8332214  38.1169415
  20.1728439  80.5705929  19.5107067  20.8297920  80.1226711  20.0436449
  19.6305454  79.8657656  19.1566324 103.9712413  98.0573082   9.4511938
 104.8111601  98.2543468   9.0365320 104.1031404  98.2739258  10.3741837
  10.6305659  60.0359154  48.5864830  11.3710475  60.2236414  48.0097008
  10.5703759  60.8026981  49.1562605  26.9196010 102.4930954  67.6681328
  27.8587842 102.5444317  67.8456974  26.6938138 103.3563423  67.3216486
  31.9117093  99.6380520  23.8409758  32.6915097 100.1930046  23.8275027
  31.8123007  99.3869114  24.7592783 113.8338204  62.4872494  47.2628832
 113.5745843  63.0200100  46.5110922 114.7627528  62.6826096  47.3859644
  99.0182222  71.6208933  72.5793436  99.2750538  72.4193667  72.1181467
  98.4241653  71.1757944  71.9750145  58.6157078   9.5963721  47.4835682
  59.3248946   8.9731555  47.6413298  57.9908795   9.4319968  48.1898308
  27.5960708  61.1395693  22.8020048  27.4970579  61.4779091  23.6919212
  27.4281573  60.2006674  22.8826642  46.1052799 110.4983902  37.5062847
  46.3026428 109.9195385  38.2426405  45.5413580 109.9762726  36.9356537
  75.5097419  14.8863177  40.4119253  76.4394814  14.7147708  40.2622986
  75.4970390  15.6452136  40.9951401  34.6472359  99.5032406  58.2411289
  35.2165818  98.8570309  58.6588573  34.5633364  99.1997623  57.3371935
 103.0354173  79.2437887  10.9775627 103.0497189  80.1399231  10.6414521
 103.9356942  79.0786505  11.2576759 100.4808386  91.3308716  24.7539878
 101.1734207  91.2480927  24.0984678 100.9472473  91.4351463  25.5833364
  35.1829219  98.9694405  65.1402235  34.5660782  98.2645321  65.3373051
  35.3355980  99.3967152  65.9830475  26.2956095  71.4123201  68.0850601
  25.9023523  70.8544683  67.4139547  25.7990360  71.2172699  68.8797951
   1.2613791 108.4759903  59.1755342   0.3853028 108.0904961  59.1646051
   1.8034464 107.8261185  59.6228170   8.4374928 107.6966858  16.5405834
   8.2329452 108.3498001  15.8713806   8.1855273 108.1118965  17.3654151
   4.0552223  82.1432590  14.5203090   4.6921384  82.6840115  14.9873829
   3.2268888  82.3048115  14.9719691  63.1688267  13.3819823  23.9107251
  63.7244803  12.9750972  23.2459474  63.6315972  13.2308726  24.7348857
   3.0035397 100.5832386  30.6558657   3.0708289 100.4144001  31.5956497
   3.8250685 101.0203171  30.4316187 117.3835530 100.9012604   4.7042054
 118.0065550 101.5939713   4.9238887 116.5694611 101.1668205   5.1319516
  61.6203648   5.3166251   7.1653116  61.7042619   5.4702430   8.1063712
  61.7221147   4.3699222   7.0671648 102.9625912  96.1346912  17.8782761
 102.4738832  95.3120518  17.8523207 103.3531649  96.1537838  18.7519574
  48.4230042 100.2609921  43.5016394  48.7307453  99.4554234  43.9170599
  48.3148479 100.0286770  42.5793791 109.6210796   7.7899509  29.5313811
 110.1228554   7.0663505  29.1560841 108.8673813   7.8860812  28.9492035
  61.4915258  19.0959697  55.9418011  61.3831336  18.1451564  55.9629440
  61.7256982  19.2902045  55.0342417  27.2010779 105.1816082  41.2401199
  27.9251719 105.8014774  41.1524391  27.0259905 104.8897362  40.3454781
  33.1853998   6.7374854  25.7190275  33.1595582   7.6456123  25.4175782
  33.8509793   6.7323165  26.4069295  65.9432561  22.1835761   7.0076692
  66.1112291  22.2196536   7.9493248  66.7480165  21.8240123   6.6344267
  13.5698521  77.0677471  53.0391359  12.6714265  77.0386553  53.3680964
  14.0289891  77.6469421  53.6473751  16.5581393 103.3906841  33.3669519
  16.9471252 104.2640209  33.3199883  16.1312294 103.2726860  32.5183916
  66.6936077  14.3921040  78.9075687  67.5332166  13.9332865  78.9354446
  66.8075956  15.1362894  79.4986942  12.3801363  73.1730938  20.4337978
  13.0203450  72.5176954  20.1566458  12.9013789  73.9549446  20.6161547
   3.5811305  87.1093559  33.9052916   3.7129506  87.1022511  34.8533440
   4.2668504  87.6883602  33.5724616  20.2272934  32.6124816  45.7178545
  20.4674620  31.8151622  45.2458143  20.0094420  33.2415824  45.0300980
  19.0115345  96.2285900  32.2496176  19.7735202  96.1578274  31.6746378
  18.3568513  96.6884708  31.7241383  62.6517153 109.7663689  23.4170747
  63.2430792 110.2334881  24.0072632  62.0827055 109.2616653  23.9982224
 109.7093506  87.2041893  33.0618596 109.3561943  86.7903233  32.2743130
 110.4410393  86.6434193  33.3195496   0.8783864  89.8209381  53.1609774
   0.1763806  90.3342628  52.7610826   0.9926248  90.2070522  54.0293694
  13.7059140 102.2409821  60.2738857  14.6457338 102.0746803  60.3467894
  13.3097422 101.3699532  60.2494621  84.2878134   9.5563941  53.0331087
  84.4814617   8.6212401  53.0979824  85.0008184   9.9124198  52.5029182
  17.4429071 106.9250202  46.5229034  18.1290078 107.5289440  46.8071032
  17.6506686 106.7404175  45.6069374  83.6354832  36.6529749  92.7555549
  83.1215517  36.2344645  93.4461778  83.0911414  36.5761374  91.9719598
  31.0852308   8.2571464  46.4495754  30.6658686   9.0993934  46.6255951
  31.1749393   8.2286887  45.4970121 115.3751753  94.3542480  13.2124102
 116.1151142  94.7786045  13.6467421 115.7734246  93.8332081  12.5151682
  39.5838881  70.4798460  14.7455096  39.1929460  70.7747364  13.9230537
  40.0864267  69.7011232  14.5061767  82.8726963  68.2625960  92.0277172
  83.1911222  68.1950186  91.1275670  81.9379599  68.4481142  91.9378212
  26.9909024 107.7484417  29.4103193  27.2954750 106.9795132  28.9284253
  27.6124859 108.4383297  29.1781187 104.7015138  61.9536877  25.2191567
 105.2241559  61.8234873  24.4278765 105.2130683  61.5405416  25.9147525
  85.9831567 104.8531818  16.7430615  86.3957448 104.1274166  17.2113156
  86.7158838 105.3831863  16.4293051  58.1336069 105.3426456  25.8951664
  57.6339102 106.1566734  25.9575820  57.6470137 104.8105812  25.2655911
  23.0513841   5.4858451  63.2995605  22.2412688   5.1950698  63.7183571
  23.1082494   4.9635081  62.4994612  90.6856264  54.4317530  93.8750842
  91.0893155  53.6180018  93.5732952  91.4231158  54.9799631  94.1430451
  42.8868151 102.3414803  22.8163600  42.5325918 101.5684319  22.3768687
  42.2166252 103.0140686  22.6951051   6.1406189 107.1592236  39.1804981
   6.2376225 107.1828175  40.1324797   5.2494085 106.8401909  39.0383911
 103.4005375  88.1629467  28.3323193 103.2143815  88.6496162  29.1352654
 102.5947054  88.2289410  27.8199625  94.5024247  72.7849102  19.1226780
  94.3091626  71.8492460  19.0642273  94.8376365  72.9051924  20.0111580
  94.1310371  51.7612932  95.2752605  94.2005051  52.6368902  95.6557005
  94.2762161  51.8949030  94.3386161 111.7550339  96.5253448  29.8686981
 112.7051635  96.4093018  29.8644161 111.6229470  97.4299526  29.5850062
  41.3611794 104.7903156  16.7418051  40.5018997 105.0789452  16.4342964
  41.4233637 103.8783836  16.4576399  22.9916215 105.9612370  74.3482447
  22.8353620 106.9012260  74.4389153  22.3894644 105.5569839  74.9729204
  90.4961486  46.1248207  52.9922247  90.2955623  45.8876896  52.0868158
  91.4525027  46.1304712  53.0320835 106.9897886  96.1024380  47.6132727
 107.5032087  96.4218235  46.8712330 107.2697575  95.1939297  47.7249002
 115.3915556  94.9161530  46.5730762 115.8537102  94.1246700  46.8491364
 115.5332886  95.5376339  47.2871494  23.9975452  97.7992821  58.1340313
  24.9271846  97.7195263  58.3476734  23.5604382  97.8550816  58.9837694
 106.3231576  58.2407950  87.9482338 106.7858971  58.3095263  88.7833258
 106.4247955  59.1035746  87.5463644  55.1023049   1.3174014  11.7800415
  54.4994122   0.8092361  11.2373471  54.6501786   1.4093070  12.6187122
 114.6693079  82.1191978  33.4064555 114.5811586  81.9106770  32.4764109
 115.4402156  81.6277695  33.6900711  51.1905641   1.3117557  57.0347977
  50.3757018   1.4615779  57.5141573  51.2307698   2.0279746  56.4010382
  24.3382454  98.8458157  42.2085428  25.1195526  99.3145847  42.5018787
  23.9783287  99.3932915  41.5107155  49.0865851   4.5225959   9.7601002
  49.6098119   5.3236537   9.7322726  48.3201516   4.7182803   9.2211038
  74.1763837  89.5725821  73.5448769  73.8357166  88.7051676  73.3263162
  73.6687047  89.8435400  74.3097809  45.6534052  80.2276516  65.5705261
  44.8536444  79.7612953  65.8136749  45.3636312  81.1217976  65.3894806
  54.4352544  81.4004229  85.0765410  53.9147938  82.0772742  84.6438482
  55.3304327  81.7389200  85.0591376   6.4250642  74.7088194  54.0924549
   6.9173878  74.0931892  53.5494614   5.9741890  74.1569805  54.7315311
  43.7911510  98.9649773  35.7162929  43.3305073  98.4174347  35.0804949
  44.6789169  98.6079216  35.7411671  47.6964939  38.0272918  54.9522829
  47.1592951  37.3053985  55.2786493  47.9610670  37.7512698  54.0747643
  43.6779812   4.3341022  29.8265433  44.1405875   4.2205768  28.9962792
  43.0616606   5.0476890  29.6616983  17.4456012  88.0603504  72.5637245
  18.3580506  88.2706738  72.3651505  17.2493625  87.3021221  72.0134354
  61.7956955   0.8159785  23.4953666  61.8052084   1.6208034  24.0134358
  62.3352391   0.2031665  23.9949512  29.0088320 101.6204357  44.3634653
  28.2428336 102.1424580  44.1247940  29.0978742 101.7439747  45.3084707
  74.6959359   8.8502269  30.1895118  74.9850280   9.7124534  29.8908281
  74.8583872   8.2717471  29.4443893   2.0868102  94.2768860  37.0895028
   1.8125209  94.5419216  37.9674268   1.2911573  94.3390465  36.5610099
  55.2172322   1.0352855  33.7316966  54.8828155   0.1820140  33.4554029
  56.1383301   0.8762031  33.9378667  25.3472590  92.3239613   0.9022328
  24.7566080  92.8747368   0.3884143  24.8577213  92.1279907   1.7010954
 114.7617043  59.3639565   1.5851878 115.5671073  59.1089964   1.1351278
 114.0723841  59.2360115   0.9334977  56.3744790  12.1907096  65.2230024
  56.6245240  13.0382400  65.5909729  55.4237837  12.1548896  65.3284883
  29.1104054  95.3260136  30.0095201  28.9557934  94.6811295  30.6997776
  28.3929014  95.1909733  29.3905020 112.2173609  92.2564125   3.3884382
 111.6086633  91.6845036   2.9208556 112.0705946  93.1231499   3.0096784
  22.5232005  90.3144550   1.3618083  23.0040216  89.5259953   1.6135648
  21.7650557  89.9881172   0.8770891  70.0528342   7.8475242  48.1279707
  69.9181468   8.1024032  47.2152138  70.4409606   8.6206203  48.5377502
   1.1310638 104.5001316  36.3551307   1.3029389 104.7008133  35.4351211
   1.8752396 103.9625263  36.6260791  23.5844207  95.6528759  24.0594649
  24.1820312  95.5285835  24.7967887  23.4579468  96.6004276  24.0107679
  41.2748146  99.1726685  42.0574903  40.5694914  98.6717129  42.4671173
  42.0725775  98.6980247  42.2909927   3.6918882  86.4951420  53.6400461
   4.2105344  86.8192577  52.9037142   3.7920788  87.1647167  54.3167019
  16.8949330  84.7144127  15.2405250  16.0619652  84.8270702  15.6984615
  17.4431694  85.4306698  15.5609119 115.0395144  87.5566387  17.1000242
 114.4219889  86.8418312  17.2547448 114.8778762  87.8209782  16.1943579
  50.2582598  97.6771450  34.4330859  50.4091787  98.2703590  35.1689839
  49.5304441  98.0717754  33.9526892  59.7378451  19.7996287  22.8252459
  60.4140264  20.3110175  23.2696414  60.2244598  19.1650825  22.2991395
  87.2681709  87.6670170  30.4977894  87.3739977  88.5114765  30.9358883
  87.9591937  87.6524734  29.8355889  80.9782535   7.3079829   7.2272593
  81.7782623   6.7847114   7.1782106  80.9293825   7.5856547   8.1419951
  29.4010448  76.2077379   5.1554215  28.8474274  75.5514574   4.7322962
  28.8166308  76.9496489   5.3111744  37.2060156   8.8851600  27.9027486
  37.0143986   9.6880107  27.4180460  37.7028837   9.1791301  28.6662483
  33.6380798   7.3946147  37.2370291  34.5272243   7.6928668  37.4286008
  33.5639292   6.5552859  37.6911807  80.6370392  44.0810870  92.0700073
  79.8200853  43.5899924  91.9825643  80.4743628  44.9014471  91.6044140
   6.3970608  96.2445450   1.9817960   5.8524996  95.6335068   2.4780926
   6.5675890  96.9627285   2.5911951   7.6898152  96.3376236  62.2282791
   7.8447753  96.7136765  63.0947733   7.2423393  95.5097008  62.4030352
  61.8995667 105.1063251  25.8086777  61.9275904 106.0433960  25.6154060
  61.3500929 104.7356606  25.1180863  31.0072250   6.3933902  27.7236891
  31.6907520   6.1471515  27.1004820  31.3721538   6.1702209  28.5799909
  25.5006790  84.4439030  37.0742393  24.5447540  84.4355202  37.1228862
  25.7872391  84.4120407  37.9869819  48.9413143   0.0057845  49.9553967
  49.4403643   0.5429511  49.3400621  48.8679886   0.5473380  50.7412577
  97.0913870  43.5901122  38.2801008  97.3925478  44.2951923  37.7070355
  96.7530185  42.9235606  37.6822400 116.3680734  53.6066628   9.7272736
 116.3524285  52.8155661  10.2659285 115.5881144  54.0933561   9.9937844
  19.9259269  47.6103497  16.4904213  19.6039677  47.7165365  17.3855734
  20.2251124  46.7020226  16.4496684   2.3449446  50.3093719   7.0421982
   2.5788429  49.3822765   6.9973594   3.1641421  50.7526731   7.2627300
 113.7883057  85.2765465  16.1626291 114.3196936  84.5813084  16.5505815
 113.6334218  84.9863243  15.2637327 111.3929786  75.2194977  30.5097485
 111.4184602  74.9377680  31.4241934 110.6502975  75.8217239  30.4652715
  84.7778316  84.7762108  26.2364030  84.9996896  84.4339657  27.1023560
  83.8393755  84.6104908  26.1465859  13.9124537  77.0045233  29.2806458
  14.1028070  77.8593445  29.6670151  13.5923219  77.2051334  28.4011555
 110.2422036  61.2833595  23.8945627 109.9566550  60.7171869  23.1775284
 111.1529292  61.4921951  23.6867189  34.3948340  52.8045416  29.8231816
  34.0088844  52.2120953  29.1779852  34.7094393  52.2281361  30.5196071
   0.4601029  59.4095325  19.1721666   0.8854777  59.1780949  19.9978328
  -0.4123052  59.0206957  19.2349637  18.1035197  75.7890940  10.6168818
  17.3063576  75.6897306  10.0964093  17.8945804  75.3782749  11.4558113
  38.4227321  87.6682084  85.3060773  39.3294548  87.6608008  85.6127229
  38.4156918  87.0628660  84.5646301  26.5172822  95.8716529  86.0134283
  25.8482951  95.4508680  85.4733994  26.7740542  96.6476148  85.5152514
 111.7019690  79.7787046  30.0031281 110.8142801  79.9347544  30.3254437
 112.2179694  80.4997063  30.3638697  10.2944255  74.0446186  24.1387200
  10.7619596  74.4059515  24.8917675   9.9896508  74.8123789  23.6551023
   9.2601186  78.5909653   1.4573945   9.0048337  79.3727922   1.9470955
   8.6165625  77.9291105   1.7104129  98.4199090  54.3061256  22.3009038
  98.2355924  55.1262712  21.8430638  97.9723115  53.6369514  21.7831230
 103.9374669  72.0391417  47.3072624 104.3240268  72.0335436  46.4316082
 103.1562467  72.5854349  47.2207117  10.6521511  77.3535728   4.8065358
  11.0088730  78.2411528   4.8409480  10.2076757  77.2413349   5.6468189
 105.2249749  75.1648903   1.8069886 105.4283269  75.8941746   2.3926714
 104.2686994  75.1481581   1.7684044  53.6890716  91.3960403  83.4285703
  54.5935292  91.1587542  83.2239154  53.7551803  91.9333618  84.2179671
 107.9280920  52.5010061  26.8092346 108.3253468  52.6771879  27.6621008
 107.2000904  53.1198215  26.7516828  10.2169573  60.0739288   2.2762923
   9.5843875  60.6028795   2.7623942  11.0408449  60.5550957   2.3532096
  21.1389923  78.6454868  11.7046082  20.3563046  78.2944536  12.1293557
  21.0478568  79.5952034  11.7818117  73.2760759  76.7445564  46.3638353
  73.3415933  77.6968336  46.4352560  74.1825576  76.4473438  46.2851715
   0.9482741  82.0783710   5.3594619   0.3522367  81.3454628   5.2051175
   1.0204819  82.5115681   4.5089582  69.3335588  14.6755455  96.2645441
  70.0420530  14.0710686  96.0434647  69.7499658  15.5372904  96.2798208
  23.5678053  62.0591736  28.6489582  23.4858108  62.8454638  29.1886353
  24.3278503  61.6008329  29.0074086  42.7340364  39.0568209  47.6779175
  43.4699821  38.9645529  48.2829809  41.9778442  39.2153597  48.2429600
  86.7204113  37.9357338  34.6349168  87.2737904  38.2361102  33.9139605
  85.8345790  38.1944704  34.3807769   3.5590887  56.2610245  19.8839271
   4.3038201  56.8078518  19.6337497   3.5746101  55.5352116  19.2600787
 118.3418969  75.8936167  53.4123993 118.4957318  75.5454922  54.2906809
 117.7308261  76.6182375  53.5456181  45.7668723  28.3293055  93.1147405
  45.1647008  27.5888441  93.1877369  46.5936388  28.0014609  93.4685838
  23.6161327  69.8046064  28.1923962  22.6655102  69.6976805  28.1589746
  23.7730026  70.3034782  28.9941120   4.8313686  78.5142803   9.5215368
   5.0718081  78.7505674   8.6256635   5.4350853  77.8085709   9.7533423
 118.3088596  39.6334815  42.2149849 118.3191124  40.5891514  42.2680807
 117.6461674  39.4374943  41.5526676   8.4515017  85.2556229  15.5974567
   9.1027778  85.7425117  16.1024415   7.7404338  85.8809662  15.4575896
  12.3371899  70.2098227  26.4703751  12.6963913  70.9923124  26.8886042
  11.5063310  70.4996014  26.0936332  19.1250038  43.7794781  42.1306658
  20.0262260  43.4828186  42.0040989  19.1893184  44.4631529  42.7975130
  77.6879401  94.5482063  25.8506322  78.6155482  94.3257332  25.7713413
  77.3413892  94.4498158  24.9638104  22.4591017  99.8148918  37.4297190
  22.0283794 100.0965881  36.6226530  22.1563554  98.9164829  37.5617766
   2.1122164  53.7370062   5.6034511   2.1908370  54.4779491   5.0025761
   2.2284566  52.9655266   5.0488877  52.7245647 107.9598134  50.8225229
  53.4891648 108.4631246  50.5427053  52.7759403 107.9576581  51.7783430
  24.7230244  83.3192921  32.9450798  23.9149976  83.7546444  32.6734233
  25.4189825  83.8156891  32.5144196 109.9372752  83.8398266  11.1050284
 110.2997614  82.9566288  11.1743665 109.3408866  83.9131260  11.8501329
  95.2759410  16.5160416  89.5894834  95.1124800  17.3352717  90.0567946
  96.2299503  16.4522503  89.5444229 111.5911110  88.5668659  66.6735792
 112.4934657  88.6760235  66.3734627 111.2169088  89.4469357  66.6324711
 108.5342152  93.8247871  36.4815140 108.2293518  94.5500946  35.9363365
 108.4502907  93.0527782  35.9218812   1.9901003  79.6097803  17.1941125
   2.4031723  80.4609966  17.0490909   1.5608433  79.4071436  16.3629043
 106.0378189  86.7809868  30.2648616 105.1970644  86.3235950  30.2771926
 106.0220940  87.3322201  31.0472536   1.5210825  65.5168343  58.8194942
   0.5751058  65.3728676  58.8446903   1.8171248  65.0294828  58.0506754
  23.2116556  69.0470076  38.7829638  23.5015035  68.7898970  37.9076838
  23.0118918  69.9798536  38.7047172 104.5834721   7.5342224  95.8882923
 103.8762415   7.0954607  96.3610984 104.1365541   8.0789421  95.2403897
   7.6081866  81.9083595   7.9737383   6.6985345  81.7411804   8.2203496
   8.1114948  81.7035198   8.7617457  98.7309654  73.9041948  20.5642819
  99.0340276  74.8101139  20.5034542  99.2541428  73.5234642  21.2696648
 110.9013618  15.7229899  90.3758475 110.2904213  16.4595745  90.3964749
 110.5114354  15.1056622  89.7569021  12.8846371  77.2334766   8.3988523
  13.2195807  76.5052700   8.9220726  12.1416187  76.8638325   7.9218632
  19.1701114  63.6237431  37.5290895  19.1756117  62.7427244  37.1549153
  19.2558992  64.2053270  36.7736864  34.0728927  35.0124049  28.9359498
  34.3997407  34.6772218  29.7708464  33.1924653  34.6448779  28.8584733
   6.4238977  44.5052862   8.1745279   6.0007542  43.6470890   8.1485146
   7.3307526  44.3329716   7.9212409  20.8647966  87.9734993  12.2992492
  20.0994587  88.4331226  11.9539475  21.3132930  87.6382637  11.5229094
  34.5577216  92.3587513  18.0794907  33.8280654  92.8227520  18.4900272
  35.0787139  93.0481815  17.6678061 115.0896789  79.2770386  38.8052249
 114.9570568  78.4518003  39.2717242 115.2575724  79.9182463  39.4958043
   5.6557536  58.4431934  32.5391746   4.8191422  58.5828972  32.0955563
   5.7532454  57.4915552  32.5724339 105.6784137  94.4366074  18.8624918
 105.1442332  94.9902534  19.4320202 106.5196462  94.8900509  18.8081717
  17.7713692  69.9050331  42.8716230  18.4641528  70.4196787  43.2856560
  16.9932544  70.0816250  43.4003830 109.4044222  80.6084442  39.1771579
 109.8485137  80.1064968  38.4937334 108.5235973  80.2355957  39.2140913
   1.7130497  70.0442410  11.6499829   1.9138475  69.2337704  12.1180034
   2.2702825  70.7037830  12.0631814  88.6645980  90.9832573  16.2102354
  88.3388324  90.3428173  16.8426514  89.1508074  90.4625893  15.5709064
 114.2452748  69.1616058  26.3151336 114.0335657  68.8810253  27.2054601
 113.5324635  68.8145638  25.7787633  15.4892969  53.0017757  69.6270657
  14.7029364  53.0713367  70.1683855  15.4851484  53.7976313  69.0952492
  32.4605322  98.5070229   3.5490415  32.7801323  97.6172829   3.6988449
  31.7091060  98.3966923   2.9664457  14.7626162  78.1774950  43.1948662
  14.3105388  78.8374233  43.7205553  14.1388023  77.9526424  42.5045538
   6.4256591  60.1294518  44.9393463   6.2809664  59.6322584  44.1343021
   5.8042800  59.7577190  45.5653906 115.2139093 101.0319805  53.9822197
 115.8166902 101.4513683  53.3682156 115.1863815 101.6246223  54.7333813
 116.2717841  67.4702072   8.4438449 115.9551670  66.5837193   8.2702667
 115.5483617  67.8973818   8.9025497 115.4260607  62.2858191  53.8390160
 114.7512273  61.7822742  53.3837414 115.3736795  63.1602192  53.4531164
  34.7365308  59.8189163  25.0635171  33.9839244  59.3400764  24.7163439
  34.3992996  60.6961727  25.2449822   6.3630801  62.8501749  30.7185411
   6.6301376  62.0192432  31.1115623   6.0647780  63.3799124  31.4578819
 109.1828574  62.4784470  47.7756357 109.1298880  63.3051920  48.2551336
 108.4549154  61.9576931  48.1149721  15.7606578  63.0787277  20.6295657
  15.3269458  63.8947010  20.3799462  15.3267133  62.4064159  20.1042795
   6.3082814  56.8699932  59.6523285   6.4639193  56.4857626  60.5150986
   5.3564310  56.9535780  59.5955324  10.8562982  25.0727415  17.6532197
  10.6321025  24.3030286  18.1761992  10.3758752  24.9538422  16.8338978
  53.9146376  66.0766649  20.8536696  53.1853962  66.5175962  21.2895799
  54.5415497  65.9000826  21.5551186  35.6926835 110.7135432  83.9525607
  35.0826213 111.2317126  83.4276286  35.6377650 111.0943502  84.8290315
  19.5998263  60.3668785   9.0520543  20.4730320  60.2521467   9.4269937
  19.7494137  60.8523321   8.2407659 115.7458587  33.9203429  32.6931643
 115.7493323  33.3702970  31.9097924 114.8366938  34.2066646  32.7807522
  17.0600796  66.3093615  42.8656816  17.3153472  65.9764719  42.0053005
  17.4861240  65.7188845  43.4870100 103.0242241  10.2053688  88.3245495
 103.8674534  10.2788208  87.8775576 102.9329694  11.0305975  88.8008961
  98.9678366  58.2523775  41.0152197  99.7777469  58.4171295  40.5323792
  98.9102061  58.9752483  41.6400194  14.3985707 101.1389964  93.2366764
  14.0139944 100.2649778  93.3031851  13.7070305 101.6761726  92.8500929
  22.0743251  49.3625116   3.3437261  21.4956021  50.0060749   2.9348996
  22.6819682  49.1108894   2.6482484 116.5730491  95.0544739  53.6643505
 116.0630916  94.2676353  53.4718466 116.8243687  94.9582291  54.5829391
  67.6641680  23.1487320  78.5745087  67.8813292  22.8258942  79.4490662
  66.7472125  22.9040716  78.4497407   2.4874584  55.9031534  15.0325966
   1.6238883  56.1163282  14.6789932   2.8758293  55.3196716  14.3807137
 109.4945462  49.9258423  12.4434721 109.0094669  50.7051182  12.7148640
 109.6383555  50.0479746  11.5050519 110.9596432  30.2592848  87.2102889
 111.0666431  30.6530093  88.0761775 110.1169218  30.5899428  86.8992999
 111.3013472  90.5939388  27.0807981 111.3743170  89.9450970  26.3808608
 112.2033234  90.8658409  27.2503185   7.6743621  66.1753511  19.4507134
   8.2690072  65.7196903  18.8548923   8.2154775  66.8515015  19.8584509
  50.4389477  52.2118807  28.3894348  49.7893333  52.3654652  29.0754700
  49.9376297  52.2390509  27.5744653  17.4508083  77.8456879  47.1232748
  17.7313662  78.3204317  47.9056692  16.5079618  78.0029631  47.0729113
   6.0748613  40.2925110  21.2085891   6.4340281  41.1606359  21.0253239
   6.7040569  39.6857548  20.8184719 108.4067602  71.9373989   7.9716593
 109.0089871  71.1977577   8.0522072 108.7642737  72.6025152   8.5599059
   3.0319652 109.5167542  16.0766447   2.9786372 108.9045334  16.8105233
   3.7525731 109.1858006  15.5405235   6.5404850  93.4462929  11.1078775
   6.3637751  94.3554115  10.8659792   6.6119492  92.9855728  10.2719021
   8.9400363  68.3876038  20.3957748   8.4369469  69.1019201  20.7867837
   9.7835404  68.7820625  20.1741147 112.1200587 107.1325684  14.1573489
 112.4268295 107.7476025  14.8235726 112.7235611 107.2529697  13.4241903
  13.6346972  85.2429676   1.9221416  13.8593960  84.4577980   1.4228870
  13.9571095  85.0653839   2.8057396  17.9092848  84.3851852  41.7026138
  18.2615709  84.0802193  42.5387478  18.0405378  85.3332043  41.7189074
  30.6031322  96.4162064  43.3735228  30.3084445  96.6006565  42.4816895
  29.8120928  96.1362267  43.8340664   0.1098819 110.3713036  26.2800670
   0.9160664 110.5654240  25.8019280   0.0983743 109.4169331  26.3526869
  55.9975243  87.7873230  77.4974108  56.2799215  88.2779789  78.2692575
  55.5285120  88.4290314  76.9640541  26.3880205  63.6657286  31.5276623
  26.6737461  62.9674530  32.1167302  26.4110875  63.2689142  30.6568956
  26.5568161  96.0689068   4.5086083  26.8506765  95.9639454   3.6037001
  25.7840180  95.5081272   4.5760483  16.2902772  74.6204376  28.7031436
  16.6053641  73.9964390  28.0492520  16.2606359  75.4578161  28.2403755
 112.5050284  58.7605858  48.0965376 112.5299592  59.6594954  48.4245157
 112.0412500  58.8230658  47.2615290  25.1581502  63.4450817  11.7911971
  24.2794657  63.3344889  12.1543920  25.0186896  63.9018154  10.9616339
 112.8667404  93.2460403  29.4249225 113.7751134  93.5119915  29.2822170
 112.3755617  94.0675449  29.4358444 118.4316193  80.1689053  25.5664420
 117.8538326  79.5393562  25.1350999 118.2928439  80.9871769  25.0895596
  15.9143198  95.7387543  33.6377788  15.3383577  95.9065914  34.3836546
  16.7862558  95.6524181  34.0231395   3.8710445  76.4333820  35.0729799
   3.5580790  76.8245506  35.8886218   3.0748382  76.1592007  34.6178818
   0.2706566  52.5174189   1.1073788   0.3393071  51.8913841   1.8282136
   1.1664271  52.6074839   0.7822403   1.5657633   0.0074528  92.2052300
   1.8701905   0.6456278  91.5600246   2.2949045  -0.0787212  92.8193572
  14.1977978  77.3563957  15.9623456  13.8318002  76.5723801  16.3717294
  13.5462189  78.0382967  16.1257207  11.8542790  92.9669285  45.7165146
  11.7481256  92.2911263  45.0469971  11.6592121  92.5205231  46.5404701
  22.6601362  85.4054642   6.1527890  23.4874392  85.6949139   6.5375251
  22.4603605  86.0660458   5.4895020   5.5926973  77.7599192  50.7660961
   6.1322874  76.9699287  50.7347059   4.8626417  77.5749493  50.1752996
  60.9048278   4.2548614  38.6731124  61.8565828   4.2639976  38.5715652
  60.7386047   4.8246055  39.4241071 112.8702648  99.4065285  23.8434553
 113.6368044  99.6208286  23.3117390 113.0726273  98.5507107  24.2214274
  21.0665822  87.3765469  15.5287170  21.0613751  87.7533340  14.6488082
  20.1440835  87.3480225  15.7825136 107.5074477  80.3210926  49.6421671
 107.9612107  80.9542751  49.0859222 107.5655182  80.6912041  50.5230045
   5.3361559  62.1695948  52.9807377   5.7141441  61.3336563  53.2537937
   5.8385032  62.8278494  53.4609222  14.5783198  85.2205753  10.1004016
  15.3666115  84.6799850  10.1513207  14.1940844  85.1667881  10.9754467
   4.0034273  74.9155426  57.0526218   3.6178464  74.4397593  57.7882767
   3.2528907  75.1953650  56.5285730 111.4666636  82.9910374  26.5079665
 112.0151664  82.2328663  26.3066077 110.6631739  82.8447247  26.0087395
   8.6899906  94.3561459  12.9925656   7.9428679  94.0592575  12.4730504
   9.0531921  93.5547543  13.3695114  27.9657817  72.3115921  20.8960962
  28.4874606  72.7711630  21.5540314  28.5278082  72.2832775  20.1217866
   4.1988170  90.5866718  21.3016462   4.1744900  90.6649780  20.3479648
   3.5282791  91.1965942  21.6092229 115.0452386  97.9423904  35.3364229
 115.5361633  98.6717510  35.7149100 114.1396068  98.2512188  35.3102279
  30.6970668 105.8857441  54.7450733  31.0370827 106.7730522  54.8604107
  31.3029218 105.3312874  55.2367592  22.4365878  80.7479954  26.5082741
  23.0212641  80.4697704  27.2132397  21.5825748  80.8448792  26.9295931
  29.3202353  56.7273617  26.2728190  28.9434409  56.9437695  27.1257138
  29.0506601  55.8226585  26.1144710  46.1745644  98.0116081  28.3427215
  46.9194412  97.5910854  27.9131317  46.0057020  98.7939835  27.8177428
  57.6740349  30.8207510  79.3826571  56.7769063  30.6318091  79.1075316
  58.2181490  30.4938696  78.6661926   2.2877164 110.5761147   2.4236639
   2.4700338 110.2259445   3.2956594   3.0538017 111.1108398   2.2153041
  10.3569603  87.3705482  13.3656335   9.9688435  88.1494617  13.7642395
   9.9343443  87.3038197  12.5093770  30.8962965  68.3105898  19.5779431
  30.7487965  68.9677715  20.2580833  30.0478005  67.8802347  19.4726777
  15.3746390  58.6606455   5.8394134  15.8559883  57.9361629   5.4398388
  15.5521429  59.4091749   5.2698249   7.5810391  96.8076897  24.6391273
   7.4282211  97.7114868  24.9148822   8.5340929  96.7258167  24.6042442
  96.8609162  88.4995842  16.2345469  97.5251789  88.5862732  15.5508268
  97.2814746  88.8445282  17.0221865 118.1045539 108.3528328   4.7309083
 117.8570801 108.1608391   3.8264036 118.0144686 107.5159264   5.1866609
   7.3057622  83.5187817  20.4204726   7.0261526  82.9909706  21.1684442
   6.5297550  84.0257168  20.1815963  11.7981958  79.4661236  32.3480248
  10.9334183  79.6356106  31.9743061  12.3950577  79.5118713  31.6011000
  85.2805395  34.7634886  91.4416435  85.0503624  35.3691481  90.7370660
  84.5193006  34.7706793  92.0218983  84.8065634  30.8314894  90.0949082
  84.7967900  29.8748968  90.0621989  85.2198030  31.0382651  90.9331843
 109.8358639  73.5895300  10.2916336 110.5519576  73.1192303  10.7185531
 110.2230044  74.4227552  10.0231373 101.6362722  40.2755976  74.6529102
 101.7119475  40.4696369  73.7186432 100.7140477  40.4319811  74.8560810
 113.9352186  67.1052980  63.2431746 114.3947606  67.5841904  63.9328957
 113.1754811  66.7230320  63.6823893 111.0867198  36.1123013   8.4841430
 110.9462167  36.5578532   7.6486951 111.6363819  36.7135310   8.9867616
  25.3550744  84.9130821  14.0063095  24.7782636  85.1174450  14.7423506
  24.8077178  85.0383472  13.2311058   9.1163164  67.1308899  42.4843359
   8.6935425  66.8451738  41.6744852  10.0535488  67.0618725  42.3025036
 108.8996716 102.2440910  32.7436042 109.1832383 102.9508972  32.1637440
 109.7124787 101.8882179  33.1026769  93.4340800  35.8691595  83.0409029
  93.9922226  36.1307619  83.7732103  93.8642610  35.0957201  82.6762619
  94.8646207  63.4634781   8.7093955  95.2935357  64.1122580   9.2673814
  94.6697517  63.9353228   7.8996921  76.4608113  16.1672257  94.3599434
  76.3402228  15.3767632  94.8861225  76.9824266  15.8790539  93.6108720
   8.7275994  78.8053226  16.2627578   8.0065322  78.6664248  15.6487525
   9.5172185  78.6577368  15.7422256  99.9505730  98.7452316  32.4590302
  99.4752188  98.7983036  33.2881594 100.1071234  99.6571732  32.2139072
  25.0311465   5.6235652  14.7443426  24.3761927   5.7643657  15.4280400
  24.5743686   5.8300929  13.9289105  99.7024675 108.5798740   7.4081850
  99.6754403 107.7155209   6.9978243  99.7758277 108.3980179   8.3450830
   8.5722911  54.2160654  52.8087759   8.8747799  54.1583014  51.9024658
   7.6224262  54.1126919  52.7512980   2.8907451  46.5549707  33.1659794
   3.1123981  46.7318106  32.2517419   3.4465533  47.1518993  33.6669636
  27.2803712  67.1085644  30.5610275  28.1353831  66.6891146  30.4648495
  26.8356299  66.9389963  29.7305560 111.4427026  51.1697006  22.2050047
 111.0150315  50.7956028  22.9753160 110.9004195  51.9233751  21.9723320
   6.3347542  86.9093227  15.8535528   6.0610807  87.5107861  15.1610410
   6.1672062  87.3871708  16.6658473  20.6178141  76.0396910  13.7515545
  20.9344530  75.6725073  12.9262364  19.9916697  76.7143822  13.4889483
 117.2763266  60.5269909  37.8269553 117.8081734  61.1281967  37.3054910
 116.4421599  60.9824228  37.9408979 113.2768021  76.3891220  37.5696778
 113.5914467  76.7810917  36.7550683 112.5567008  75.8195782  37.2989225
  29.0586185  85.9023952  25.7641268  29.5538759  86.3697243  25.0914049
  29.7254825  85.4550934  26.2851381  89.2113204 108.6238575  72.1657038
  89.6602435 109.1759205  72.8059626  88.2902475 108.8742352  72.2375536
   9.0079778  70.9625292  43.6957359   8.2612580  70.7651186  43.1303453
   8.8778698  70.4095507  44.4661379   0.7418229  62.1135235   5.0419116
  -0.1824731  62.3579836   5.0882673   1.0374609  62.4536324   4.1974267
 108.6151732  51.3182831   2.8282014 107.9174574  50.7662535   3.1813088
 108.5184421  51.2483501   1.8784729 117.4147835  73.4353590  37.4087453
 116.9312991  74.1393232  37.8410745 118.2578429  73.8279104  37.1820664
  37.3649597  76.4821959   4.6116284  36.9083905  75.7484007   5.0231081
  36.6830707  76.9468689   4.1265094   4.3313527  77.1337318  54.3729353
   4.5739827  76.2131262  54.2736864   4.7730076  77.4126959  55.1750278
 103.0184217  89.5305157  36.9021773 103.4263690  88.6792469  37.0607615
 102.7585502  89.5037556  35.9813166 105.9528489 104.4951439  37.5731874
 105.8888180 104.5408916  36.6192269 106.1539753 105.3912354  37.8429890
  26.4908266  72.3867035  31.1836743  26.0771251  71.6521931  30.7302642
  26.9610357  72.8583813  30.4961777  36.4851571   7.8265147  30.5206752
  37.4377476   7.7994018  30.4308510  36.2826166   7.1230369  31.1373830
   8.1572658  86.3883877  35.7124686   8.9775360  85.9279442  35.5353212
   7.6191252  86.2256622  34.9377680  92.6238795  54.6911669  15.7729197
  92.6860996  54.5290184  16.7142320  93.4608431  54.3872595  15.4216909
  35.9411693  68.3823919  13.2734096  35.3674746  68.5359478  14.0240932
  36.7022872  68.9397097  13.4356761  54.4612265 108.6895752  57.1545076
  53.9467669 107.8940392  57.0178032  54.7698212 108.6229134  58.0581427
   5.4954535  88.3740616  13.8822544   6.0128969  88.8723946  13.2496822
   4.9941495  89.0370846  14.3569398  30.6935310  74.7450161  74.0410328
  30.6004429  74.4200277  74.9365473  31.1158967  74.0276384  73.5685825
   0.6592611  87.0556736  23.0331802   1.3979103  87.6641178  23.0128002
  -0.0287480  87.4974346  22.5354671  10.2277064  72.1082544  16.8489742
   9.6019220  72.5627327  16.2849939  10.7025504  71.5240479  16.2578225
   7.4381292  84.1454983  25.0454330   8.1094217  84.1921425  24.3646812
   7.0969379  85.0377178  25.1068926 109.5144273  77.9193354  40.9419727
 110.4513319  78.0696440  40.8160830 109.1181405  78.1637478  40.1056433
  23.2392097  52.9976225  37.2147322  23.1168079  53.9162731  36.9752955
  23.4034753  53.0156851  38.1575584  16.7700481  64.3685579  53.3452511
  17.2851634  63.5850906  53.5377789  16.7726362  64.4281197  52.3899126
  15.7600856  67.0607710  16.4569843  15.8622944  68.0091763  16.3775444
  16.5872002  66.7615271  16.8345642  19.1900456  20.1933289  20.0366950
  19.8886693  19.5881009  20.2854037  19.6174729  20.8301830  19.4640219
 108.8956149  70.9547949  28.6802816 108.7254138  70.6875086  27.7770519
 109.7525151  70.5798101  28.8836002  15.3347147  59.0435600  14.7655272
  16.0381281  58.5924530  14.2986834  14.5576501  58.5089827  14.6023309
 116.0982716  87.3669720  40.5605841 116.1422974  86.4657116  40.2411556
 115.5695702  87.8266811  39.9083757  83.5800572  60.6975651   6.2138027
  83.0304380  60.2756500   5.5533952  84.1705604  61.2586308   5.7110649
  65.1606828 111.6060870  70.0772765  65.0336367 111.8989986  70.9796598
  65.4334981 110.6921714  70.1582792  22.3481703  73.2379627  15.3150082
  21.4651394  72.9367924  15.1010346  22.8216839  72.4411297  15.5538952
  24.8641109  61.4922142  21.8431687  24.6116209  62.4124289  21.7677879
  25.8205700  61.5082979  21.8771935  70.4165859  33.5312842  91.3037357
  70.1855017  34.3775652  90.9207955  70.3979344  32.9215239  90.5661240
  79.1566086  83.0614281  26.2465763  78.5944986  83.8250351  26.3775754
  78.7970257  82.3958874  26.8330789   6.0442024  96.3150692  26.8686056
   6.7050004  96.4002609  26.1813498   6.5414679  96.0754299  27.6506114
  71.1202188  88.7132454  22.9398704  71.0132547  88.3543205  22.0589828
  70.4634614  89.4072437  22.9971099  15.9831285  74.1164541  46.8287563
  16.1369932  73.2471561  47.1987391  15.0299656  74.2001247  46.8020821
  52.1244955  94.2109966  24.9796200  52.9297924  94.0390396  25.4676342
  51.8668842  95.0935745  25.2459240  38.6285400  42.5505447  13.4103763
  38.9590049  41.6760397  13.2047760  39.3964052  43.0296040  13.7220132
   6.3805711  25.1233101  47.1756983   7.0730567  25.5967879  46.7147064
   5.5971682  25.2683067  46.6451454  16.6602767  59.3127728  32.5332451
  16.9571781  58.4039259  32.4876809  16.4527106  59.5426273  31.6275334
  24.8620057  43.8129902  33.6381245  25.1502013  44.3703413  32.9152560
  25.6695271  43.4332132  33.9844012  14.7927046  91.7376137   9.7560304
  15.6596518  92.0494461   9.4964218  14.5776331  92.2494888  10.5357516
  24.3395686  51.2447214  42.5460911  23.5368490  50.8235788  42.8535175
  24.9981952  51.0112524  43.2002592 105.6677545   7.0128630  89.6487024
 106.5796221   7.0094965  89.3576345 105.1611126   6.8611000  88.8508853
  12.7847922 110.6613350  19.2133522  11.8904507 110.3516388  19.0702677
  13.0609870 110.9978676  18.3608890  98.7949646  14.7585915  83.4404841
  98.5884644  15.6142185  83.0643323  97.9847766  14.4838713  83.8698509
  40.9893560  84.7208023  26.5691710  40.1898336  84.4354916  27.0114350
  41.4925766  85.1684666  27.2493124  65.8778078  19.5154147  49.6494627
  66.1694605  19.3014770  50.5356932  64.9256188  19.5827727  49.7203922
  20.6882739  50.7245111  23.4640718  20.1733685  50.3198099  24.1621590
  20.0867629  50.7748747  22.7211857  60.9108353  71.5359783  13.5707021
  60.3972578  71.7672873  12.7967703  61.1248970  70.6110668  13.4484482
  13.9878666  97.8206253  41.7024660  13.3061731  97.2795963  41.3039446
  14.6690631  97.8795052  41.0325909  15.9010005  89.6685123  40.1334953
  15.1650321  90.2253246  39.8794556  16.6626167  90.0746441  39.7197032
  89.6819294  24.2093371  87.5547471  89.6265305  25.0753401  87.9587272
  90.4959346  24.2313813  87.0516142  18.2773948  78.4734201  24.4455910
  18.8208413  77.6892042  24.5224214  18.6368871  79.0784502  25.0943875
   6.4461255  77.1464920  60.2158928   7.1269375  77.7023220  59.8367071
   6.2410825  77.5579453  61.0554743  80.1730938  69.7606659  51.1292839
  80.4498024  69.4296312  50.2748346  80.9320398  70.2437115  51.4562321
  32.3148751  71.3196850   4.2399642  31.8826103  72.1578121   4.4040203
  33.0296063  71.2902737   4.8759884  59.4062549   5.5917602  28.9873981
  58.7899870   5.5165248  29.7159481  60.0022537   4.8513179  29.1003990
  21.8645263  79.8687506  21.4822364  21.7997599  78.9579058  21.7692828
  21.7280674  80.3812695  22.2790647  92.6493449  67.3733425   8.1636220
  92.1453972  66.7679310   8.7074488  93.5076900  66.9588518   8.0760264
   3.9515001  62.5745296  25.8404040   4.8837197  62.7393866  25.6989074
   3.8382366  62.6382875  26.7887378   6.0422039  65.4253340  44.3242073
   5.0852352  65.4347134  44.3430328   6.2628758  64.7210503  43.7146759
  73.6642409  24.2698668  78.9095870  72.7106620  24.3187140  78.9769152
  73.8267190  23.5002850  78.3640769  26.8157911  46.8278027  11.8303442
  26.9225526  46.1643696  11.1486602  27.6193190  47.3462391  11.7879450
  26.2808299 105.6772137  34.8107839  25.9106779 105.1999950  34.0681672
  26.7059684 106.4394569  34.4177604  73.7389118   1.0679679   6.5942514
  72.9882604   0.5450301   6.8758523  74.0693385   0.6144576   5.8187640
   1.3416673  64.6911335  15.1029921   2.2868872  64.6974230  14.9521542
   1.2210108  65.2238703  15.8890355 109.8016728  53.5076044  69.5909431
 109.2430604  52.7703760  69.8372820 109.2108263  54.1196631  69.1521838
  35.1858997  59.5640564  12.2348201  34.7353721  59.8625517  11.4447844
  34.5011282  59.1476011  12.7581632   6.5897554  60.8624125  32.3192024
   5.9022641  61.2462664  32.8634858   6.2936342  59.9670267  32.1554184
  38.8884525 105.8508056  88.4672966  38.6434070 106.7270797  88.1700942
  38.2286797 105.6273359  89.1237971  29.0067935 110.5495644  75.5775309
  28.9345860 111.2452984  74.9240971  28.2261348 110.0123405  75.4426575
  93.4451378   9.9168728  92.0835817  94.0505923  10.3076409  91.4535382
  93.2161523  10.6354092  92.6730722 108.5677673  66.2611103  45.8981848
 109.1728170  66.9031954  46.2694979 107.7104337  66.5138435  46.2407303
  95.8081371   8.5723548  21.9446993  96.7063743   8.2513099  21.8651247
  95.2948028   7.9887061  21.3860631  72.4131632  67.7838421   8.1152725
  71.7054939  67.9013014   7.4815226  73.1397486  67.4325609   7.6005822
  38.2811120  28.0836730  24.0624428  38.8444612  27.4253707  23.6556149
  37.5111765  27.5941520  24.3519282  36.3113713  54.2164421  11.3139546
  35.6739402  54.9304962  11.3201547  36.6976190  54.2477703  10.4387045
  30.3540659  17.1267848  37.7629924  30.2344352  16.3912540  37.1622300
  29.5898313  17.6837688  37.6148582  45.1678038  76.8961239   6.3444734
  45.7412863  76.6710901   5.6118673  44.3253422  76.5015173   6.1191440
  29.6241307  88.2311726  23.3709145  30.4761839  88.0675697  22.9665995
  29.0167975  87.6748753  22.8831553 114.6672325  72.3744822  39.5431566
 115.5794869  72.1068859  39.4317269 114.6665315  72.8940916  40.3470469
  33.4130740  87.4092197  30.7931399  33.2737994  87.3056221  31.7344713
  33.5745955  88.3454514  30.6765223  90.8749569  63.6745737  90.3532246
  90.3830780  63.9597605  89.5831898  91.6689242  64.2090987  90.3417536
  29.0476680  86.6326523  42.6661444  28.3289289  86.1745739  42.2304678
  28.6351109  87.3958874  43.0704880  20.9046078  96.9320583  18.5447788
  21.5988612  96.3243484  18.2899654  21.1380100  97.2037601  19.4324350
  20.2113843  51.6850710  34.6198797  19.8004603  51.9784069  33.8066578
  19.6137321  51.0215092  34.9644446  14.6847594  87.2850132  40.9601688
  14.9853504  88.1875896  40.8542538  15.3115857  86.7634296  40.4588985
  28.2675862  91.0690498  48.7489080  27.9814053  91.5479565  47.9711008
  28.1133819  90.1491261  48.5339832  69.1045005   9.0661101  26.0558510
  68.2031805   8.8567405  25.8108592  69.3047482   9.8666434  25.5707908
  42.5515747  88.7345982  64.5041943  42.7515173  88.0572891  65.1503420
  42.6035500  89.5554733  64.9937677 110.8945884  67.1274042   8.9940339
 110.9119709  66.4946365   8.2760262 111.8068696  67.3984480   9.0965563
 108.1590660 104.6836948  23.1608820 107.2483523 104.5550632  22.8957701
 108.1023867 105.1597977  23.9893460  34.0110111  81.9004345   4.0823865
  33.2056165  81.4090061   3.9209136  34.5725179  81.2897873   4.5599380
  80.4641229  19.0296798  18.2545483  80.8508617  19.5404964  17.5434017
  79.6544725  18.6782317  17.8841722  24.0591693 108.5687637  13.2141197
  24.8301148 108.4543228  13.7697947  23.3402348 108.7145805  13.8290226
  23.6898661  95.7920361  14.0303659  23.0848169  95.8503342  13.2909417
  24.0087414  94.8897743  14.0083551  28.7749147  88.9053917  19.5409346
  28.6695576  88.7045193  20.4708695  29.1688299  88.1164455  19.1686082
   4.8375046 101.6158581  19.3839705   4.5088652 102.1919346  20.0741625
   5.4400390 101.0232067  19.8333621 108.5950871  82.7793789  16.6355407
 109.4887341  83.1216908  16.6567016 108.1769593  83.1532669  17.4111772
  37.0934105 101.1157131  32.2059321  37.6611185 100.4018879  32.4964404
  36.2923932 100.6808376  31.9135475 108.8929816 100.9024525  24.1410899
 109.0979548 101.0673237  23.2207441 109.5688982 100.2898121  24.4309783
  25.2179170  84.9445057  30.6023526  26.0280085  84.7937107  30.1152754
  25.4628801  85.5657482  31.2881279  66.4009244   3.8409667  45.1101160
  67.2665698   3.6147266  45.4502678  66.0889680   4.5345740  45.6913376
 100.6949468 107.8727913  44.0874720 100.3631695 108.5955524  44.6201754
  99.9313445 107.3153305  43.9378595  20.7698083  72.6332045  46.0377884
  20.6859088  73.0548239  45.1825523  20.5630684  71.7133045  45.8726406
  29.2041683 107.2616100   4.8076153  28.6688399 108.0370998   4.6394700
  30.0746083 107.6090431   5.0021857  24.2455387 101.5394688  45.3755665
  24.9026871 100.9937382  44.9436378  24.1992760 102.3297501  44.8374653
  38.7703538  57.5243950   8.1176805  38.2367468  57.0967340   8.7874556
  39.5378160  57.8449297   8.5914862  43.8391051   0.7908778   9.9194086
  43.0177328   0.6123500  10.3773451  43.7634564   1.7028384   9.6386153
  37.5859690  92.8554058  34.3976259  38.1848669  92.1443081  34.6254301
  38.0329323  93.3296490  33.6965179 110.5084301  86.3337994  40.4212475
 110.9742965  86.5443611  41.2304831 110.5664422  87.1324062  39.8967528
  52.1531677  80.4738617  13.1353283  52.7383280  79.7496986  13.3576262
  52.4853086  80.8023739  12.2998679  31.6647029 110.7210445  27.1128035
  31.2071681 111.5589333  27.0432734  31.9139218 110.6600380  28.0349755
  22.2521544  42.5723696  24.2951512  21.3609409  42.9020977  24.4102645
  22.1474171  41.6251040  24.2059755  81.1106807   3.2609706  12.2119796
  81.5665466   2.8092151  11.5018106  80.2650196   2.8169112  12.2744393
  48.1250668  66.4990139  17.1957028  48.3405685  66.3751507  16.2713385
  48.8475657  66.0848951  17.6676524  12.3272723  31.7012690  83.9726379
  12.2907513  31.0501383  84.6732965  13.2559317  31.9209193  83.8979569
  47.5130796  71.8720961   6.0362697  48.0281973  71.0857296   6.2165838
  46.9737530  71.9896603   6.8182784  52.9833889 105.9443378  33.8256454
  53.6788845 105.4475975  33.3946443  53.1739330 106.8577957  33.6122680
  15.5198646  95.6079006  21.7693949  15.9082377  94.8958683  21.2610531
  15.8646691  96.4051151  21.3671660   8.9341915  75.3512955  30.0455594
   9.0428394  76.2793493  29.8378396   9.6472019  75.1569510  30.6538987
  57.8845543   4.0812068  51.5049362  57.9409320   3.1409030  51.6748857
  58.4551281   4.4781737  52.1630383  44.1294813  94.6786118  40.5661726
  44.9492502  95.0034332  40.9385967  44.3334723  94.5133877  39.6456718
   3.9180916  24.7543715  79.7237685   3.0704802  24.3933485  79.4640687
   3.9795798  25.5847166  79.2515662   4.2715454 101.7932510  66.3769341
   4.5035964 102.3115063  65.6063557   3.8943371 100.9891510  66.0200548
   0.1900038  83.4676266   9.6972752  -0.5092922  83.8031101  10.2582276
   0.7666442  82.9896355  10.2932966  70.3166992  32.3943381   5.9074348
  70.2413184  33.3484988   5.9185898  69.7471267  32.1007590   6.6185093
  83.3294405  39.4293783  94.1790439  83.5075895  38.8892077  93.4091681
  83.5611472  38.8717268  94.9217191   2.7036840  81.7885017  32.6437712
   1.9286451  81.9221401  33.1893778   2.9904193  82.6724720  32.4143767
  78.9322454   1.2719588  38.5574269  78.1933648   0.6877856  38.7277985
  78.5318310   2.1300464  38.4174633  36.7809892 109.6950340  34.4883513
  37.2184348 109.2528343  33.7607932  37.4864984 110.1420498  34.9559617
  89.7816831   9.2183547   8.0593634  89.8560983   8.3989864   8.5485804
  90.4853708   9.7679858   8.4042621  18.8343751  48.7267923   3.8373020
  19.2176950  49.3356800   3.2059887  18.6744571  47.9287004   3.3336115
  99.9144907  88.9861107  57.4788284 100.5860241  88.6775017  56.8705225
  99.4750865  88.1889820  57.7750397  21.4802361 106.4484787  43.3933592
  21.9374824 106.6290092  42.5720358  21.8574786 105.6244469  43.7013912
  16.9303262  99.8665524  11.4151144  17.2312522  98.9842510  11.6324031
  17.7258372 100.3358173  11.1637414   9.9924356 108.4375286  50.1710129
   9.1007024 108.6523533  50.4446793  10.5239117 108.5783195  50.9545612
  27.6403022  93.7567043  21.8856072  26.7327189  93.5103130  22.0639777
  27.7609539  94.5823288  22.3546696  59.3335075  17.4690681  27.5780392
  59.0084094  16.8293147  26.9445825  60.1789862  17.7468162  27.2255445
  30.2937722  88.7022305  36.7036319  29.7560143  89.0329647  37.4231172
  30.2611113  87.7502728  36.7981791  38.7726808  75.3511620  19.2568493
  38.6307907  75.3533506  18.3102262  39.7199368  75.4452610  19.3572700
   4.2684305  98.4214497  42.1906614   4.8734385  98.8325787  42.8080511
   3.6749095  99.1263103  41.9315624  27.7557856  11.2407737  63.9523840
  27.1834642  10.4739146  63.9770079  27.2969455  11.8989329  64.4744110
  16.0793805  83.8332462  51.2148666  15.2061725  84.1836739  51.3907719
  15.9654045  83.2845211  50.4388905   0.5782337  73.4836721  73.4150934
   1.2733871  72.8324223  73.5092592   0.9264973  74.1166496  72.7871752
  10.2376485  95.0622368  15.2169824   9.4799387  94.7399044  14.7289157
   9.9203825  95.8496189  15.6592536  80.2729732  17.1005778  37.1655560
  80.3040487  16.1460071  37.1019197  80.3367216  17.4032168  36.2596965
  43.7913669  18.0947833  30.3556514  44.6489364  17.6702170  30.3790498
  43.9714638  19.0103107  30.5692172   8.0158079 106.2905502  34.3679285
   8.1038266 107.2335911  34.5063710   7.9081637 105.9283733  35.2474022
  44.3364286 100.3574371  10.8077490  43.6442280 100.3233719  10.1475012
  43.8991451 100.1206875  11.6256487  57.1643216   8.6933951  16.3803959
  57.0547444   9.4759135  16.9206643  57.1347887   7.9666572  17.0026588
   2.3550480  44.4270609  96.4856659   2.8917759  44.6954058  95.7399192
   2.9421919  43.8974188  97.0250854  30.5307603 101.0771561   9.8070449
  30.5269837 100.1203346   9.8336470  30.0771236 101.2959194   8.9930505
  47.6058960  77.9098034  19.4315052  46.7992830  77.9930305  19.9401057
  47.3248911  77.9976225  18.5207057  19.3089557  89.3663025  40.7149649
  19.2291558  88.9149475  41.5552902  19.6393967  88.6980343  40.1145840
  62.2945291  28.0928092   5.6745458  61.8795997  27.4205165   6.2149930
  63.1718809  27.7521281   5.5001342  45.7647943  93.4336948  21.0971451
  46.3660669  92.7153969  20.9002876  46.3077497  94.2205334  21.0490751
  33.2049370  92.3539066  32.1966147  34.1078496  92.1142101  32.4052525
  32.8308225  92.6295280  33.0334568 116.4376343  10.4236410  85.4073384
 117.1975292   9.8598526  85.2626625 116.8013943  11.2227391  85.7885852
  30.8941627 101.9618130  36.7802048  31.8496513 102.0184803  36.7880487
  30.6039762 102.7439785  37.2495008  13.3283424 102.4246502  18.0920315
  13.0999124 103.2745075  18.4685886  13.6991942 102.6343632  17.2348714
  17.4398780  70.7197762  23.8827181  16.5965247  70.4413652  24.2397523
  17.7685785  69.9506569  23.4172702   0.4555987  72.0779848  24.8790312
  -0.3327139  71.6719341  24.5185924   1.1517376  71.4439821  24.7068119
   5.8063406 104.8156834  29.2426395   5.7142907 105.6666088  29.6712232
   6.6465616 104.8666668  28.7869430  79.7756668  17.9111241  94.9991581
  80.5488511  18.3387087  95.3673835  79.3679603  17.4702547  95.7445717
  69.1094882  -0.2595849  30.6131816  68.6999113   0.6023364  30.6878519
  70.0481517  -0.0761647  30.5744052  46.2116241 107.1741390  28.1419349
  46.4422178 106.3446999  28.5603738  46.0401964 107.7705479  28.8707256
  26.5272689  90.1265907  17.9417193  27.2223997  89.8785496  18.5512269
  26.3915014  89.3470097  17.4031603 117.8262126  82.7239323  24.5788646
 117.8104709  82.8153706  25.5315590 117.9233451  83.6190319  24.2539215
  10.4780841 111.1832047  39.1803837  10.3633964 110.8957863  38.2745862
  11.0751033 111.9290638  39.1212320 104.5836938  50.5684946  84.9530461
 103.9265240  50.3077696  85.5983260 104.9772943  51.3607119  85.3186980
   4.6913424  97.7653217  24.3954301   5.5985963  97.5378704  24.5988679
   4.2535120  96.9222069  24.2784142 108.1929059  73.3344364  23.0056334
 107.6715489  73.9518690  22.4926066 108.4632273  73.8324070  23.7771130
  38.5126019  99.2638779  12.6153564  39.3566680  99.7128487  12.5683427
  37.9074097  99.9259949  12.9493952 106.3790043  81.8856049   6.9075215
 106.8522794  82.7171516   6.9355249 105.8201988  81.9540215   6.1333847
  35.9067941 101.9077015  27.9333377  35.1864982 101.7939377  27.3132849
  36.1200380 101.0191536  28.2183862 105.0594671  71.5996790  15.1720214
 104.9969812  71.5080404  14.2212689 104.5079429  72.3547888  15.3766239
  90.6860143   3.6071448  13.1998754  90.6702739   4.5409351  12.9900539
  91.5708811   3.4506469  13.5296452  87.0438893  42.9499148  94.3919791
  87.9884488  43.0685900  94.4917570  86.8693675  42.0884608  94.7710067
  51.4979506  90.8709812   7.9685974  51.0225153  90.7198620   7.1516776
  51.3578510  90.0730324   8.4783816 103.1180091  80.9726810  59.9935293
 102.6090343  81.0674191  59.1884184 103.5705931  81.8105030  60.0907564
   0.9582631  92.8002071  10.4550791   1.8779716  93.0203247  10.6031168
   0.8781456  91.8937492  10.7519877  37.3165383  23.7807803  58.0172539
  36.4789284  23.3220344  57.9525232  37.2617545  24.2642551  58.8415623
  62.7078873  16.0223727  67.8309679  62.3784692  16.2823444  68.6912823
  62.3611409  15.1401095  67.6983118  69.1226751   2.5139289  16.1713994
  68.3142096   2.9414134  15.8887708  68.8921839   2.0873695  16.9967210
   6.4398134  84.0564442  43.2324266   6.3585013  83.8238525  42.3074865
   5.5569696  84.3204403  43.4915209  52.1635818  95.2033329  37.3184586
  52.4111891  94.2790222  37.3424220  51.3517523  95.2469921  37.8236842
   1.1159937  68.4455299  19.8346913   0.8179373  67.9747868  19.0563643
   0.7765812  69.3334341  19.7222018  65.8198244  13.3696990  25.9803367
  65.7309205  14.3093925  25.8212805  66.1459882  13.0164771  25.1526380
  53.2348013  95.6591320  40.5405474  52.2855616  95.6631660  40.6636810
  53.5890579  95.4973316  41.4149380  27.3622131 103.2326889  50.1907349
  26.5918756 103.7917423  50.2920818  27.2212815 102.7790642  49.3597174
   2.7583572  78.6703396  60.9554386   1.8706456  79.0260410  60.9963417
   2.7790830  78.1714487  60.1387882  47.8543711  51.6094303   5.4736602
  48.6163616  51.6593742   4.8965043  48.1157494  50.9990978   6.1631566
  21.0967994  98.4034157  72.0999432  21.7078114  99.0368557  71.7235804
  20.8546519  97.8388882  71.3658428  38.1723666  87.2614098  31.1066389
  38.1483483  87.0191574  30.1809120  38.9445400  87.8212261  31.1877680
  94.8954369  26.1927317  95.1276459  95.6837560  26.6005514  95.4860666
  94.1865135  26.5084647  95.6879788  67.9155428   7.6791434  29.7104669
  67.4278361   7.8802543  28.9117646  68.6208994   7.1003871  29.4210744
 107.9049702 101.9952106  26.5766549 108.4498258 101.7836475  27.3346829
 108.4922607 101.9032478  25.8264112 100.3139676  31.8231390  81.3949063
  99.5045389  31.5008257  80.9984544 100.0272907  32.2860239  82.1821681
  68.9542300 104.9064677  95.9673497  68.3330852 104.9392265  96.6949062
  68.6413557 105.5724567  95.3551391  89.7045208  13.1933831  68.1847480
  90.0954200  12.4578284  68.6563304  89.1380132  12.7845095  67.5304368
  23.2151031  96.2047958  17.2871387  23.9940715  96.1293316  17.8382707
  23.5218930  95.9850883  16.4074576  11.1213756  74.8158121  10.5259240
  11.3762093  75.1555204  11.3837659  11.7722845  74.1411877  10.3324604
 114.3764664  87.3667812  33.8632035 114.6624659  86.4775372  33.6541820
 114.7626357  87.9102421  33.1763625  14.7839379  86.8839741  25.4239249
  15.3566444  87.5051308  25.8738184  15.3723836  86.1935520  25.1185012
  18.5740263  22.2606616   3.7047043  18.3511812  22.9437690   3.0722970
  18.8435609  22.7389102   4.4888362  35.8583879  53.3114862  26.1627960
  34.9582171  53.0067205  26.0485816  36.2343597  52.7117586  26.8071604
  15.4881883  88.5062504  43.3366156  15.9837854  89.1684723  42.8548670
  15.2471578  88.9370346  44.1567135   9.9610329  87.2839642  73.1619072
   9.1264081  87.2900200  73.6305189  10.3211749  88.1595707  73.3027935
  37.5077551  20.7590245  90.1117775  36.6036623  20.4543160  90.0342914
  37.4643343  21.4807509  90.7390424  22.2028947  86.5367031   1.5645698
  22.0622659  85.6025887   1.7190912  22.6646876  86.5740585   0.7269640
  31.8995261  83.7686539  33.0932951  31.0819173  83.5879898  33.5570955
  31.9208169  84.7217941  33.0077910 113.5261048   9.2205380  94.6817949
 113.5397781   8.9343975  95.5951231 113.7392844   8.4331988  94.1809164
  54.0784597 108.0584908  39.2807293  54.7758007 107.4200726  39.1311431
  53.6386061 107.7514076  40.0734806  18.1434500  88.7907600  14.4508386
  18.4871161  89.6679020  14.2812955  17.7925849  88.5038853  13.6077297
  17.0447981 110.1697254  31.6340780  17.9001129 110.2274418  31.2082386
  17.2222543 109.7396183  32.4705887   0.4977005 101.7188740  35.6585693
   1.2406128 102.2300243  35.3375745  -0.2724112 102.2115898  35.3750515
  57.3774165   2.7909045  11.2313306  57.8869409   2.6325183  12.0260179
  56.5454561   2.3439365  11.3871717  29.5257926  90.0880241  34.5801473
  28.7354207  90.5616570  34.8394084  29.7250438  89.5264339  35.3292418
  35.7851577  84.1659260   3.9284769  36.5735626  83.9837646   3.4171358
  35.1662517  83.4848404   3.6652049  34.4045866  11.5077548  25.9219527
  34.7480563  11.8849998  26.7318583  35.0125999  10.7991748  25.7110810
  29.1419935  70.9091949   4.0968388  28.7268662  70.0825644   4.3429795
  29.8747969  70.9998989   4.7059393   1.9213980  98.3416367  48.9034653
   1.5697595  97.6675510  48.3219242   2.8319862  98.0834770  49.0463400
  50.1545674  17.8687911  24.9749351  50.4785210  17.3196368  24.2609930
  50.9327227  18.3202415  25.3018975  75.2080852  17.6593166  38.6910295
  75.6778604  17.6985126  39.5240998  75.8976871  17.6537662  38.0272150
  45.7913780 102.6522732  57.6135445  45.6416988 102.7846146  58.5496616
  45.7720470 101.7020416  57.4998808  44.0910387  88.5992527   8.2383704
  44.9602127  88.3259869   7.9449528  43.8309002  87.9305363   8.8719165
  51.5235615 108.9510727   9.2509484  50.9609795 108.2420826   8.9393878
  51.4094305 109.6486378   8.6054939 115.8763445  63.5339545  87.0050111
 116.4370383  62.9257773  86.5233722 115.2680386  62.9709528  87.4837825
  33.0663776  89.3904495  33.0056834  33.1823587  90.1072121  32.3819661
  33.3124137  89.7662926  33.8509274 110.2717055  42.3768805  68.0195191
 110.0568212  42.0353125  68.8874963 111.0029567  41.8349646  67.7231625
  54.7550184  13.0506377  32.4168277  55.4675729  13.2991176  33.0056882
  54.6347863  12.1132140  32.5685477  79.6789295  17.6084285  34.3864608
  78.8241035  17.5263839  33.9636397  80.2501852  17.0249896  33.8869667
  15.2109354  51.1224840  95.8558156  14.7263973  51.7467688  96.3959351
  15.0276583  50.2704809  96.2517061  15.1951814  82.8545094  37.8335285
  15.2820313  81.9298744  38.0653691  15.0863171  83.3025551  38.6723566
  22.1349454  88.3175278  31.2666774  22.4749017  88.7260056  32.0627975
  22.8079939  88.4828854  30.6064558  63.6514997 101.8496609  24.6454620
  62.8408003 101.8787098  25.1535511  64.0015411 102.7387714  24.7019339
  77.7953154   3.0032973  34.8463488  78.0918676   2.5150828  35.6144214
  76.8460471   3.0642848  34.9531364  75.8073742   5.8823829  22.6386333
  76.1257607   6.6331248  22.1373820  75.0540096   5.5643325  22.1411252
  16.1482638  69.3116663  70.9883216  16.6747587  70.0364588  70.6511190
  16.3461607  68.5797690  70.4040292  59.2709303  96.7145061  60.9926414
  58.3331013  96.7421627  61.1822414  59.6687937  97.2589111  61.6720200
   0.0468405  92.3742962  41.2607956   0.8213501  91.8120384  41.2763023
  -0.5936273  91.8855381  40.7439280  31.5055818   2.6375060  10.3546572
  31.3933927   1.6988902  10.2041769  30.6727463   2.9208140  10.7319522
  63.7074429  24.5595698  62.7804947  63.9580328  25.4607539  62.5772810
  63.3177478  24.6103435  63.6532974  43.0061004   8.8369804   2.7509162
  43.3556423   9.1867881   3.5704795  42.9096592   9.6031432   2.1852942
 100.2999462  52.5459383  76.3520840  99.4640172  52.8647517  76.6923979
 100.9486545  52.8502844  76.9867363   8.6356539  79.9893570  39.4389296
   9.0083623  79.2604971  38.9428616   8.1217974  80.4784966  38.7963367
  46.2705278  96.5461349  41.4212656  47.1791363  96.5053654  41.7195940
  46.3318348  96.8025875  40.5011034  98.3165110  66.5673445  95.8395802
  98.4707094  67.4280260  96.2290493  98.7266184  65.9523199  96.4476849
  64.7948677  10.7474952  57.0680189  65.2594406  10.0051170  57.4543905
  65.0876505  11.5040069  57.5761604  63.7768364  86.9780254   5.8864677
  63.6343336  86.1246967   5.4768914  63.8751411  87.5831223   5.1513302
  68.7953574   9.9406104  22.8847337  68.9324743   8.9940410  22.8466034
  69.5528323  10.3107982  22.4314952 114.5813267 108.1427383   3.1742293
 115.3541227 108.4160805   2.6799604 114.9077944 107.4783897   3.7811062
   1.5681668  96.5152645  59.2991400   1.0900246  96.0725403  60.0002861
   1.3077094  96.0528374  58.5025549  46.3872123   7.8731685  44.8851061
  46.7712558   7.2901301  44.2302752  45.4501033   7.8681617  44.6900845
  44.6468210  66.6447449   5.1218694  44.3065405  65.9924889   5.7342440
  45.4079199  66.2238503   4.7221056  62.0811605 103.7340641  21.8938375
  62.3909664 102.8674030  21.6308522  61.7242765 103.6043930  22.7725029
  73.0961925   7.9071956  19.8619008  72.5023920   8.6474471  19.7367668
  73.8137776   8.0695968  19.2495871 112.5396026  23.3281372  82.5148991
 111.9786967  23.2798432  81.7407635 113.4261287  23.2023094  82.1765604
  51.0607511   1.2697940  32.7564955  51.0105116   0.6172900  32.0579672
  51.7360908   1.8819766  32.4642849 117.1981348  51.9825266  95.9203297
 116.6273702  51.4210318  95.3957505 118.0280365  51.9927309  95.4434733
  66.5719635   7.4503474  19.0656149  65.8986170   6.9797187  19.5568860
  66.1605388   7.6478057  18.2242048  35.5849624  94.3900681  16.5395355
  35.4134393  95.1673317  17.0712042  36.3822699  94.6028328  16.0544980
  25.9627104  90.0965405  13.0904686  26.1626768  91.0206604  12.9413044
  25.0202131  90.0278187  12.9381347 112.9613239   0.1929813   2.4953207
 113.3270103   0.6610828   1.7447302 113.7199671  -0.2054067   2.9219198
  31.3150430  90.2026939  41.3393545  31.3889503  90.0694942  40.3943539
  30.6267381  90.8609200  41.4353466  37.2519660  88.6299229  15.3831530
  38.0947495  88.5282898  14.9408615  36.8053389  89.3195057  14.8920035
  98.2680065  16.4349418  40.2547312  98.9930326  15.8100276  40.2619505
  98.6207945  17.2059779  39.8105836  25.9406250  40.1369856  95.3870677
  26.8354624  40.2455710  95.7090995  25.9961146  40.3385733  94.4529821
  79.5971901   3.2556396  16.7184496  79.3996412   3.0281978  17.6270068
  80.0220997   4.1116386  16.7727911  25.7066655  94.1351700  32.6834536
  24.8464584  93.7724209  32.8948474  25.7264423  94.1628265  31.7268586
 101.1309034   3.0594878  38.9489555 102.0187313   3.1183009  38.5960579
 100.7119161   2.3728709  38.4300804  44.9240160  94.8388290  30.5344057
  44.8535919  93.8848209  30.5005550  45.7592821  95.0325775  30.1089358
  39.9970508  94.5976162   2.8408363  40.0389147  94.1982460   1.9719429
  39.5251608  93.9590836   3.3754548  97.4013639  65.5270003  83.0909791
  98.1322421  65.9073065  83.5782292  97.4601615  64.5876692  83.2654324
  81.8635399  17.1543937  39.8388052  82.8061086  17.2908168  39.9346232
  81.7549116  16.8594127  38.9346933  74.5956880  29.0663390   8.9619678
  75.4687125  29.3689494   9.2119437  73.9983470  29.5948749   9.4911766
  71.0821492   3.8957172  33.9810920  71.5691978   3.4123092  34.6484208
  70.4243309   3.2748942  33.6679220  11.9471705  79.6808386   5.5819333
  12.5887287  80.1114273   5.0169325  12.0813489  80.0777626   6.4425611
 111.2317772  84.0589619  16.8749619 111.7895020  84.5896626  17.4437582
 110.7036497  84.6966839  16.3947332  59.3986654  82.3460484  29.5308685
  59.4408846  82.5226688  28.5910511  59.8245382  81.4950371  29.6340132
  14.0989685  70.4322433  24.0088487  13.5449255  70.6641912  24.7541451
  13.8119674  71.0156250  23.3063316  22.1194816 108.7914562  39.9814153
  22.5766253 108.1056881  40.4682159  21.2102962 108.7272453  40.2737999
  66.5412957  14.9889522  61.1432743  66.9796712  14.1568523  60.9653330
  66.8473918  15.2393298  62.0149660  19.5721555 111.6039944  23.5071135
  20.5037570 111.6840744  23.3023357  19.3510997 110.7036495  23.2689047
  47.6827330  25.7460265  20.5577135  47.4523682  25.6041579  21.4758825
  48.2274414  24.9930911  20.3283429  29.2467594  65.3637123  10.5222392
  30.1216292  65.7176685  10.3624070  29.0236831  64.9023199   9.7137940
 111.1030227  11.2185531  27.4502468 110.7863695  11.9959788  26.9902754
 112.0467359  11.3563209  27.5318432  81.5269930  49.6789222  26.1289382
  82.2747547  50.1465278  25.7568812  80.7889015  49.9254279  25.5715418
  20.1395822  81.1124039  27.8736711  19.6547592  80.7393074  27.1374774
  19.4840598  81.2183571  28.5630870  87.7517921  10.7493835  22.1223974
  87.6676494   9.7986751  22.1951914  87.4836380  10.9455257  21.2247038
 109.0227617  85.5292225  27.6293778 109.2599340  85.1798534  26.7703533
 108.9722796  86.4759159  27.4973035  71.7693097  29.7327476  26.7082548
  71.4092952  29.4282107  27.5412488  71.2657911  30.5206351  26.5034556
  27.5437522 111.3908482  50.8373260  27.3883176 110.5672932  50.3749084
  27.2456884 112.0670795  50.2289581  94.0907985   6.0981326  43.4143209
  94.1854412   6.6133647  44.2154598  94.5303995   5.2703433  43.6085844
  86.9881469   5.8001571   2.1944228  86.8944914   5.9398131   3.1367379
  86.6688949   6.6113906   1.7991742  89.9328453  15.9203105  48.9913416
  89.8180992  15.2314429  49.6459532  90.8676416  15.9024768  48.7862110
  56.6520173  12.0837264  12.4260950  57.3181886  11.9410853  13.0984819
  55.8568508  11.6949134  12.7904654  14.4949698  82.7083588   0.8189957
  14.2888463  81.7891502   0.9886947  15.3754175  82.8261662   1.1755978
  32.6449866  13.8853889   5.5853963  33.5121048  14.0172916   5.2020687
  32.2898615  14.7687774   5.6841236   4.0832025  66.9701576  59.4489813
   3.3123296  66.6760969  58.9636850   3.9783934  67.9194689  59.5126534
  93.9923585  74.8315714  93.4077087  94.6718408  75.4244517  93.0867329
  94.4587768  74.0211390  93.6123782  54.1577196 110.1546764  35.6477976
  53.2871675 110.1331425  36.0451674  54.0740728 109.6195316  34.8585916
  31.7180538 103.1488132  43.0930901  30.9507847 102.6472473  43.3686972
  31.4414024 103.5868263  42.2882080  18.0618256  88.8256644  89.4602033
  17.3852652  89.3887804  89.8362312  18.4796017  89.3674849  88.7907889
 102.1972782  20.8800082  63.3489513 101.8821365  20.7344203  62.4569178
 102.2339708  21.8323951  63.4375572  10.8428019  25.1192854  93.8702148
  10.7400006  25.7995222  93.2046753   9.9474400  24.8946760  94.1234164
  16.9124019  57.8452730  38.1684899  16.1385989  57.2894430  38.0762315
  16.7829716  58.5443115  37.5275350 118.2711764 110.7757282  51.5616322
 117.3274474 110.7225323  51.4107084 118.3747952 110.5960274  52.4960852
  53.9644814 102.5794220  35.8559775  53.5755587 102.0466805  36.5496302
  53.2179117 103.0022335  35.4316020  23.3907914  98.3779716  23.4069848
  22.9682112  98.1290340  22.5849843  22.8389001  99.0768814  23.7579465
  24.4636536  91.0568142  32.0579386  24.2212677  91.0562325  31.1319351
  23.7170267  90.6539631  32.5012088  20.5924177  92.3498440   4.4428134
  20.2521229  92.2362614   3.5553837  21.5103006  92.0849800   4.3830824
  49.5504379  82.7903175  13.1082869  49.6938324  81.9268799  13.4957755
  50.4284668  83.1600571  13.0156171  47.7620554  87.2596359  19.6667290
  47.1796274  86.5710831  19.3459225  47.9833603  87.7687168  18.8869309
  89.0653640  19.2336421  20.0793242  88.2314998  18.8387923  19.8243797
  89.5218355  19.3846755  19.2516458  78.5983974  33.2908015  46.4324665
  77.7601678  32.8333621  46.4984226  79.2496711  32.5911861  46.3812828
  92.3823179  29.3867777  82.3726430  91.6055978  29.8555277  82.6779488
  92.4515356  29.6160029  81.4458755   3.1209067  96.4444447   8.5147190
   3.6248413  96.1341667   7.7623856   2.5982064  97.1687412   8.1706107
  42.8377914 107.2845173  17.1054995  42.1656704 107.9177189  16.8534279
  42.3997355 106.4352703  17.0497251  77.1929628  23.1211524  53.8358784
  77.6045877  22.3415046  53.4631252  77.7044708  23.3090167  54.6228361
  78.7240464   5.8945899  53.2749414  78.7038500   6.7813068  52.9150057
  79.3209988   5.9524589  54.0209532  45.4984999  90.1866627  17.6831198
  45.1278210  90.8849335  17.1434391  45.0219965  89.4001293  17.4175394
  92.6121551  16.9622951  40.3884792  92.6617843  17.9116778  40.5000067
  91.7979843  16.8200927  39.9056387  29.4668794  79.5272398   9.4861746
  28.5171676  79.4281197   9.4194221  29.6916246  80.1514721   8.7962103
  14.8938101  41.8566416  93.7395596  14.1087979  41.3200281  93.6298725
  15.6006306  41.3245581  93.3741429 116.5699256  79.2160986  82.7381578
 116.4078654  80.1578139  82.6822045 117.1935166  79.1227530  83.4583345
  37.2809205  95.8181852  72.7962068  37.9617006  95.6474918  72.1453360
  36.5142465  95.3468865  72.4701407 100.7768698 100.3917980  64.7453547
 100.7654853  99.5516205  64.2868757 100.0248177 100.3524494  65.3361988
  66.0993994  22.0865010  92.1121970  66.5104688  22.9425762  91.9922295
  66.6792108  21.6252087  92.7182159 114.3564601  42.6542854   5.5080205
 114.4903968  43.3341742   4.8476803 114.7393642  41.8665791   5.1218468
  23.8068962  62.9374075  16.0807836  23.2500935  62.8404045  16.8533063
  24.6262836  63.2977867  16.4198482 109.0038146  11.2625025  89.3260887
 108.0749787  11.2083624  89.5509544 109.4580663  11.1904620  90.1655504
 115.8487199  77.8868866  48.3084679 116.1097556  78.4442711  47.5753784
 115.7992725  78.4823036  49.0563059  82.7275328  23.4202383  96.6333159
  83.2874099  24.1269491  96.9547659  82.6450832  23.5881470  95.6945713
   1.6704698  86.0179424  40.2853060   2.1934366  86.8195629  40.2737570
   1.7016822  85.7247066  41.1959505   9.3738437  84.5147896  18.9587212
   8.5900861  84.0827560  19.2982805   9.2317551  85.4442310  19.1381490
  12.4469584   6.7790840  88.0361047  12.6861494   7.1116064  88.9012340
  12.9517668   7.3159216  87.4251953  38.9953160  29.9480677  12.5725126
  39.8269892  30.0813055  13.0272675  39.0613937  29.0663457  12.2058606
  18.1806433  79.0078402  49.3510485  17.7368999  79.3017721  50.1466131
  19.0703547  78.7995243  49.6360922  67.4281031  81.5010732  90.3247782
  67.5233681  82.0330208  91.1148348  68.0636699  81.8685191  89.7105560
  64.8026706  27.3922823  95.0946987  64.8569978  27.9505251  95.8703552
  63.8639570  27.2704314  94.9525702 109.5756246  14.1501522   7.0884675
 109.7194309  13.6162376   6.3071311 110.1016582  13.7276268   7.7674323
   6.6174942  26.9096541   3.8314632   7.3226988  27.0111847   3.1922373
   6.7516720  26.0362506   4.1994205  19.8776960  59.6083355   6.1207348
  19.9886167  58.8066196   6.6317880  18.9761531  59.5662975   5.8018535
 104.6724804  34.1886497   3.5216007 105.3801949  34.7003984   3.9133686
 104.3793841  33.6082292   4.2240530  20.9253740 107.7866554  49.2328787
  21.1266947 107.3517036  50.0614452  20.2305126 108.4077740  49.4510746
  11.9538093  33.6120963  11.7424929  12.6475692  33.6234021  11.0830998
  12.0340502  32.7544427  12.1598947   8.0214047  86.0726738  29.9435782
   8.7389821  85.5793095  30.3409433   8.0460429  86.9244194  30.3796577
  44.3035126  36.5883112  10.4081202  43.5502815  36.0282135  10.5956328
  44.1802740  36.8587518   9.4982266  24.6286368  70.4883480  30.7547474
  24.2824364  71.0327005  31.4618945  24.5006514  69.5900011  31.0594225
 117.7647214  87.3277950  11.8395925 118.4461728  86.9344711  11.2944794
 117.0261529  86.7224884  11.7736363  40.5444754  31.7738055  89.2480609
  39.8460783  31.2664889  88.8344100  40.6651081  31.3619898  90.1036832
 112.7229203  72.2000647   3.3927819 112.0081426  71.6061306   3.1635043
 112.5884445  72.3894358   4.3213749   5.6144989  96.0463810  10.7456744
   5.2749223  96.5431213  11.4901030   5.2098447  96.4549828   9.9804729
   9.7258610  57.1225166  43.4757805  10.3911722  57.6657915  43.0533552
   9.4493741  56.5094805  42.7946186  66.1373706   7.1200085  22.5280643
  66.4334007   7.8395569  21.9705272  65.5928512   6.5809083  21.9543886
  18.9869356  66.1413765  13.6199093  18.4780920  66.1925983  12.8107822
  19.8777843  66.3734770  13.3577096  13.0118215  50.9883261  15.2243316
  12.3319352  51.6378927  15.4033720  12.5897765  50.3530598  14.6459329
   9.5013624  42.3283720   0.1160842   8.6156684  42.5366020   0.4134380
  10.0274348  42.3230791   0.9157407  41.7200470  64.7424555   1.5842360
  41.2965012  63.9167786   1.8189681  41.7044210  65.2574730   2.3909247
 102.5290854  51.7093658  53.0641603 103.3889599  51.4185286  53.3679008
 102.6440425  52.6407814  52.8757858 101.3557542   7.4764155  89.5105132
 102.0645369   8.1118201  89.4099256 101.8007101   6.6341637  89.6046272
  61.3586617  54.0282154  25.8008122  60.7000971  53.7392330  25.1691341
  61.7486048  54.8058367  25.4014635 110.9950311  30.5657387  18.7565017
 111.6392679  29.8578453  18.7651610 110.2203949  30.1897407  19.1745865
  21.9607997  51.0564280  10.2372849  22.1156096  50.8991432   9.3058735
  22.3395991  50.2941561  10.6751096  10.4167926  63.5154390  53.9007902
  10.5223119  64.3733931  54.3119001  11.0674787  63.5045385  53.1988525
   2.2474094  22.9240441  41.0646820   1.5787069  23.5445976  40.7748842
   2.9743886  23.0535531  40.4556179  30.8224654  60.1781702  36.9548059
  30.5899644  61.0742569  36.7114925  30.3307128  60.0131702  37.7592850
 105.5431951   5.5080841  53.4030369 105.0704039   6.2042139  52.9468563
 106.1016358   5.9685086  54.0294388  48.3778858  69.1131163   3.5952517
  49.0544176  68.8165522   4.2040148  47.6053619  69.2496681   4.1436943
  35.9717897  96.7896455  95.4077554  36.8846557  97.0533460  95.5233806
  35.9991169  95.8329814  95.3910334  37.4084783  59.7275925  17.9184234
  36.8959069  60.5228806  17.7734613  37.2872806  59.2154694  17.1188772
 117.2835036  34.7860146   8.2643479 116.7969240  34.4797087   9.0296257
 117.6037026  35.6524968   8.5151708 112.3578395  50.8654404   2.8082246
 112.6385583  51.7785692   2.8683823 111.5851749  50.8148336   3.3709502
  45.2188063  49.4248199  27.4679494  45.2158356  48.7717199  26.7681766
  45.9853554  49.2050552  27.9974222 103.0732913  96.1854362   1.1792675
 102.3891790  95.5526161   1.3978241 103.0666073  96.2246418   0.2228942
  88.2402975  14.9588011  79.8636356  87.9822225  14.9554537  78.9418879
  87.4658180  14.6447943  80.3303411 107.8287931  86.7337132   2.0209269
 107.5187619  85.8786106   2.3191133 107.0330138  87.2029972   1.7704554
 108.1845732  66.5198326  23.5578847 109.0555580  66.1269188  23.6147690
 108.3170874  67.4336052  23.8102460  28.6419296  83.9253521  19.2977297
  28.3543468  83.8613129  18.3870006  28.9472961  84.8278713  19.3895781
   8.2720929  58.8151741  18.4380686   7.4608827  59.3225908  18.4116971
   8.4469503  58.6913872  19.3709850  15.0563085  51.9782734  16.7079592
  14.7209859  51.8451357  15.8213556  15.5830789  51.1987734  16.8843687
  15.4814315  80.9508514  20.8520603  15.4942250  81.6182518  20.1660252
  15.7116163  80.1388168  20.4005599  73.0344970 110.1649659  93.0360174
  72.8515107 110.4335254  93.9363637  72.7005131 109.2696374  92.9805669
  69.8820121 107.9128593  87.8982356  69.2327148 107.2170680  87.7956650
  70.0079090 107.9854005  88.8443431 106.1020692  95.5345058  26.5272999
 105.6025512  96.2743282  26.8728018 107.0011814  95.8580017  26.4709401
   8.0874658  54.5518303   6.2382156   7.1494913  54.3637419   6.2707573
   8.2117122  55.2603769   6.8696868  34.4162154  89.1714954  18.9460719
  34.0068197  89.5047283  18.1475830  34.4554377  89.9294186  19.5293796
  12.4558103  40.8855343  13.7684631  12.5948095  41.5246534  14.4673467
  11.9450474  40.1882219  14.1796911   6.6279304  51.5532970  12.3741293
   6.1802119  51.0077286  13.0207658   6.3204259  51.2246037  11.5293598
  11.9721746  38.9940023  15.7611394  12.6407969  38.3558416  16.0099924
  11.6332328  39.3228126  16.5937459  94.3326176  24.2226885  80.4285958
  95.1085008  24.0930079  80.9739581  94.3470491  23.4895466  79.8133507
  34.8457551  50.7119846  17.9421031  35.2033520  51.2800312  18.6245084
  34.0633941  51.1699724  17.6348770  22.5015616  37.2893453  37.0200753
  23.4219265  37.3634362  37.2724032  22.2347093  38.1868482  36.8213010
  80.5998260  96.5799659  85.9849813  80.9130270  96.0469716  85.2541903
  79.6513063  96.4513725  85.9859755 108.8180126  30.5376814  77.9405358
 108.3820642  31.2501524  77.4730173 108.1045402  29.9680708  78.2281616
  37.5904775  67.8402519   7.5615394  37.4197125  67.5922537   6.6529322
  38.1981182  68.5771608   7.4985224 116.8033960  21.4084244  24.7283363
 116.6745773  22.3562813  24.7630858 115.9547828  21.0613012  24.4533968
  87.9804946  22.2139834  76.5343955  88.3752699  21.8972634  77.3468438
  88.2473297  21.5750645  75.8734777  34.0552152  27.3667334  92.1602392
  33.8326229  27.6429461  91.2711987  34.9046482  26.9345663  92.0711744
  12.7761734  72.9816341  23.4736848  11.9894981  73.2825089  23.9284921
  12.8921282  73.6057711  22.7572751  33.4449434  45.9483337   8.7895751
  33.0361533  45.3707838   8.1449372  33.7620974  45.3579617   9.4730288
 113.7503461  68.5250711  29.2204976 113.0443163  69.1706944  29.1900969
 113.3018725  67.6833773  29.3020844 109.9368639  35.1361680  29.8771000
 109.8847486  34.4946265  30.5855775 109.8744555  35.9841275  30.3167582
  32.3168540  47.8576326  45.8698034  31.8437123  47.1790457  46.3513517
  32.5219417  48.5204411  46.5292358 108.6797877  17.2194946  18.1020653
 108.4330411  16.3098288  17.9351664 108.6790974  17.6303303  17.2375154
  14.0979338  49.1731405  19.5850289  14.2505515  50.1153851  19.5135462
  13.2347167  49.1005373  19.9922347  31.1204958  34.9073076  18.8533509
  31.6962862  34.2061019  19.1583228  31.3520527  35.6606579  19.3965614
   7.5352073  92.9232311   7.9761374   7.5820106  92.0286083   8.3133358
   6.7089725  92.9544926   7.4938613  21.3728952  22.5391197  29.1531372
  22.1113372  22.8828979  29.6558833  20.8185911  23.3021474  28.9895320
   1.4839017  67.3845339  12.3795271   0.6258872  67.0125914  12.1753156
   2.0194747  66.6303205  12.6256156  32.3704767  65.3106833  21.6646838
  32.0227313  64.9319458  22.4720645  31.5971541  65.6188774  21.1922240
  28.8146281  54.5964193  23.3077741  28.2919979  54.5024061  22.5113726
  28.1838560  54.8574257  23.9787698  89.7848047   7.7667378  69.5795205
  89.6650291   7.9843376  70.5039313  89.5048822   8.5526512  69.1102460
  20.4149199  41.2117290   6.9340700  21.1217546  41.5006113   6.3568676
  19.8359764  41.9709444   7.0022726 118.0648125  18.5877894  69.2680791
 117.7816356  18.1060265  70.0452211 117.3145712  18.5478924  68.6749700
 112.7122606  25.7178402  42.4548340 112.4146326  26.6167641  42.3148918
 113.3969603  25.7929730  43.1194973 109.2215289  32.0903776  95.3260499
 109.8623742  32.1917723  96.0298034 108.5938872  31.4514921  95.6638637
 106.4686675  98.8486958  15.5788779 106.1656399  99.7499275  15.6893098
 107.3495944  98.9351559  15.2145624  56.4247573  12.3200987  95.4662628
  56.1206544  13.0697535  94.9546219  57.1014203  12.6801012  96.0396355
  28.1982559 108.9277070  86.4905682  28.3563608 109.5454257  85.7766655
  27.6173431 108.2677882  86.1120453  12.2408068  80.6232452  18.9174044
  12.0186996  80.1481438  19.7181392  12.2367537  81.5446568  19.1766703
  17.6565409  44.6218252   4.2301482  17.8048122  45.0664091   3.3955267
  17.2078204  43.8103056   3.9928415 110.4747427  23.8528631  95.9054566
 110.5514730  24.8009203  96.0128569 111.0620678  23.4884880  96.5676595
 117.5758933  70.5153561   0.0281532 118.3444937  69.9660206   0.1821527
 117.7548458  71.3196468   0.5153113  10.9503555  27.6724339   1.8907879
  11.3417399  27.4695325   2.7404240  10.1900506  27.0937896   1.8330036
  81.6029341 108.8219684  88.5887256  81.1299640 108.1338161  88.1207749
  81.6840774 109.5322126  87.9521748  99.0192659  80.0702286  22.0858216
  98.4046228  80.5579376  21.5375686  99.1148563  80.6058884  22.8733277
   3.9561114  37.7737904  38.6295128   4.6541810  37.8039980  39.2837429
   4.1147488  36.9622970  38.1472850 100.1692475  12.7065466  88.8084873
 100.9372080  13.1592654  88.4598985  99.4337643  13.2782315  88.5883185
 111.3350297  54.2080688   6.2812829 110.7780029  54.5462084   6.9824374
 112.2060902  54.5510483   6.4809114  67.0925808  64.1087151   1.5831701
  66.9204855  64.7425604   0.8868542  66.8235922  64.5556545   2.3857416
  24.3195367  31.0777068  31.9890594  23.6574769  31.0133219  31.3007569
  24.0848660  30.3900504  32.6121902  17.8914666  64.1799402  30.1701450
  18.1575119  64.2855740  31.0835409  17.1594203  63.5641336  30.2035880
  94.7601140  32.3560999  89.1897181  94.1119982  33.0060099  89.4613579
  95.5533923  32.8646944  89.0215859  18.0510104  67.7283144  45.5155373
  17.9964638  66.8018627  45.7499456  18.0441809  67.7339983  44.5583820
  19.3083918  76.6697884  32.6251101  19.7704518  75.8625555  32.3990512
  18.9159942  76.4899397  33.4794569  50.6483698  50.7786989  13.7545979
  51.0725832  51.4522552  14.2862022  49.8260212  51.1790514  13.4723008
 104.0858067  18.7949608  75.2456739 103.2288898  19.2213820  75.2551964
 104.3827904  18.8743685  74.3391827  16.0613835  58.2138109  40.8481073
  15.8237195  57.3579454  41.2048244  16.3163257  58.0337429  39.9432278
 114.8374761   8.3442496  90.3693804 114.7867406   7.8024529  89.5819089
 115.4994095   7.9161976  90.9123781  98.1902261  57.9970551  25.7314324
  98.1630440  58.9478636  25.6244135  98.5140856  57.6706934  24.8918891
 116.1383085  94.3381691   4.2722556 115.5312689  93.9140224   4.8787528
 115.7588369  94.1845608   3.4070164  52.1978998  45.0549603   9.6117562
  53.1032896  44.8278809   9.8237330  52.2257805  45.9910822   9.4139588
   6.5542054  57.0128918  16.9239044   7.4056578  57.2066975  17.3159528
   6.6047704  56.0868311  16.6870916  18.0757785  59.8369312   3.5763800
  17.2186899  60.2423286   3.7078524  18.5763097  60.4887772   3.0856639
  12.6482189  81.9286633  30.5657268  11.6960216  82.0148277  30.5196095
  12.9239595  82.6306057  31.1551952   9.6020484  65.7453108  22.0816278
   9.1782844  66.6022873  22.0341778   9.1613239  65.2227545  21.4116073
  88.7040979 106.0688298  92.9814505  88.7086803 105.7384103  93.8798010
  88.3322508 105.3537267  92.4651262 116.2891617  46.1973095  39.7904444
 116.8979870  45.9673882  39.0885186 116.7589350  45.9801292  40.5956650
   9.5384365  91.4146900  22.7608752   9.7242928  90.4768467  22.8071213
   9.8566091  91.7632580  23.5936379   5.9652740  83.3960342  37.1220350
   6.5323669  84.1080379  37.4181533   5.0810999  83.7601280  37.1656275
  30.5027366  46.5151882  35.3516579  29.9522948  45.9706879  34.7888374
  31.3164377  46.6227245  34.8591590  43.4772370 108.0893748  76.7789760
  43.2576135 108.7208980  76.0940078  44.1585640 108.5217374  77.2938457
  47.3838520  74.3512535  12.1201766  47.2204971  73.9822531  11.2521982
  48.2266665  73.9813328  12.3829544  27.1321917  91.6346169  29.5135045
  26.9938493  91.1644936  28.6912632  27.3921967  90.9560585  30.1365519
 116.2168574  32.6866150  34.9285150 116.0165650  33.1209397  34.0993714
 117.0455802  33.0753207  35.2084398  92.0293499  18.5624741  95.3965218
  91.5626396  17.7439640  95.5652048  92.1890427  18.5570143  94.4527528
  25.7585907  60.8570099  26.8134165  25.5623794  61.5504932  27.4433494
  24.9127102  60.6461620  26.4181185   8.4716046  76.1948824  33.8914108
   8.4332341  77.1390295  34.0442109   7.5685811  75.9475756  33.6923671
  14.3260825  85.5451393  20.3055811  14.6309078  84.9520206  20.9922552
  14.4781566  86.4209366  20.6606793  16.2791312  78.0294704  38.6538315
  15.4749584  77.5523329  38.8584685  16.1091352  78.9236021  38.9502478
  17.0893443  57.2509432   3.9782450  17.4859095  56.5280819   4.4644931
  17.8311086  57.7891016   3.7018371 116.3360060  35.2573965  91.4412036
 116.3328780  35.2350424  90.4842695 115.9562291  36.1077975  91.6621581
   2.4729937   9.7241734  61.4006522   2.8145712   9.7425984  62.2946432
   3.2127398   9.4329356  60.8675626   1.3048844  63.7747288   8.9025491
   0.7780573  64.4881916   8.5424685   0.9628843  63.6474705   9.7874629
  59.2531490  58.4899712  10.0311494  59.7674894  59.2969990  10.0114346
  58.5569477  58.6650610  10.6642950   5.3256720  43.8278578  90.5316922
   4.7388857  43.2806109  90.0097373   5.7093304  43.2265662  91.1700389
  19.2708409  75.5492020  22.9426098  19.9861705  74.9357462  22.7746487
  18.5727322  75.0079393  23.3112717  54.0191752  90.9794753  92.0015371
  54.6571273  90.7796257  91.3164756  53.6358375  90.1317352  92.2265234
  26.1904740  46.0318899   5.6631470  25.3931522  46.0277367   6.1927634
  26.8994236  45.9212780   6.2966990   5.0182962  70.5093908  18.3644950
   4.9811977  69.5581245  18.4642005   4.3114108  70.8362913  18.9209855
 115.0159157  30.6654547  90.5180195 115.1260365  29.9383066  91.1306807
 114.0810717  30.8682154  90.5524948   7.0961463  70.1036310  14.7736526
   7.5837195  69.7753286  15.5291128   7.6089996  69.8211288  14.0164173
 111.1162675   4.9575566  92.1626076 111.4591373   5.1602457  91.2922129
 110.1686491   4.9015425  92.0396703  62.4383307  71.9277859  16.5577805
  61.9288921  71.3859463  17.1603727  61.8190956  72.5887871  16.2481749
  37.9086351  95.2427673  15.7902837  38.3005571  95.8689499  16.3989842
  37.9174590  95.6924629  14.9453425  13.8662195 104.1316891  25.4862618
  13.9020753 104.8817825  26.0798120  13.2932127 104.4166851  24.7744536
  38.1262231  83.3921432   2.6214886  38.2825470  82.8988266   1.8162335
  38.5297918  82.8624153   3.3090594  31.1902714  64.3810129  18.4951246
  30.5248237  64.0282536  17.9043853  30.7217407  64.5438051  19.3137884
  13.7231719  90.6393433  27.9133511  13.9751017  90.7170105  28.8335323
  13.6157393  91.5432549  27.6173258  39.5075154  69.3834686   6.4855719
  39.8436880  68.9676046   5.6916726  40.2426291  69.9006939   6.8146932
  12.3968256  64.5563412  10.2561843  13.2677627  64.4394302  10.6357002
  12.2261858  63.7371683   9.7913522  31.0633445  52.9073715  11.5762246
  31.5173960  52.5155497  12.3222446  31.7255473  52.9459286  10.8861279
   3.1401241  30.4959798  26.4043140   3.6767372  30.3763199  27.1878695
   3.6643705  30.1227903  25.6957054   9.1293520  64.8682690  36.1400723
   9.2029703  64.2080021  35.4509735   9.7140747  65.5726099  35.8603668
  21.4993358  98.6884308  14.2317915  21.8589854  99.0644932  13.4283853
  20.7654929  98.1494999  13.9363801  67.6387650 106.7509311  94.3057470
  67.9295069 107.1947139  93.5090306  67.3589165 107.4590533  94.8858154
  27.4429941  62.0471239   3.2088155  26.7383909  61.9998598   2.5626504
  28.0670714  61.3761282   2.9321787   0.2632689 109.2712307  40.3646088
   0.5180212 108.5808372  39.7524858   1.0853717 109.7063732  40.5905008
  87.4205155  33.2255171  88.6632594  86.4731694  33.1239413  88.5713312
  87.7858467  32.4351977  88.2655588  69.5238031   8.8545082  71.8624022
  69.1001005   8.6506317  72.6961544  68.7993778   9.0361880  71.2637094
  34.7301960  42.4607658   3.4935871  34.9863338  42.5735235   2.5782126
  35.5531478  42.2967672   3.9541170  14.0050471  60.9929752  24.7483611
  13.4669816  61.4739752  24.1195893  14.6524012  60.5372095  24.2103577
 115.4575713  67.9195213  31.1798573 116.2507875  67.6744795  30.7034159
 114.8119865  68.0959225  30.4955077  12.2020984  75.5737686  25.9204125
  12.4205172  76.2639189  25.2941370  11.4663994  75.9278059  26.4200473
  35.5734015  80.3294945  13.4474838  35.8443427  80.9264565  12.7500165
  36.1123848  80.5781746  14.1984081  17.7103853  56.4966249  18.1097245
  18.4671235  57.0539093  18.2914114  17.0288384  57.1043110  17.8226042
  24.9245667  98.5014725  14.1857219  25.2016473  98.9270115  13.3743191
  24.6906567  97.6116276  13.9217174  85.5125542  53.2821941   4.1755497
  86.4232154  53.2564974   4.4692656  85.5692978  53.4363556   3.2325515
  33.2125020  50.5091619   9.5938861  33.6688709  49.6686792   9.5546079
  33.7115383  51.0232401  10.2286470  24.0814304  59.3158007  35.0799179
  23.8115358  59.9396467  35.7538676  25.0336218  59.4045734  35.0388932
  51.3542557  41.1617136  17.2103417  51.5539646  40.4388142  16.6155601
  51.9175863  41.8771744  16.9153690  21.7691231  83.7995052   1.9921738
  22.2185421  83.2607269   1.3410395  21.8065906  83.2832146   2.7973276
  15.5869931  25.0143908  95.8341763  16.0813778  24.9837015  96.6532443
  15.5212372  25.9470080  95.6289048 104.0650971  40.6235027  18.0624068
 104.3859799  40.5957031  18.9637911 103.1253083  40.7840538  18.1475687
  37.4333525  79.5597935  17.9165733  36.9262218  79.3198538  18.6921239
  38.1436467  80.1054192  18.2542276  43.3538961  51.5975666  21.9377542
  42.4583244  51.6131020  21.6002011  43.6693430  50.7158613  21.7394447
  29.0949059  98.1919003  28.9715695  28.8029575  97.9471397  28.0934525
  29.5049715  97.3990917  29.3173027  24.2574375  37.6273344  91.0362890
  24.8794192  38.2742117  90.7032379  23.9678829  37.1507738  90.2582916
  28.8269496  93.1816006   3.2637736  27.9546261  93.0918694   3.6474800
  28.9250731  92.4081421   2.7084780  17.2967601  45.8506489  32.8265262
  17.0370317  46.2556744  33.6540079  18.1415665  46.2500572  32.6191378
  17.7886796  76.6732836  34.8392487  17.0172441  77.2188616  34.9924278
  18.4949577  77.1209335  35.3050923 110.3220070  39.8360823  91.0774591
 110.0514091  40.0617789  90.1874760 110.3501357  38.8793181  91.0838744
  15.8829451  91.9935513  13.0861616  15.0175703  92.4013519  13.1186163
  15.7063389  91.0535622  13.1243455  37.0788360  59.7365761   7.3464859
  36.5811038  58.9922380   7.0081758  37.4144459  59.4362640   8.1911236
  24.9355286  25.3216742  79.9185148  25.6357973  25.9566782  80.0689366
  24.9049395  24.8038100  80.7229474 113.0795921  18.1103943  78.5267618
 112.2058571  18.4977148  78.5797110 113.0271257  17.3255537  79.0721980
  24.7466254  76.6961813  26.9575429  24.2032290  76.3720131  26.2393045
  24.2773604  76.4347076  27.7497864  11.6135609  85.1009655  14.1852701
  11.2533748  84.2900562  13.8262212  11.0945964  85.7945251  13.7779856
   9.2452657  54.1664219   2.9219481   9.5927083  54.2112732   3.8127366
   9.9646175  54.4708157   2.3686774  20.0564974  13.6425732  88.8240704
  20.2508801  13.4024285  89.7300383  19.8182123  12.8165530  88.4031889
 117.4298199  54.2613506  15.8303690 116.9242334  54.8640776  16.3756490
 117.6185130  54.7590113  15.0347829 103.4420748  65.0322104  31.0512018
 102.8151353  65.5720901  30.5698419 104.1857631  64.9401712  30.4556465
   7.8711575  56.0520697  13.8614118   7.2400445  55.3763294  13.6138117
   8.6919737  55.5771017  13.9914048   9.6367061 107.4808025   8.4766364
   9.4704342 106.6283131   8.8789469  10.5663991 107.4612808   8.2496506
  20.0529361  73.7286139  27.4320936  19.3539822  73.2071733  27.0373821
  19.6396768  74.1531229  28.1839156  13.4486938  58.5088253  12.9329252
  13.7899613  59.1370630  12.2964609  13.4890664  57.6653433  12.4822080
  35.0647402  46.4562893  28.8203907  35.4053116  45.8117485  28.2000613
  34.7716713  47.1844196  28.2725191  32.5780218  28.8526247  93.5888219
  32.8358238  29.6547316  93.1345230  33.0065792  28.1512354  93.0982917
  22.6837420  87.9232025   4.5378181  21.9408178  88.5157394   4.4229093
  22.6237488  87.3177624   3.7988564  40.5363655  54.9352121  15.6665576
  41.0886192  55.5284071  15.1572752  40.6262112  54.0889263  15.2284265
  13.4081078  93.0675983  12.9632318  12.7491724  92.3902893  12.8106391
  12.9283500  93.7762070  13.3921206  38.8757086  92.1294594   1.8157767
  39.0676212  91.3183117   2.2863531  37.9698992  92.0281696   1.5234037
  68.4680421 107.9739135  78.0618968  68.8771588 108.3776801  77.2965017
  67.8468138 107.3437446  77.6969436  70.3206260  98.5520070  71.8275097
  69.6959955  98.1259435  71.2405351  70.8665425  99.0854829  71.2499216
  10.7761657  27.9015279  58.4355259  10.3712440  27.7476478  59.2891026
  11.7170525  27.8892779  58.6110687 116.0809348  70.4445457  44.9765396
 115.3993396  70.4585361  45.6484509 116.3115938  71.3649035  44.8501539
  14.6900618  84.1338158   4.1895986  13.8828921  83.6532307   4.0059000
  14.9386787  83.8562775   5.0712973  10.7991183  92.7757263  18.5407960
   9.9695230  93.2300758  18.3939183  10.5446911  91.9085407  18.8562036
   7.1680641  75.9164953  13.0220258   8.0225420  75.6739950  13.3788085
   6.9294155  76.7146254  13.4934759 115.7559980  17.1016548  93.8692385
 115.4346193  17.1589945  92.9694274 115.0310029  16.7123316  94.3581582
 106.3860096   7.1694754  78.0518654 106.6398729   7.3406838  77.1449628
 105.4317058   7.2439049  78.0515793  96.1879159   9.9555062  94.4739464
  96.1055804  10.9091566  94.4723204  95.3830935   9.6449087  94.0591897
  79.5683670  60.7404661   2.1212849  78.7585735  60.3910112   1.7493327
  80.0318146  59.9708748   2.4517155  22.2462106  22.1863723  14.5137477
  22.4534345  21.5016222  15.1496768  21.6905904  21.7519999  13.8665700
   7.8474844  92.5354385   3.4148413   8.4757340  92.1692848   4.0373081
   6.9911039  92.3125076   3.7797305  22.5995987  18.2620762  95.3940835
  22.2972458  19.1498707  95.2027014  22.8013962  18.2742546  96.3296914
  13.9654541  79.3678379  30.5812263  14.7748017  79.6347713  31.0170412
  13.6786079  80.1495266  30.1090932  29.0230298  57.3189020  12.4298918
  28.1094694  57.0595169  12.5497019  29.0753865  57.5958300  11.5151227
  54.5803261  80.5605125  22.8843188  55.1779509  80.5675507  22.1366358
  55.0347424  81.0651493  23.5589147  12.3096192  81.2481022   8.0641353
  11.9543409  80.6414986   8.7137794  11.8244970  82.0611382   8.2050985
  46.9758654  49.5615625  41.4348507  46.9960070  50.0672722  40.6223965
  46.9039059  48.6510372  41.1484909  61.5092182  57.6249361   6.5350586
  62.0863771  56.9464302   6.1847025  61.6101837  58.3606052   5.9310472
  50.7738161  64.3727541  12.1552789  50.2761602  64.5647907  12.9500699
  51.0090876  63.4485626  12.2374451  23.2177973  47.5536060   6.9052947
  23.7051535  48.3772945   6.8892193  23.7298369  46.9835091   7.4789101
  38.1724024  64.5540571   9.0140098  38.8997579  65.1679277   8.9122915
  37.3967528  65.1108503   9.0816998  23.4516287  58.7234783   1.7451404
  24.0156054  58.9639950   2.4802008  22.6411486  59.2099142   1.8959232
  18.6785877  53.6339903  22.7063704  18.4491527  52.7126312  22.5851631
  19.6090961  53.6800051  22.4866724  40.7437372  67.8747463  13.6715937
  41.2994671  67.3020935  13.1429505  41.3410664  68.2667160  14.3086076
  66.7623359  78.9471214  85.6040326  67.4886615  79.5533961  85.7493487
  66.4874799  79.1143363  84.7025195 110.1522363  12.8344248  69.7017005
 110.1718701  13.3776902  68.9138487 109.2796482  12.9762314  70.0687316
  59.5281172  26.1496568  32.5336123  60.4482555  25.9061408  32.6349854
  59.4490385  26.4103246  31.6159916 101.3322557  21.4745615  95.7306385
 101.7016924  21.8364857  96.5360940 100.3878368  21.6004513  95.8226084
 108.5428298   4.6782492  91.4231583 108.5224451   4.5728873  90.4719940
 107.6475657   4.4893263  91.7043042   9.4470501  40.2128553  21.7892218
   9.0048885  39.5677876  21.2373018   9.6314925  40.9451151  21.2010002
  44.7163916  58.7535095  26.0922122  45.2706337  59.2038345  26.7295909
  43.8240623  58.8954067  26.4082026  80.1400928  32.3358534  91.6209966
  80.8460311  31.7349337  91.8592682  79.3481581  31.7990588  91.6513014
  32.1517277  89.2076969   7.8722972  31.8772244  89.0196037   6.9748026
  32.7659583  89.9368668   7.7870536  59.7901535  55.6705236  31.2862468
  59.5815802  56.1788654  30.5024600  60.6240129  55.2470970  31.0822320
  72.0506651  39.3476580  94.8443848  72.7219487  38.8172625  94.4150942
  71.4447720  39.5820521  94.1414004  40.0552559  85.8095741  18.5567272
  39.5620799  86.1522770  17.8113651  39.5640230  85.0361443  18.8337302
  35.5268264  71.3593435  16.2884963  36.0230327  71.7296696  17.0184767
  34.6814632  71.1218643  16.6695428  33.3220220  84.4683075   6.6641450
  33.1884456  84.1377354   7.5524670  34.0486908  83.9478397   6.3216525
  64.6876532  91.3715881  87.2310051  64.9077780  90.8776086  86.4412203
  65.3113753  91.0628932  87.8882047  42.9499865  77.6899624  14.6600294
  43.4686756  78.1926346  14.0319240  42.5457621  78.3519125  15.2209771
  29.3432355  72.3231077   1.5797907  29.2634487  72.1292257   2.5137478
  30.0337148  71.7362404   1.2714759  65.5103302  39.6933126  22.1475530
  65.9544134  39.6806288  22.9954100  65.9975100  40.3357029  21.6315889
  14.4949579  98.9318466   3.9853156  14.0371728  98.1056118   4.1402510
  14.5210302  99.3557358   4.8431432 109.4061054   7.8665112  91.0417315
 109.2664827   7.0236443  91.4733663 109.6290339   8.4661911  91.7537138
  91.8461228  32.9904269  70.3430989  92.0278395  32.0866011  70.6006268
  91.4521743  33.3863638  71.1204436  58.2233095  77.6772451  15.0502181
  58.2743311  77.0426273  15.7649851  59.1355562  77.8896952  14.8529804
 108.1854094  51.3896845  86.2634793 108.2709039  51.3123987  87.2137156
 107.7168621  52.2138499  86.1314025   8.9825934  51.7464255  96.1015319
   8.5857409  52.6137064  96.1824822   9.8359698  51.8329142  96.5263825
  12.3555052  97.6767540  32.7494407  12.0845425  97.1584988  31.9916630
  13.3099544  97.7124119  32.6863098  93.3063234  43.9289854  88.4395829
  92.5452865  44.4995879  88.5466984  93.9827848  44.4982909  88.0727979
  51.2557316  74.0340662   4.1507113  50.7294846  73.8449430   4.9275839
  50.9387159  73.4174728   3.4907556  60.0616169 103.8910770  24.3662405
  59.5387745 104.4374180  24.9530864  59.5295286 103.1068707  24.2315936
  49.0876198  52.1810913  26.0269785  48.7150002  52.8811407  25.4909587
  49.1203833  51.4236403  25.4426622  34.5245695  79.3501663  16.1980939
  35.0475073  78.8347721  16.8122101  34.7974277  79.0420866  15.3338778
  16.5633333 109.1943645  64.8020458  16.2519193 108.5773945  64.1397715
  15.7663167 109.5156956  65.2236414 101.1020053  28.9900587  67.3432353
 101.4794768  29.7961615  66.9911721 100.6572236  29.2642115  68.1452587
  52.4463320  73.4322262  28.1119847  52.5654173  73.2789278  29.0492940
  51.4970350  73.4421778  27.9896283  38.4634137  76.9493914   1.6281703
  37.9425669  76.7588758   2.4083310  38.2228279  77.8453875   1.3924925
 105.0638093  13.0640887  93.6191782 104.5656670  12.2600697  93.7662959
 104.3974675  13.7343167  93.4674883  33.2318544 100.3665543  33.6373448
  33.1831670 101.2904930  33.3919835  32.3417282 100.1439190  33.9099908
  14.8782694  95.1264954  53.0810452  13.9393222  95.2972984  53.0073166
  14.9423730  94.1757488  53.1716251  87.4072868  10.0695377  36.3246131
  87.6470167   9.4647460  35.6224775  86.9732839   9.5194678  36.9767570
  17.5919628  69.0960550  20.0256085  17.5938141  68.2007504  19.6869922
  18.0103326  69.6132898  19.3373752  26.0569644 101.4010429  23.0866122
  26.8556762 101.2223434  23.5829568  25.3725100 101.4726543  23.7519145
  17.4666381  93.2216358  25.9202266  17.8970540  92.4110413  26.1920762
  18.1573236  93.7277126  25.4923558  12.5979388  88.2594490  32.8974938
  12.3128128  88.2974720  31.9845390  12.5239968  89.1614246  33.2092738
  30.3387880  73.9731932   9.8956186  31.0090733  74.5915508  10.1864541
  30.0523019  74.3119144   9.0474296 115.6754650  18.6343144  87.9716900
 115.3808177  19.5210551  87.7640638 115.6545461  18.5926817  88.9277556
  86.8121177 107.3877471  95.5484578  86.0361940 106.9954723  95.1480803
  87.4454004 106.6715234  95.5955037  52.2803194   3.0703979   9.4972706
  52.8203375   3.5986285   8.9094055  52.6891357   3.1746535  10.3564763
  42.9015207  99.1787815  13.0803907  43.0081224  98.2440186  13.2567012
  42.8831911  99.5853615  13.9467549  33.5247469  85.5233765   1.9869192
  34.2899203  86.0833549   2.1179350  33.1335711  85.8390617   1.1723316
  31.3470364  93.4513664   1.0114704  30.6749701  94.1291142   0.9392367
  32.1740222  93.9221191   0.9079299  19.5654643  69.9549770  15.1156044
  20.4732490  69.6827650  14.9812210  19.2271674  70.1048326  14.2328072
  73.3043296   3.9192443  12.5361037  72.7584440   4.3648677  13.1839108
  72.9356105   3.0378299  12.4778199  20.2519488  70.2749538  30.6943274
  19.3522954  70.0265312  30.4818606  20.6880498  70.3448105  29.8451114
  94.7525717  33.9106844  92.7727055  94.3862892  34.7495554  92.4927577
  94.0061511  33.3114527  92.7726349 102.3854466  96.5406990   5.4369169
 102.8898342  97.2695160   5.0754595 102.3200960  96.7350578   6.3718951
  53.4233994   8.5237937  42.9544163  52.8184826   8.0430846  42.3894072
  53.8620288   9.1392188  42.3669720  81.1419565  11.4674049   8.7247616
  80.7284481  12.0209556   9.3872058  80.4698021  11.3556628   8.0524868
  66.3565922  58.4490347  24.2837191  65.5993414  58.5029459  23.7007189
  65.9913063  58.1798649  25.1265383  52.9210234 100.6119442  47.4634504
  53.5038662 100.8609295  48.1807613  53.1084585  99.6853924  47.3131466
  75.3811407  93.4082222  12.5455105  74.9848652  93.0026150  11.7743540
  76.1702824  92.8917217  12.7089500   3.1315201  53.7384699  94.4214171
   4.0551155  53.4873293  94.4100791   3.0185860  54.1984747  95.2532066
  29.7683304  25.2627371  71.3963821  30.4084271  24.6853827  70.9802559
  29.9689120  26.1320971  71.0496691  25.5815458  84.1260529  24.9046969
  25.8457112  85.0369740  24.7755980  24.7536087  84.1820812  25.3817844
   4.2918795  89.1810322  10.6439745   5.0956345  89.2173767  11.1625195
   4.2290664  90.0458717  10.2385855  44.5019644  11.7340468  86.1990800
  43.7720888  11.3404415  85.7209685  44.1546362  11.8948601  87.0764258
  26.6230583  69.6009207   9.6986771  26.9809008  69.6807003   8.8144732
  27.3858213  69.4304514  10.2512741  17.6394200 100.2168846   8.3451593
  17.9445851 100.3475571   9.2429513  18.4355187 100.2483273   7.8146225
  15.6092661  24.1051434  90.1950022  15.2580994  24.0132473  91.0807052
  16.4164513  24.6069907  90.3082582  37.4454594  53.9984035   5.4460019
  36.6419649  54.3693542   5.8107293  37.3341894  53.0518627   5.5349815
  29.5158124  85.1191998  10.3193748  29.8361945  85.7897282  10.9226751
  29.5641518  84.3043709  10.8193278  59.7046835  93.7067240  88.1162032
  59.8430211  94.4912356  88.6468991  60.4106552  93.7270563  87.4701199
  32.5335264  88.7089539  10.5170333  31.8591475  88.1218243  10.8586788
  32.3469591  88.7685204   9.5800817  29.2573023 102.8952026  31.8494248
  28.7519598 103.7068462  31.8951249  29.0768194 102.4536419  32.6792955
  78.3308220  68.6678171  17.8785813  78.2525015  68.0743742  18.6255217
  79.2729521  68.7336636  17.7227509  33.1554842  87.0697403  25.3189969
  33.2403040  86.7940331  26.2316990  33.7206078  86.4686108  24.8337030
  88.1011028  24.0137337  91.6334507  87.5218732  23.4199999  92.1111601
  87.5175799  24.6858977  91.2814256  51.5478945  71.6288996  19.0332496
  52.1558905  71.1060762  19.5559561  51.9667673  72.4869251  18.9656413
  33.9254808  59.9187803   9.6187115  34.6261954  60.5061913   9.3355483
  33.1556249  60.2118301   9.1311920  36.2420672  26.1393069  72.9174283
  36.1916893  25.1835821  72.9345706  36.9639796  26.3303946  72.3186305
  27.5460768  57.4985886  31.9780779  27.1630383  57.8688145  31.1828136
  27.3342228  56.5661573  31.9343185  46.8607569  98.3369923  35.3012586
  46.7907047  99.2841244  35.1818538  47.7211571  98.2089329  35.7006884
  12.7031624  71.8942547  30.6378841  13.0924344  72.6142502  30.1415968
  11.8267620  71.7935848  30.2663732  47.0186615  62.5630713  20.1740813
  47.0057392  61.6709423  20.5207396  47.7182674  62.5560856  19.5208299
 108.1482084  95.4676056  18.4379005 108.4711541  96.3483429  18.2475281
 108.7544830  94.8858738  17.9793632  30.4936910  34.7115350  14.6623242
  30.9184003  35.4554033  14.2351091  30.8493090  33.9435124  14.2152143
  29.6063113 107.0042419  42.0530796  30.3812885 106.9103718  42.6069975
  29.7826910 107.7823925  41.5242958  29.9802256  86.3057804  19.7274697
  29.4882703  86.2385082  20.5458117  30.8597469  86.0013103  19.9510229
  30.6225508  32.6421355  95.2960402  30.1281613  31.8226240  95.2818583
  31.2133187  32.5525568  96.0438378  31.4165902  81.5088081  23.6594486
  31.8195128  80.6551647  23.5007548  30.9668684  81.7173290  22.8406072
  19.6600056  78.4417820  17.3115170  20.0536299  77.5977945  17.0902169
  18.7211931  78.3103466  17.1788967  19.5288837  64.2737484   3.2826611
  19.7327662  64.2577696   4.2177591  19.7749054  65.1541901   2.9988900
  77.2726191  39.6568011  95.1442577  78.2061212  39.4818114  95.0251500
  76.8558320  38.7989615  95.0627866  94.1439039  20.7766681  10.4455650
  93.9542085  20.9365230   9.5210683  94.3674022  19.8468452  10.4869223
 116.7696446  69.1562986  40.1902676 116.2441836  69.2893076  40.9792089
 116.9037075  70.0371456  39.8404622  34.9222994 103.1982613   4.8901734
  34.7144461 102.2776890   5.0500977  35.2156091 103.2228470   3.9793512
  95.8147259  40.6084728   2.0920010  96.7470641  40.6603479   2.3024443
  95.4498048  40.0302315   2.7618545  20.3967285  67.2259188  55.0904226
  20.3627467  68.0461359  55.5826855  19.4856322  67.0493650  54.8559713
  24.8601866  64.8711157  18.5586965  24.6493506  65.7827997  18.3571661
  25.3776908  64.5738935  17.8103113  54.9470377  67.7905464   3.2670721
  54.0174294  68.0038023   3.1859052  55.0871372  67.0856094   2.6348794
   4.7035104  86.9690895  26.3158178   5.6080508  86.9855309  26.0031390
   4.7492623  86.5155983  27.1575356  50.5973339  87.5429916  13.6382246
  50.1205206  88.3082390  13.9595902  50.0318193  86.8010330  13.8525426
  14.1692322  15.2312468  75.3815916  14.9556225  15.6902836  75.0864509
  14.4755572  14.3534468  75.6093290  32.9015136  71.8934250  22.0374918
  33.8116026  72.0038652  22.3127604  32.9284668  71.9721842  21.0839176
  46.7966795  74.3747187   7.2031420  46.5178013  75.2802658   7.0673412
  46.8904972  74.0179777   6.3198715  82.1683473  15.6101559  91.7736465
  82.1528871  15.2183626  90.9004387  81.4386816  15.1963995  92.2347599
  23.2422495  90.1870441  12.4947071  22.6272631  89.4620895  12.3830533
  23.0753708  90.7601070  11.7463827  20.7776380  77.0484161  26.2407970
  20.1460695  76.9516420  26.9535303  21.2202024  77.8771925  26.4238238
 114.6946217  60.1994038  65.1287699 113.7392999  60.1400423  65.1370144
 114.9600242  59.6844769  64.3667698  30.9165645 100.9514713  30.3661990
  30.2972174 101.6258717  30.6451654  30.9650779 100.3490448  31.1084652
  23.6509228  67.8758192   4.9851742  23.9496589  68.2981205   5.7905614
  23.6772585  68.5700655   4.3267202  32.4931693 107.7119637  19.9456632
  32.6813889 107.0184898  19.3132913  33.1803727 108.3621120  19.7997701
  18.1901252  69.4357920  12.4870205  17.7256489  68.6284494  12.2663701
  18.8035572  69.5645618  11.7635906  74.3053818  81.6476059  40.3797865
  74.4831038  81.5629673  39.4430423  73.3649683  81.4884281  40.4604912
  42.7329063  73.4639883  13.7856281  42.6371241  73.0928040  14.6627128
  43.3301497  74.2028761  13.9021611  48.0943775 100.8768177  15.2881277
  48.7472343 100.9889412  14.5971572  48.5790014 101.0200691  16.1010563
 105.9079035  79.7544241   8.7661994 106.2331875  79.9114943   9.6526253
 105.9939118  80.6001186   8.3261526  38.3675790 110.3637981  16.5615332
  37.6770973 110.9892273  16.3417530  38.3785963 109.7510242  15.8262682
  40.9851789  90.4440212  19.5526290  40.2537298  90.6086349  18.9575505
  41.3967609  91.3003635  19.6688724   8.5084587 101.3949680  73.8789511
   8.3723861 101.1955833  74.8052120   7.7486813 101.0147953  73.4379911
  34.7280335  24.6127248  24.8392725  35.5313230  25.0913882  25.0438142
  34.9631906  24.0564728  24.0966296  41.4422816  51.0308073  88.5774985
  41.8860644  51.2300490  89.4018701  42.0828074  50.5257319  88.0766478
  34.5579171  87.6939964  22.1060061  33.9412093  88.3857632  22.3455024
  34.0776706  87.1508026  21.4810729 103.3852155 104.7010708  29.3308163
 103.7402113 105.5337334  29.6420765 102.8160293 104.9416637  28.5998082
   5.7082647 110.9860325   7.5493759   5.2604449 110.1753044   7.3076999
   5.2379417 111.2981606   8.3224237  26.7327380  72.9547119   7.3075503
  25.9523821  73.5051823   7.2423148  26.4561152  72.1053314   6.9636500
  31.9931626  82.8380013  20.5530190  31.8035769  82.0026588  20.1258254
  31.2019825  83.0357170  21.0541940  41.7963018  93.5163968  82.3989454
  42.4968318  93.2106226  81.8227580  41.0573060  92.9400247  82.2042385
  27.8271246  74.1978121   3.9083585  27.2726631  73.9475107   4.6473807
  27.4088454  73.7944698   3.1477085  50.5230713  51.2214041  38.1444192
  50.5970955  51.7429829  37.3452282  49.7482061  50.6771660  38.0043244
   9.3062097  88.7809849  16.9300306   8.5988778  88.2909203  17.3492563
  10.0246775  88.1523418  16.8605101 110.2067889  22.3008774  90.4937479
 110.2817858  22.5632141  91.4112380 109.3789423  21.8225096  90.4483154
  31.3114643  99.5261860  13.6661530  30.5103803 100.0455379  13.5970414
  32.0152354 100.1438999  13.4677160  86.4836783  26.0963724  77.1291616
  87.0637954  26.3986014  77.8279856  85.9251649  25.4414748  77.5479665
 103.4098655   0.1741176  27.6880002 103.9465696  -0.4660458  27.2207069
 103.7201149   1.0228210  27.3722672  68.4831333  63.7680721  26.2547040
  68.5556650  64.5705557  26.7714095  68.0065727  64.0321875  25.4677057
  48.0231524  84.7378540  11.5025067  48.6411047  84.2027855  12.0005655
  47.2277546  84.7433758  12.0349908 104.0608759  64.6412611   3.2108891
 104.3646200  65.5089331   3.4775788 104.0127797  64.6873665   2.2560108
  52.9977894 105.3467464  37.9474688  53.6470366 104.6500015  37.8512788
  52.2742987 105.0799179  37.3803759  36.5507579  67.5687647   0.7210747
  35.6075430  67.5640345   0.8840304  36.6304660  67.7249765  -0.2199225
   2.0032662  53.3333205  78.7966588   1.8573540  52.6407145  78.1522766
   2.5491017  52.9244517  79.4683161  -0.0256378  98.5055923  23.7596655
   0.6813912  98.3418369  24.3837833   0.3185704  99.1858673  23.1808877
  74.3876849  27.3791502  80.4301610  74.7794653  27.5746439  79.5789721
  73.8997249  26.5679262  80.2885941  39.3988466 109.0432644  37.1524096
  40.2024651 109.4273853  37.5029612  39.6925497 108.2667446  36.6759753
  32.5459290  54.4783688  31.1880541  31.9132733  54.4638062  30.4698849
  33.3273649  54.0594244  30.8273911  37.0619106  53.1291103   2.3298298
  37.6615405  53.8337088   2.0844297  36.2777209  53.5800743   2.6427302
  58.1963348  81.9816399  33.8687348  57.7094746  82.8056240  33.8846421
  57.9349852  81.5648365  33.0476332  60.4703045  55.9185123  10.7120526
  60.1044607  56.7617035  10.4448104  59.9180889  55.6383705  11.4419913
  65.2247715  73.6146259  32.9672670  64.8345661  73.5286856  33.8370872
  64.5513201  74.0499592  32.4445963  28.0234861  86.9104862   0.0145552
  27.5794506  87.3556232  -0.7071944  27.6814842  87.3323441   0.8027832
  19.3905103 101.3183689  33.2481837  19.4770241 100.4961109  32.7658606
  18.9905393 101.9221973  32.6223660  52.7644348  61.1623955   3.8868850
  52.1254063  61.7346334   3.4621245  52.2358036  60.4876328   4.3128842
  49.1343975  88.1759453  25.0693583  49.4983387  88.7744904  24.4170308
  48.5083008  87.6413822  24.5810175  63.9077044  48.9385843  16.6082525
  63.4150696  48.6016321  17.3565865  64.5950079  49.4790936  16.9977283
  41.1355257  97.8001976  24.5387292  41.9430923  97.5274658  24.1031981
  40.5047607  97.9095078  23.8270998  30.6806493 108.0346966  16.1930716
  31.4260888 107.6999283  15.6945944  30.2671027 108.6695957  15.6081712
  11.2988842  48.0721140   4.3270019  11.2586606  47.5855827   3.5036546
  11.6863799  48.9143467   4.0888301 115.9906357 108.2434845  34.9752259
 115.5832417 108.5151958  34.1527700 116.6071258 107.5565529  34.7216678
  66.2511617   8.9063697  47.9544306  66.9333512   9.5072608  48.2540655
  65.4322273   9.3766360  48.1107283  39.2486882  87.8441238  20.3382373
  39.3741083  87.1797562  19.6606541  40.1276350  88.0051613  20.6813860
  63.4763432  84.4547939  10.5420756  63.4872675  84.4338226   9.5851678
  63.1420851  83.5947514  10.7966912  90.5234463  76.8697112  75.4974440
  91.1573059  77.3129028  74.9334982  90.7858974  77.1083420  76.3864925
  55.9858942  67.4832153  24.8226619  56.5655327  67.7172709  25.5475521
  55.1141310  67.7448511  25.1189923  43.8058472  60.1921797   4.7914711
  43.8831091  59.2623568   4.5777187  43.0341291  60.4859209   4.3073276
  42.6755285  55.1402092  11.6773570  42.2389793  55.0230837  10.8335924
  43.6093044  55.0903940  11.4728653  87.6519997  32.8468321  85.0978365
  87.4461932  33.7570284  85.3109684  86.8019880  32.4070929  85.0792804
  22.2751921  21.1744164  95.1955438  22.9678696  21.4000700  94.5746523
  21.7008608  21.9401358  95.2023420  24.3012023  70.5262756  22.4240732
  23.5957050  71.0671568  22.7789640  25.1019812  71.0016298  22.6454782
  70.5360467   2.9217105  30.7007837  70.6188471   2.1818404  31.3024211
  71.4274890   3.2587390  30.6115103  91.1097933  17.7804945  80.1816705
  91.0027994  18.4365319  79.4929066  91.3873077  16.9900797  79.7185615
  47.8158665 104.1311836  25.1509523  48.5440683 104.5910358  25.5686736
  47.0581388 104.3343067  25.6994319  57.5496817  71.2700176  30.2846336
  57.0675850  70.6077051  30.7797670  57.5836754  72.0278406  30.8684015
  29.9833965  97.1222878   0.1078478  29.8993111  97.6964569   0.8690885
  29.1615582  96.6320610   0.0856573  31.3216972  94.3447018  16.3496101
  31.5573406  94.8448181  17.1310127  30.3820682  94.1865349  16.4408028
  94.7314531   6.7364650   1.2948205  95.0302965   6.9507651   2.1785635
  95.4462368   6.2232070   0.9181505  28.7926602 106.0454082  10.2072310
  28.8270330 106.5027809   9.3670738  28.3564019 105.2163315  10.0109220
 116.8352634  19.7851329  15.4455781 116.1511881  19.4436698  16.0214913
 116.4710552  19.7001128  14.5644701 107.5619585  18.2085471  12.5362194
 107.1003563  18.9871173  12.2247994 107.4226028  18.2102542  13.4832191
   1.6939896  11.5910672  94.2089873   1.9534748  12.4698017  93.9319980
   1.3899105  11.1670111  93.4065232  90.7297117   1.2672477  11.4166558
  90.3791696   0.6235175  12.0322514  90.6647140   2.1021514  11.8802822
  47.6671934 104.8405075  17.0243204  47.5857067 103.9004421  17.1851552
  47.3372459 105.2498341  17.8242052  42.6254940  68.7384892  10.2287209
  42.8932428  69.4680405  10.7875597  42.6036263  69.1083384   9.3461299
  34.9298000 106.6358662   3.0205184  35.5896926 106.1070251   3.4689587
  34.0991235 106.2067127   3.2255405  77.7513409  75.5373859  17.3273659
  78.4518576  75.0325012  17.7403998  77.7971172  75.2977800  16.4017713
  40.1239491  95.5748653  13.2330024  39.5430589  96.1036396  13.7799883
  39.9336576  95.8575439  12.3385119  66.6024637  77.6699924  16.6680539
  67.1885061  78.4215260  16.5787172  66.0837936  77.8622532  17.4492395
  70.0128794  84.6300602  26.8626714  70.9001303  84.8048782  27.1764588
  69.6628332  83.9875317  27.4798036  67.3262882  94.1217804  34.0539575
  66.8576574  94.5066071  33.3133292  66.6393185  93.7370968  34.5983052
  50.5103987  57.3123358  95.2978360  50.4249018  57.7784918  94.4662008
  51.4486521  57.1424387  95.3818153   9.8379820  59.6508215  93.5848936
   9.4482535  59.8750399  94.4299200   9.1006630  59.6471785  92.9745000
  29.4553995  76.7286539  19.4001055  28.8258743  76.9264030  18.7066889
  29.4077349  75.7781887  19.5029473  21.7595673  98.3083916   9.7020799
  21.3254642  98.3532715   8.8501579  22.6855350  98.4523964   9.5069402
  41.9324589 103.7180424  27.5309420  41.3873911 104.4404888  27.8427267
  41.3531017 103.2078266  26.9650316  31.4894843  97.4507999  22.2332239
  32.1341205  96.7935848  22.4954081  31.5165257  98.1047821  22.9316568
 107.0430077   9.0142344  83.8114813 107.9277242   9.3481921  83.6632326
 107.0489062   8.7158440  84.7209647  57.5564051  81.6141510   6.8451208
  57.5782585  82.4771118   7.2587192  58.2016706  81.6699505   6.1403143
  58.2474041  53.8033009  36.9635701  57.3990822  53.8525248  36.5229321
  58.6551952  54.6524525  36.7936373  64.1039419 101.5484333  14.1913533
  63.5470772 102.3211861  14.2861187  63.4896421 100.8178711  14.1195881
  92.0824302  75.3900145  85.7817629  92.4482931  74.6775912  86.3060048
  92.8206230  75.7087706  85.2624360 106.2037182 108.6140537   3.0533591
 106.3370228 107.6925755   2.8312570 106.1070156 108.6193371   4.0056473
  31.7249459   7.7474449  91.4675978  32.1921414   7.1494387  92.0509887
  30.8910960   7.9097174  91.9087311  37.8028631 105.4814148  17.7960348
  37.2698951 105.9429646  18.4434521  37.2178006 105.3574467  17.0486629
  36.7472506 102.4307346  35.0753284  36.9920588 101.5691757  35.4129791
  36.8679452 102.3600197  34.1284037  80.1456261  90.4163742  26.2298059
  80.2682018  90.9766388  25.4634380  80.2186203  89.5249176  25.8889270
 110.7749761  44.3336008  96.6722529 111.2906397  43.5515593  96.4754546
 110.1627148  44.4072722  95.9401733  19.8979700  89.9185753  28.7566495
  20.3381562  89.0997314  28.5287285  19.5647359  89.7729683  29.6420789
  69.7497892  91.1769104   6.9355291  68.8419151  91.4537907   6.8117076
  70.1662350  91.9140911   7.3820484  73.5387421  84.1121292  14.4216311
  73.6591721  83.8852882  13.4995294  72.6038694  83.9814854  14.5803046
   3.9564007  30.2435015  87.3404965   3.7354201  31.1534117  87.1418503
   3.8003987  29.7746752  86.5206805   1.5021424  85.8071709  15.1544225
   2.0561859  85.3975391  15.8188534   0.6130094  85.7227230  15.4987216
  21.5400767  90.6625843   7.7799189  22.2202158  90.1537323   7.3386478
  21.9764447  91.0296917   8.5487127  10.5403631  74.2804716  82.4704400
  10.1101940  75.0201224  82.0413557   9.9795311  73.5301684  82.2736230
  34.1392446 104.6200371  10.5511141  34.0391302 104.2139339   9.6901351
  33.2430696 104.7889709  10.8419156  78.7092239 110.5054563  81.8526164
  78.9261944 109.7458404  81.3121155  79.5512802 110.8022302  82.1977213
  47.7851772  80.7906151  16.4619410  48.0068827  81.3409615  17.2130764
  48.6103630  80.6889725  15.9876323   4.7317999  22.2534703  81.9434979
   3.9363783  22.1537684  81.4204338   4.4353741  22.6686524  82.7534297
  14.0436953  11.1989449  81.0203329  13.5972374  10.8504628  80.2486685
  14.3313139  12.0729111  80.7563451  59.2682213   0.4264979   4.7102302
  60.0426084  -0.0705094   4.4465357  59.5275337   1.3428645   4.6139988
  38.2889390  73.0225229   5.6202716  37.7398801  73.6123180   6.1369038
  38.0503321  73.2073689   4.7119048  36.0791731 100.2450943  13.3079171
  35.3119540 100.5401611  13.7983739  35.8038521  99.4215107  12.9052591
  98.0161763  45.7176588  95.2063402  97.7759994  45.2240656  95.9905076
  97.7255071  45.1677225  94.4787997  86.4682102  97.5613499  41.7191839
  86.1262321  97.9661369  42.5163174  86.6655922  98.2988262  41.1417723
  24.9057722 103.5816479  12.8485525  24.6275020 103.0546761  12.0994878
  24.6563745 103.0620670  13.6127949  50.5321360  97.4650764  11.6575086
  49.6096611  97.3919773  11.4127016  50.8445263  96.5607643  11.6868758
   6.3316977  87.4247169  51.8186665   6.8887722  86.9755650  52.4544001
   6.0678422  88.2322121  52.2597551  53.2892418  91.3211060  55.7245541
  52.4733067  91.4373779  56.2113380  53.8126087  92.0910835  55.9469175
  52.1440077 101.9070625  40.4456854  52.6557350 101.3875008  41.0657072
  51.6821814 102.5440407  40.9908533   8.2126969  27.5764654  85.9749237
   7.7106493  28.3902357  86.0192385   9.0675896  27.8022002  86.3415745
  67.6403427  72.0272684  40.2364016  67.8113890  72.5986958  39.4877744
  68.3842993  72.1699715  40.8215475 110.3108246  13.7826209  26.5525866
 109.6491129  14.4108443  26.8419099 111.1360866  14.1321139  26.8887877
  74.5349342   7.0273833  27.6500344  74.2307312   7.3985152  26.8218112
  74.8568827   6.1562591  27.4182439  66.5144062  75.8188057  10.4099023
  67.0816755  75.6459761   9.6585250  66.9642591  75.4091787  11.1488688
   3.4344357  48.3371065  89.6583524   4.0453547  48.1802271  90.3783509
   3.4507197  47.5265311  89.1495022  89.4251472   6.0411506  26.6272640
  89.1061479   6.8003993  27.1151280  90.0251228   6.4083915  25.9781170
  37.9743767 106.0032082  45.8123064  38.2847762 105.3209496  46.4076281
  38.6650920 106.6657352  45.8263445 113.7753261  11.7250536  74.2568734
 113.6992396  11.2459515  75.0820425 113.9980615  11.0550545  73.6105636
 110.9312857  35.8982275  73.6242869 111.5869225  35.2315234  73.4196570
 110.4968370  35.5728720  74.4127229  30.0206590 106.4165878  65.7938957
  30.0890708 107.2597122  65.3459120  30.6704330 105.8623028  65.3616953
  71.3525534  86.4668941   2.7481416  71.3489532  87.1367645   3.4318790
  71.8498611  85.7415676   3.1260613  28.3584070  91.5260506  16.2682950
  27.5273705  91.3383961  16.7046380  28.9054370  91.9137192  16.9514513
  12.7798861  29.4706057  94.0180755  11.9788378  29.4497107  94.5416385
  13.3925122  29.9905394  94.5382568  96.5688879  35.5057101  30.0562501
  96.9028312  35.8835368  30.8698559  97.2792894  34.9459510  29.7428274
  53.9483404  78.0840445  23.7651110  53.6928940  77.6503944  22.9509091
  54.3172789  78.9216375  23.4848309  62.0106411  94.9458218   4.8422760
  62.6098108  94.4038582   4.3289414  61.1854124  94.9149609   4.3582568
  49.1506958  68.2023621  23.0599022  49.1751480  67.4311972  23.6264157
  48.7135649  67.9007721  22.2635436 102.8649265  25.9154849  15.7760036
 102.9969627  26.0592990  16.7130816 103.4254247  26.5657001  15.3525829
  91.4175588  28.2611899  38.7841439  90.8817941  27.9289584  39.5044279
  91.8644888  27.4872642  38.4413147  53.7887859  93.6366558  43.0199575
  54.1601181  93.1653309  43.7657404  54.1842461  94.5071411  43.0657768
  67.3393250  87.2057343  15.3488803  66.9679260  87.7091312  14.6243942
  68.1253910  86.8015385  14.9815094 117.1178276  18.7863402   8.9433366
 116.3475878  19.2480140   8.6119437 117.7860243  19.4663005   9.0293652
  42.8738642  71.6766834  16.2374246  42.3454714  72.4285173  16.5053523
  43.6341238  71.6989660  16.8185759  46.0719412  67.2750090  63.9576486
  46.5164774  67.6085375  64.7369912  46.7811602  67.0449065  63.3574083
  93.7803173  73.8361311   4.0974188  93.2163239  73.4163046   4.7469485
  93.8775444  73.1815767   3.4058034  35.0871563  63.9016151   0.4487118
  35.4443645  63.0648375   0.1513186  35.3636646  63.9688206   1.3626370
  81.0866165  96.2498093   7.9032248  80.7613087  96.6300964   7.0872694
  80.3068829  96.1528969   8.4498960  88.6727810 102.0233822  35.5840230
  88.7950230 102.9242611  35.8835220  87.7250767 101.9294739  35.4878116
 106.0669888  23.9910601  78.6378482 106.3362874  24.3495940  77.7921775
 106.8704189  23.6285446  79.0111008  72.4591446 100.7530403   6.3788664
  72.0576763 100.9463120   5.5316955  72.7294970  99.8372173   6.3124323
  25.5637234  23.6058234  95.2444753  25.1837366  23.5596369  96.1218044
  26.4479178  23.9448975  95.3839718  24.7884321 109.3308544  24.2326593
  24.7368956 109.7450352  25.0940704  23.9497590 108.8803959  24.1329241
  48.9751959  98.5567379  26.4280772  48.1382990  98.2087803  26.1202383
  48.8749504  99.5069790  26.3712716 103.5698951  47.4808024  92.5595152
 103.4797085  48.2068537  91.9423005 102.8520001  46.8876456  92.3381084
  29.3299484 108.7059021  13.6918223  29.0926147 109.2684269  12.9546213
  28.8226247 107.9057217  13.5555542 112.6767791  26.1477469  91.2102428
 113.4949363  26.0945605  90.7162568 112.8603137  25.6854914  92.0280894
 109.8522151  79.2167853  90.7808712 109.5373405  79.8142908  91.4591572
 109.1642321  78.5554884  90.7060328 116.7010797   5.9650944  92.7536854
 117.2079075   5.3638075  93.2994065 116.5852464   5.4978512  91.9263396
  18.7960112 101.5431976  13.9385080  19.4521642 101.5238857  13.2418573
  18.5271919 102.4604893  13.9889789  70.5053360   1.7648559  14.0213978
  69.8714859   2.0080333  14.6961820  71.3582641   1.9283347  14.4239187
 117.2652572  92.2733593   0.8402752 117.8090207  92.4952507   0.0844189
 116.6911895  93.0309677   0.9530056  84.2790014   6.8024402  17.8638422
  84.8657686   6.1944919  17.4140263  83.6299211   7.0423846  17.2025180
  27.9675627 107.7623940   0.4613547  27.3647928 108.1000900  -0.2011129
  27.4229312 107.6352692   1.2381738   3.3715552  45.1243685  66.1733582
   2.6677531  45.3818129  65.5778578   4.0565699  45.7776354  66.0311749
   5.7679384  49.3957327  91.1953547   6.1654967  50.0136851  90.5819139
   6.5099400  49.0080927  91.6594684  43.4270334  97.1040249  19.1013801
  44.1356087  97.7415466  19.0135205  43.5835743  96.6872025  19.9487209
  83.8152773  17.1366077  12.4941075  84.1952831  17.9148822  12.0865440
  82.8932077  17.1581607  12.2380686  81.2953216  25.7528834   6.0784853
  80.4220850  25.4432349   5.8380610  81.2123949  26.0153060   6.9952667
 117.8212387  17.3061233  28.2833290 116.9143850  17.0020633  28.3207202
 118.2199556  16.7852359  27.5862384  22.7777171  75.1430130   2.1831806
  22.2314286  75.9279585   2.2238858  23.6749959  75.4729319   2.2309111
  38.5391736 101.0040951  20.6417012  38.0897522 100.3254890  21.1454272
  38.0286050 101.7980099  20.8005953  53.3795643  96.1743832  27.0590496
  53.8536263  96.5349865  27.8083563  54.0579844  95.7691765  26.5188813
  15.4226136  42.6700449   3.8931668  14.6108019  42.8609991   3.4233478
  15.6005180  41.7496490   3.6996460  15.0111115  46.0709286  13.3099508
  14.7340155  46.4332199  14.1514933  14.5116270  46.5654278  12.6601684
 105.1126302  27.8726099  93.2035744 105.9973134  27.5152872  93.1268340
 104.9821199  27.9889773  94.1446680  87.2511799 102.6690047  60.6358984
  86.5120441 103.0815738  60.1890281  87.7108604 103.3945268  61.0584405
  39.7635126  51.9473219  28.0607176  38.9331770  51.4811611  28.1580186
  39.5802236  52.6311398  27.4164844  53.6108589  71.6183329   8.2586926
  54.4584322  71.5369749   8.6959964  53.2055092  72.3855495   8.6628020
  59.7842264  65.1504898  17.1732724  60.6427813  65.2590895  17.5823200
  59.3975163  64.3996811  17.6237965  12.5468028  62.2082853  20.1890039
  12.5676787  63.1077003  19.8621321  12.7826917  61.6726446  19.4315875
  22.2997737  66.3843584  45.4509735  22.0351362  67.1951008  45.0163603
  21.5997887  66.2104368  46.0802650   4.2900053  95.6872654   6.2078863
   4.9581629  96.3473320   6.0232061   3.8888782  95.5080414   5.3574699
  59.9609811 100.0336497  75.6905606  59.3575389 100.7620519  75.8372429
  60.8269555 100.4003995  75.8689335  91.4223505  24.5612906  85.3592422
  91.7228890  25.3125952  85.8705690  92.2226907  24.1856812  84.9923602
   0.3793567  19.1674326  76.0480550   0.4309505  18.2238720  76.2005618
  -0.2118570  19.4881581  76.7291096  34.9462860  15.0157593  76.0856417
  34.5497196  15.7402561  75.6018308  34.4647330  14.2413901  75.7946232
   9.1191494  27.8676224  11.4492357   8.2702392  27.8134441  11.0103178
   9.5749831  28.5806179  11.0019290  86.3461191   9.3288706  77.4112764
  86.5630270   9.8583935  78.1786004  85.6209112   8.7747763  77.6998749
  53.7248850  27.4720931  44.4509935  54.2747974  28.1947351  44.7536755
  53.7999201  26.8099332  45.1381207  32.1748209  51.9486523  -0.0572240
  32.4789953  52.8266478  -0.2870766  31.3391185  52.0932293   0.3865445
  84.6450836  92.2641819  56.3162497  85.1384765  91.7950648  55.6433990
  85.2694494  92.8946894  56.6752222  10.5662310  72.5860167   6.3965058
  10.0786233  72.2636032   7.1544772   9.8907936  72.8426218   5.7686770
  71.7603636  90.2753544  13.3664095  72.6524544  90.4563332  13.6624646
  71.2748575  90.0876713  14.1697097  93.3021576 108.9933866  88.0232516
  93.4665043 109.1723865  88.9490917  92.8808910 108.1338971  88.0165782
   9.9954969  67.4798727  17.4445093   9.6727651  66.6010094  17.6436889
  10.6610322  67.6475525  18.1117272  21.8234318  25.8406542  79.8765829
  22.7623289  25.7162379  80.0152591  21.7641323  26.3056181  79.0420070
   1.5269671  33.4985304   7.9019052   1.7832866  33.5937166   8.8192230
   0.7588959  34.0620065   7.8081286  15.0546950   3.3944605  77.7016631
  15.1130408   3.4910630  78.6521867  14.1967982   2.9965733  77.5535670
  86.3658203   7.3430537  63.5428861  85.5942507   6.9067190  63.1816056
  86.0484774   8.2040308  63.8153532 101.6593493  32.4198626  73.3629277
 102.0078052  33.3099936  73.3132484 100.7094158  32.5322054  73.3277419
  65.3772814  93.4456533  73.6080029  66.2087161  93.0094307  73.4218290
  64.9309713  92.8596681  74.2192772 116.7086733  15.8300637  85.4347387
 115.8009828  16.0219096  85.6703773 116.8820060  16.3871811  84.6759155
   9.7441983  51.8917656   1.1216677  10.2278209  52.6795006   0.8730388
  10.0338483  51.7047358   2.0146149  28.0691481  86.3682079  21.6891122
  27.1463227  86.6061115  21.5994954  28.0554414  85.5139446  22.1207166
  78.3420213  22.8131007  95.6960848  78.6728636  22.2636030  94.9855718
  78.3523771  22.2427080  96.4647054  28.3904529  87.7032089  13.6362743
  27.8071237  88.1540871  14.2467391  28.3369994  86.7818451  13.8901520
   5.4883879   9.1285418  66.6066316   5.1077860   8.2503413  66.5949061
   5.7037371   9.2839907  67.5262454  28.9882088  78.3632088  -0.1007703
  29.8485899  78.6125708  -0.4381045  28.9940166  78.6564016   0.8104026
  43.4041882  43.2360840   4.6183705  44.1513491  43.6414909   4.1783440
  42.8777361  42.8696489   3.9078718  71.7259384   5.7777546  64.1610744
  71.1423619   6.0279320  63.4447768  72.0353747   4.9035977  63.9237216
 108.3704175   8.9372824  79.1290274 107.7766074   8.2227848  78.8985541
 108.9703001   8.5533188  79.7685161  64.5412595  97.7897113  71.3817718
  64.9271304  97.4211925  70.5870822  63.9265520  97.1203082  71.6822055
  98.3626176  20.3129385  69.3052915  97.5123800  20.1859377  68.8843420
  98.3893348  21.2466715  69.5142463  45.8139324  42.6192427  12.7558625
  46.5868664  42.5459766  13.3157134  46.1436176  42.4635792  11.8708169
  42.6524734  53.0389214   2.8360179  42.2369242  53.2643270   3.6683294
  42.3234892  52.1631432   2.6334921  69.4630462  90.5746191  81.7191830
  70.2060920  90.2827328  82.2473100  69.7171122  90.3761166  80.8179179
  34.2683744  41.0777473   6.7094332  34.4528055  40.2000141   6.3750672
  33.4546423  41.3334417   6.2750441  67.1144724  57.8510237   9.5593160
  67.6991224  57.1215963   9.7651112  67.3739529  58.5444641  10.1659775
  67.6194126  91.9451111  72.3341015  68.5600549  91.8178027  72.4574497
  67.5290543  92.1846836  71.4117816 107.2785742  93.2653897  77.7391484
 107.7575905  94.0861648  77.6246634 106.3853151  93.4686821  77.4616721
  34.8076320  98.4495449   0.6291983  34.5139408  99.0728092   1.2936682
  35.0694513  97.6747799   1.1266120  32.2119021  93.0176544   3.7059098
  31.2551236  93.0459213   3.7031293  32.4389243  92.5143242   2.9240194
  53.1795073  80.9806728  10.4309762  54.0190792  80.8374214   9.9941397
  52.6395655  81.4200592   9.7739786 102.6395072  43.4621809  71.4161208
 103.2392252  43.9320563  71.9955948 102.4249066  42.6603220  71.8927792
  39.1340405  64.2338162  92.3025536  39.7298402  63.5066813  92.1221948
  38.5276046  64.2359030  91.5619707  16.8199587  53.5465717   3.6558074
  16.7205024  53.1822968   4.5353767  17.6797962  53.9670467   3.6665216
  31.0553432  65.3530216   6.4460403  31.9121289  65.5833244   6.0867244
  30.5440879  66.1597157   6.3820535  55.9311528  92.6827853  84.6501627
  56.6358668  92.2604745  85.1413479  56.0030395  93.6098498  84.8773458
  69.8253305  37.6469038  91.2397930  70.3966374  38.2253645  90.7345977
  69.4912852  37.0200823  90.5981180 115.3114356  -0.0715162  88.4620914
 115.7883013   0.1876543  87.6736364 114.9748839   0.7502363  88.8194290
  25.3196788  73.0720806  11.4822090  24.9095511  73.6959362  10.8831847
  25.3847742  73.5443687  12.3122323   2.5993851  89.1374207  22.9174852
   3.4208637  89.2866039  22.4493504   2.6657763  89.6865273  23.6987066
  71.7206818 109.1569274  70.0549105  71.4431555 109.8174709  69.4201711
  71.6707308 108.3292812  69.5766452  86.6979582  84.1443461  90.4551264
  86.4383775  83.2535332  90.2199527  85.9849960  84.6949189  90.1314166
  64.5508718  68.0683088   8.5878736  64.2790508  68.6894798   9.2635167
  65.4685163  67.8833580   8.7877756  62.9444248  97.4866193  67.7548364
  62.4177725  96.9377130  68.3358481  62.4684459  98.3159965  67.7123502
 116.9293154  24.9081324  93.5111174 116.1113156  24.4315146  93.3698851
 117.3985089  24.3900870  94.1651225  92.8766490  25.5391978  78.3039382
  93.5935772  25.3261755  78.9013234  92.8239978  24.7865008  77.7149501
  44.3125677  64.3068409   0.7021254  43.3688450  64.4156313   0.8195533
  44.6890593  65.1303101   1.0125869  68.3215863 109.5359224  83.9431444
  69.1684229 109.8901122  83.6717596  67.7370722 110.2938598  83.9531901
  83.3702127  14.1381453  85.3254428  82.8259097  14.0145014  86.1030534
  83.0855502  13.4516285  84.7222033  13.7865752  26.3880537  61.6099527
  12.9626721  26.8355368  61.8027380  14.0813654  26.0535715  62.4569776
  19.9733275  36.4182280  72.2523215  20.8811539  36.5649126  71.9866803
  19.4812411  36.4139460  71.4313057  12.6787251  13.8491247  72.7108052
  12.4713152  14.7827719  72.6718071  13.1656664  13.6780737  71.9046643
  18.1183308   4.3706320  89.9008241  18.5898941   4.4087313  90.7329336
  18.7387532   4.7142218  89.2579749  44.0696669  41.0243797  18.3009303
  44.4290066  40.1800251  18.0285871  43.1736517  41.0231924  17.9641938
  88.0821199   3.0376004  92.9514074  87.9242052   3.2661532  92.0354068
  88.2271613   2.0915125  92.9406240  18.1395912  73.5853958  12.9589987
  18.8964725  73.1299400  12.5903225  17.4181521  72.9627848  12.8689194
  20.7372635  23.2441710  94.5074390  21.0590475  23.1801413  93.6082241
  19.8213452  22.9712723  94.4540652 114.6372927  15.0040959  89.1911748
 115.2252735  14.5656775  89.8062315 115.0748862  14.9247788  88.3435586
  46.7642498  58.5363436  35.6305027  46.5361452  59.4623518  35.5485535
  46.2803745  58.1071281  34.9249029  40.8319902  80.7777119   6.2448591
  41.6091013  80.4546928   5.7887977  40.9856415  81.7172909   6.3439006
  11.0154837  20.0600193  95.7348233  10.1102989  20.0329254  96.0448930
  10.9702700  19.7363089  94.8351586  49.0088654  42.3085976   1.6490956
  48.1569767  42.6593733   1.3893417  49.1883707  41.6182709   1.0107686
  41.2811613  79.9103308   0.6999851  41.5861845  80.6791687   0.2182362
  41.1156654  80.2328873   1.5858740 101.0159857  81.7774099  91.2349400
 101.5573627  82.1751040  91.9168359 101.4451296  82.0223754  90.4151490
 103.8989819  21.8617771  36.1591795 104.0628994  20.9660958  36.4543465
 104.7708167  22.2303580  36.0167673  81.6424686  99.2930787  83.5198036
  82.5971967  99.3330091  83.5757509  81.3579876 100.2004760  83.6290017
 114.5380820  24.0223215  92.1864322 114.6502818  23.0906962  92.3754209
 114.9079002  24.1353176  91.3108191   2.3078125   1.0469769  57.9546693
   1.7427843   1.6672419  57.4939683   1.9079083   0.1925801  57.7924588
  75.6234199  96.9095653  73.5371569  74.8117859  96.8453639  73.0338076
  75.6180031  97.8002256  73.8877657   2.1480539  46.0448551  46.6857815
   1.8546808  46.8694067  46.2981224   3.0220383  46.2374163  47.0253468
   9.9362486   0.2374171  83.3222690   9.3557852   0.9164236  83.6661330
   9.5891159   0.0440262  82.4514463  17.0794981  11.5493153  91.2313148
  17.1971386  10.6581972  90.9022173  16.9545811  12.0805262  90.4449037
   4.9137705   6.8422793  82.0817545   4.1204804   6.4905403  81.6777745
   4.8162096   6.6443537  83.0131724  48.5072565  47.0895576  13.8651836
  47.7561855  47.1520138  14.4552839  48.5668612  47.9551506  13.4609175
  38.7963078 102.3115247  56.3158730  38.1057866 101.8429893  56.7847946
  38.8474669 101.8746036  55.4657438  42.7114174 105.5607455  76.5769484
  43.1652704 104.9640506  77.1720961  43.2140187 106.3740247  76.6238513
  38.7588104 109.2583650  95.1353717  39.2548648 108.4603446  94.9528169
  38.8343331 109.3759769  96.0823120  88.7855179   7.3165565  13.2989371
  89.6568233   6.9293647  13.3834755  88.4176428   6.9095664  12.5145519
  25.5997539 105.4006672   0.5882081  25.8400607 104.4837475   0.4550356
  25.5893326 105.7758617  -0.2923348  57.8139681 104.5255225  81.1064640
  58.0961329 103.8091605  80.5377462  57.0281631 104.8717826  80.6835607
  54.7447014 104.6085644   8.5673541  53.7903643 104.5417213   8.5990661
  54.9363136 104.8763180   7.6685625 113.0989040   9.7454594  80.9229758
 113.1738413  10.4409264  81.5763846 113.8997520   9.2316340  81.0271612
  78.2187397 105.7406133  85.4926804  78.2676799 106.3758319  84.7783020
  77.5598223 106.0991376  86.0872570  85.5129791  44.5888995  85.8843699
  85.3345800  44.6545981  86.8225011  86.4548863  44.4272421  85.8304289
  50.7925982 111.3460200  85.3542068  51.2912065 110.7114499  85.8689311
  50.3028483 111.8497890  86.0042813  16.6650694  64.3951510  67.5645092
  16.5093296  63.8760947  68.3535340  16.3228243  63.8558291  66.8516067
  87.1889080  47.7188204  85.6585601  87.8597886  47.0584200  85.4852953
  87.6159454  48.3469580  86.2410632  50.9844225  13.8945673  83.7933031
  50.1283472  13.8854740  83.3651867  51.4141100  14.6792744  83.4529498
 103.8460887  33.9335154  87.5238713 103.5150565  34.3198393  86.7130676
 103.2177413  33.2426737  87.7340022  50.7745504  57.3505068  16.7919898
  51.1229181  57.3806858  15.9009469  51.4407015  57.7852011  17.3244524
   5.8911770  28.7878416  83.7889352   6.1406439  29.2792319  84.5715800
   5.0412052  28.4054564  84.0070143  69.6350574  69.6159506  18.6105883
  69.5802212  70.3344870  19.2406118  70.5282354  69.6638918  18.2697558
  53.4699059  82.5064087  19.9023581  53.7304544  81.8938160  20.5901599
  54.2460012  83.0474949  19.7569573  31.7741108  76.3428164   0.4213760
  31.0933018  76.4333582   1.0881095  32.4090862  77.0271158   0.6329717
  59.8727148   9.7938917  96.4935678  59.8532122   9.3150566  95.6649711
  60.7865351   9.7487400  96.7748401 117.2713912   4.1842030  66.7066386
 118.1664909   4.2573927  67.0377996 117.2297371   3.3094405  66.3202599
 107.6337088  26.6388319  93.2458570 108.1299914  26.2428473  92.5295275
 107.4509109  25.9118746  93.8411283  15.4251068  46.1813639  68.1411174
  15.2253407  46.8206785  67.4573114  14.5709198  45.9364126  68.4969213
 108.6811889  32.3195265  65.1602200 108.9309681  31.5127180  65.6106713
 109.2577017  32.9884051  65.5296257  50.1315594  65.1266527   1.6459197
  49.4064426  65.3233814   1.0528429  50.9163713  65.2338696   1.1085129
  71.6815233  68.4200096  24.4117260  70.9115171  67.8516293  24.3953514
  71.5923357  68.9208317  25.2225614  31.8024373  79.5531702  13.5018098
  31.3787556  79.0432262  14.1922319  32.5583792  79.0256166  13.2439899
 104.5232619  39.9732970  53.1705597 103.5850252  39.8282049  53.2926014
 104.6321977  40.0518130  52.2228268  32.0016020   7.7387427  82.7441290
  31.7592972   7.8413676  83.6644485  31.4972561   8.4118412  82.2871747
  38.9592028  79.7237158   8.0953223  39.7254038  80.0157642   7.6014841
  38.6403990  78.9604855   7.6135731 118.0875968  90.4690552  17.9922724
 117.4938048  90.9667397  17.4301708 117.5790895  89.7033405  18.2593548
  50.3462345  78.7478774  60.9455278  50.9808094  78.4968846  61.6167572
  49.9324662  79.5389026  61.2909368  15.2249974  14.6684073  83.6440649
  14.5123356  14.1000317  83.3520248  14.9673718  15.5436085  83.3544376
  53.2758242  94.0814512  70.2067759  53.2831127  93.1647962  69.9312356
  54.1641933  94.3914741  70.0309422  49.5542288  66.7048454   4.7234550
  49.6631384  65.9177160   5.2571249  49.2109537  66.3833666   3.8897601
 103.5112132  21.0916994  85.0529089 102.9504121  21.2789915  84.3001440
 103.8930810  20.2354430  84.8599377  10.3464239  24.5701693  69.8775461
   9.8424786  25.0041292  69.1891125   9.9198979  24.8379038  70.6915620
  52.2764891   1.2000702  79.2262581  52.8784579   1.7912672  78.7741938
  52.3745554   1.4206980  80.1525083  44.5666975  97.4577754  89.4318083
  44.6294529  98.2238668  90.0022444  43.7623108  97.0186465  89.7081420
  18.0917788  82.1079254  17.6294351  17.5681531  81.3934326  17.2667456
  18.2908928  81.8291664  18.5232353  44.9280739  35.5303431   5.1369721
  44.8204851  36.4002347   5.5216098  44.0358400  35.1946902   5.0504673
  56.3243825  99.7950643  95.7783221  56.5979857 100.7118409  95.7484207
  56.9698543  99.3707936  96.3436488  96.5770275 110.7669156  77.7316776
  97.3593313 110.7708877  77.1801165  96.1668426 111.6168445  77.5716737
   9.6911877   1.7305516  91.3779536   8.8499850   2.1583365  91.5380081
   9.7457474   1.0506533  92.0495137  29.9624699  28.1748102  74.3621328
  29.0888899  27.7849482  74.3952539  29.8194283  29.1002463  74.5604637
  15.8719480  80.5436707   8.2475424  15.7333088  80.3640652   7.3176223
  16.6718936  81.0686970   8.2734126  42.8726309   1.4500092  93.0553517
  42.1990317   1.3607834  93.7295455  43.5534685   1.9829272  93.4660676
  99.0526689  46.0813902  91.9521540  99.5030845  46.0131739  91.1103090
  99.0575255  45.1893996  92.2993651  74.0063334  81.2205219  23.1825662
  74.3470383  82.1095562  23.2814264  74.4542456  80.7155228  23.8612318
   5.5581110   6.2816094  61.0225466   6.2801283   5.8667324  60.5505255
   4.9882096   5.5551718  61.2750009  77.4023349 105.7041448  71.8753961
  77.0409829 106.3454574  72.4872568  77.8448278 105.0641053  72.4328759
  18.0307120  13.7119816  79.6082178  18.4489983  13.7403725  78.7477150
  18.5128229  14.3533705  80.1301578  38.8687229  42.6322985   1.3726036
  39.5559049  42.7360630   2.0308170  39.2021418  43.0942154   0.6033851
  35.2565670  99.6905041   9.4339198  34.8572659  99.8284531   8.5749894
  36.1857152  99.5560169   9.2472905  15.5705851  30.3130053  87.0255419
  15.1296347  31.1453722  87.1956953  15.4933899  29.8286436  87.8475365
  42.2241306  54.4550371  27.6065612  41.8292952  54.9166584  26.8668056
  41.8480921  54.8757839  28.3797359  31.8260050  98.6544228  16.1905134
  31.5698361  98.8274002  15.2845955  30.9972572  98.5781860  16.6633749
   1.4703785 105.3398460  95.8526254   1.3979947 106.2844175  95.7155976
   1.7477833 104.9952501  95.0037829  28.4672141 104.4489193  25.2535224
  29.3851995 104.5591259  25.5012870  28.3275366 105.0929165  24.5592642
  46.5908432  71.7827988   1.2522122  46.4645576  70.8344650   1.2215138
  46.6378069  72.0480299   0.3336919  99.7064436  30.4154871  92.8996107
 100.0107015  31.1046599  93.4901133 100.2203477  29.6460055  93.1446379
  26.5100026 107.7972698   2.9271844  26.4612913 108.7115002   2.6478186
  25.6227708 107.4607849   2.8013787 112.1092952   0.8643149  87.7875033
 112.8521622   1.4555167  87.9094133 112.1138538   0.6638001  86.8515530
  18.8703084  80.8057690  37.7956533  19.8008609  80.5822849  37.7766728
  18.4666824  80.1072216  38.3107781   5.1206702   0.3845213  81.9056561
   4.5051115   0.1961420  81.1972549   5.9655779   0.0776909  81.5767017
  26.3624781  17.2472904  72.3539999  27.1495169  16.7069147  72.4232414
  25.9667700  17.2067736  73.2246330  82.7118761  96.4540761  70.9699061
  83.5730869  96.3165992  70.5753782  82.7044327  97.3801034  71.2120727
  93.5827190  91.8013805  91.1053648  94.4780428  92.1066826  90.9590104
  93.2089359  91.7257398  90.2274164 113.6114920   6.4402912  71.9545033
 112.8882040   6.0520218  71.4622310 114.2751206   6.6339300  71.2924340
  81.5039140  87.1555370  94.0820527  81.8674642  86.3811629  93.6526227
  82.1631223  87.4011033  94.7311844  89.9931444  33.1554602  92.5357964
  90.1810707  32.8646467  93.4281772  89.0935839  32.8703402  92.3754075
   1.5177029  12.6888750  90.8096507   1.1662930  11.8494890  91.1065903
   1.9215840  13.0689143  91.5898326  38.2983375  50.0467205   9.2792428
  37.6251411  50.4613304   8.7396687  37.8565431  49.8520947  10.1057839
 102.6598013  34.1040133  78.9840272 101.9054688  34.0853785  78.3950749
 103.3099760  34.6347235  78.5237506  46.8434429  46.7301369  30.1725817
  47.0198298  46.0952616  29.4782829  46.8592215  47.5790215  29.7305632
  60.9490496 104.7865432  91.3718441  61.6110617 105.3883832  91.0316023
  61.0250384 104.8598617  92.3232022 115.2203644  30.1723002  96.4682170
 114.3698348  30.3017233  96.0485936 115.4001487  31.0039709  96.9066582
  95.1829244  33.2340716  95.3923201  95.0376631  33.8204096  94.6497995
  94.4889475  33.4568785  96.0127903  55.8844948  75.5152988   1.2292708
  56.4052296  74.9762821   1.8246937  55.0170135  75.5480528   1.6325499
 100.6815995  23.7631796  84.8414591 100.7228197  24.5340536  84.2755225
 101.0025156  23.0466317  84.2939129  99.0638865   2.9500101  57.9446009
  98.4174622   3.3981274  57.3991111  99.3249858   3.6041210  58.5928252
  45.2842283  88.7593269   1.1859830  45.6713438  88.3839130   0.3951352
  45.2169228  88.0221653   1.7928545  53.4480000  53.0660200  31.3640809
  53.4201050  52.1442223  31.1076880  52.6356077  53.2038355  31.8511653
  21.2286592  56.1194611  15.9746611  21.4310932  55.4081345  15.3669894
  20.3376484  56.3838291  15.7456529  25.3447121  70.4192637  94.6518791
  25.0852936  69.5282172  94.8863181  24.5264595  70.8494757  94.4036709
   4.2124623   6.9773005  84.9730554   3.2975357   6.8666695  85.2317038
   4.5697993   6.0893009  84.9708810  98.6750507  66.9420195   6.2090629
  99.4035816  66.9241285   6.8296707  99.0165615  67.4186850   5.4524946
  58.3999068 107.4326795  79.2201176  58.2959170 108.0433314  78.4903791
  58.2802958 106.5678685  78.8276461   7.8736609  19.9071692  96.0889250
   8.2995528  19.0602206  96.2213315   7.6466387  19.9183367  95.1591042
  45.5522585  69.2721462   5.1941186  45.2044582  69.5078516   6.0541821
  45.3029585  68.3553028   5.0780123  58.5818672  43.2850742   1.6478133
  58.4183025  42.9526234   2.5303978  58.9553881  42.5402403   1.1767139
  48.9314270  36.5565491   4.0485820  49.7316504  36.1754513   3.6871463
  49.1221762  37.4919057   4.1189769  29.4387293  14.5358336  21.5346241
  28.5442257  14.5261610  21.1940384  29.4521904  13.8403523  22.1921611
  81.8564606  34.2710018  12.4116719  82.2534275  33.4459567  12.6908600
  80.9285259  34.1749430  12.6260364  78.4933049  89.3081253  57.7723983
  77.8768832  88.5769003  57.7327874  78.0101139  90.0049251  58.2165029
  30.2450824  43.7820673  24.8487115  29.8953032  43.0839443  24.2950773
  30.1672149  44.5727873  24.3149281  35.1709145   4.5177506  96.4019403
  34.9547785   4.8072050  95.5155259  35.0488060   3.5686158  96.3804163
  60.2351713  19.2081022  14.9002278  59.5826197  19.7761321  14.4906521
  59.7960758  18.8594508  15.6760287   2.4160689  25.9783743  47.2151735
   2.7525490  25.7615279  46.3456943   2.3880213  25.1404188  47.6769855
  92.3457051  38.3871649  88.8900456  93.2014585  38.7366865  88.6415431
  91.8834747  39.1337870  89.2709938   8.2932413  74.0478230  44.6933317
   7.4657047  74.4735527  44.9173260   8.1608588  73.1290627  44.9269581
  48.1818194  79.4321101  64.6585181  47.3195339  79.6259754  65.0260928
  48.0123896  78.7739270  63.9844850 117.2769536  38.2968519  85.6818285
 117.3167552  37.5530432  86.2829831 116.6533483  38.8993548  86.0872248
  18.6057079  62.4298000  10.7537293  19.0307724  61.7836857  10.1897371
  17.9913461  62.8838730  10.1770067  49.4380903  87.3068714  21.7907405
  49.0986633  86.5970612  22.3358965  48.7959242  87.3960972  21.0865426
  16.3177145  32.5885296  39.9017930  15.8256018  32.6291585  40.7217979
  17.2205234  32.4212193  40.1723051  61.2978489   9.0482860  27.3351741
  60.4160721   8.6785178  27.2908092  61.2565643   9.8324161  26.7877507
  84.5815260  16.5799568  58.2730368  83.7654973  16.4659642  58.7602094
  84.6046443  15.8387993  57.6677444  32.0468092 103.9966297  15.4351866
  31.1736488 103.9963150  15.8273900  32.6376796 103.8146973  16.1659443
  40.1720715  64.6839237  13.5723209  39.7301960  65.5105305  13.3781421
  39.4770646  64.1112518  13.8967276  51.8436956  69.1507196   8.5832322
  52.0735788  68.2357836   8.4211236  52.5340986  69.6517086   8.1489658
  51.9821072  64.1818619  19.7532368  51.8646717  63.5640049  20.4748297
  52.6875639  64.7593832  20.0448251 108.1504345  75.4980421   7.3198622
 108.0293369  76.1787939   6.6579360 107.9592514  75.9344816   8.1500435
  42.2534037  84.2262077  17.3863626  41.9212723  84.9541378  17.9117537
  42.3402357  83.5028076  18.0071616  60.8943748  96.4825630  36.8990302
  61.1333323  97.4094391  36.9038582  61.6817808  96.0306358  37.2023392
  69.8129272  73.6201239   9.5750874  69.9758625  73.2284164  10.4331374
  69.8322630  72.8812218   8.9669108  20.6171435  10.7805441  71.6796186
  21.0889834  10.9250258  72.4998167  21.0100334   9.9881123  71.3136723
   2.7851287  77.1728802  41.5857315   3.4926805  76.5368080  41.4807844
   2.1799764  76.9782257  40.8700943   8.7217730   6.4679764  62.2875884
   9.4664114   6.4900254  62.8886393   7.9776543   6.2218283  62.8370669
 111.6737140   8.7123583  88.4531769 112.2677101   9.4054650  88.7412801
 110.8069671   9.1182707  88.4678939  98.1560780  10.1271914  96.2950196
  97.8036977  10.5223320  97.0924678  97.4470664  10.2033661  95.6564804
   6.9110983  32.4355982  90.1224837   7.2911280  32.9984186  89.4479212
   6.2817257  32.9965304  90.5757883  75.1592008   5.1540135  80.6737020
  75.0278820   6.0502003  80.3641203  74.7360236   4.6074580  80.0115660
 112.5845922  39.7596930  89.1922173 112.3358429  40.0451468  90.0713482
 113.3081807  40.3370570  88.9487007  40.8614016  44.3364573   0.4530372
  40.7650042  45.2730989   0.2808742  41.0356569  43.9517355  -0.4059469
  69.5075798  53.1412172   2.5520334  70.3214502  53.4456110   2.9535255
  69.7875929  52.6891375   1.7561401  30.4809880  30.5851841   1.4029515
  31.3995981  30.3333020   1.3083942  30.5055785  31.5312934   1.5461469
   1.2917155   8.2648133  54.5894554   1.5557688   9.1039704  54.9667051
   0.5202406   8.0074309  55.0942448 116.4640940  23.9823483  68.8756326
 117.0961417  23.2925270  68.6734155 116.5872634  24.1538666  69.8092511
 118.2464833 118.2464833 118.2464833 109.4712190 109.4712190 109.4712190
