
50882  0.0000000e+00
  40.2334547  34.5052886  63.2528496  40.3209686  34.5237875  64.2588854
  41.0343885  33.9935279  62.9112148  39.3351722  34.1073179  63.0187511
  40.3828192  35.9088278  62.8032446  39.4462633  36.4252305  63.0137014
  41.6001368  36.5846324  63.2894754  41.5764236  37.6580358  63.1014776
  41.5311241  36.5382433  64.3763018  42.9799223  36.1186409  62.8106403
  43.8191175  37.0195627  62.5795412  43.2012224  34.9056935  62.5489283
  40.4535007  35.8673382  61.2338829  40.2350330  34.8441386  60.6715155
  40.5246878  37.0259976  60.6022501  40.4700184  37.8788996  61.1404610
  40.5702305  37.2188711  59.1315746  39.7636294  36.5882134  58.7577200
  40.1761961  38.7018919  58.7819481  40.2457047  38.8782096  57.7085543
  38.6930323  38.8979650  59.2543697  38.4784675  38.8372803  60.3213167
  38.3042169  39.8547029  58.9056873  38.1106210  38.1270647  58.7497759
  40.9471846  39.5665431  59.5460367  40.7104969  40.4493141  59.2522717
  41.8852520  36.7802835  58.5257530  41.9799614  37.0582938  57.3170519
  42.7472544  36.0761929  59.2624569  42.3319197  35.6890988  60.0977755
  43.8969088  35.3110242  58.7198544  44.6795225  36.0199237  58.4495211
  44.5593834  34.3651223  59.7550440  45.4351711  33.8916445  59.3112850
  44.9427795  34.9883986  60.5628967  43.6493349  33.3881044  60.2864599
  43.3775902  33.6878490  61.1570406  43.5219669  34.4398046  57.5338268
  44.2170191  34.3946505  56.5502644  42.3121214  33.7975764  57.5782919
  41.8168163  33.7631345  58.4578323  41.9256306  32.8931212  56.5009260
  42.7774048  32.2244215  56.3767481  40.6741381  31.9788575  56.8690205
  39.9818516  32.5413847  57.4954414  40.0628662  31.6841364  56.0160303
  40.9824610  30.7199478  57.7763176  41.7839289  30.2671933  57.1925640
  41.5178156  31.0521102  59.1570711  40.9624481  31.8457913  59.6568108
  41.5482998  30.1287293  59.7354650  42.5214624  31.4165044  58.9379692
  39.7440577  29.7987223  57.7939415  39.6231675  29.3224311  56.8209934
  39.9787235  28.8745594  58.3221102  38.8972330  30.3552365  58.1955385
  41.7469263  33.7246537  55.2302456  42.3837280  33.4405231  54.2564249
  40.9194183  34.8398018  55.2986383  39.8745275  35.0929117  56.2509108
  40.1289892  35.1499152  57.3092556  39.1088939  34.3434238  56.0504818
  39.3202710  36.4880037  55.8394051  39.9182630  37.2381544  56.3568783
  38.2679629  36.5956497  56.1023855  39.5494270  36.5237284  54.3533659
  39.7351456  37.5261545  53.9676809  38.7005353  36.0731316  53.8391209
  40.7347155  35.5973625  54.1274643  40.4118633  34.8964167  53.3576965
  41.9895887  36.3050270  53.6247683  42.0595455  36.6023183  52.4576187
  43.0154562  36.5372682  54.5532751  42.8156471  36.2951589  55.5132532
  44.4056702  37.0295858  54.2585421  44.2175865  37.7604151  53.4720230
  45.0643206  37.6723361  55.4439163  45.3421021  36.9474530  56.2090826
  46.3029957  38.4041786  55.0670290  46.5515852  39.1858768  55.7848358
  47.2151089  37.8092790  55.1144266  46.2605858  38.7794852  54.0445566
  44.1232777  38.5213947  56.1059856  43.3157063  38.0202031  56.2410259
  45.3800344  35.9946871  53.5915709  46.4346313  36.2906981  53.0537796
  44.8998690  34.7442770  53.4085226  44.0437269  34.5447016  53.9058113
  45.4128408  33.6935163  52.5258350  46.2352276  34.1514921  51.9762516
  45.8524370  32.4498558  53.4709072  44.9552774  32.2583032  54.0595627
  45.9539652  31.6502070  52.7371788  46.8702507  32.6029634  54.3910980
  46.4918375  32.2214508  55.1866198  44.4612074  33.0578351  51.5601206
  44.8629713  32.1627450  50.7992601  43.3069134  33.6831331  51.3564348
  43.0824757  34.3754125  52.0567703  42.3316002  33.2735133  50.3533125
  41.3823080  33.7833881  50.5175543  42.8207302  33.6376572  48.9546776
  43.7387133  33.0567288  48.8656664  42.0904160  33.3775640  48.1884575
  43.0420732  35.1524758  48.7636471  42.0056725  36.0509348  48.7659216
  42.6063156  37.2356510  48.7782192  42.0883608  38.1815791  48.8360786
  43.9500809  37.1838975  48.7776804  44.5159626  38.0187011  48.8322830
  44.2289400  35.8419013  48.7227345  45.1509047  35.2806258  48.6858749
  41.9184065  31.8569207  50.5489349  41.8096542  31.1129332  49.5734215
  41.7406273  31.4712405  51.8169260  41.8577433  32.2109413  52.4945879
  41.5133429  30.0953341  52.2372770  42.3145342  29.3936539  52.0052528
  41.5293694  29.9525905  53.7826300  40.7457304  30.5164051  54.2887259
  41.3096619  28.4894514  54.1376257  40.2667952  28.1796074  54.0703249
  41.9160080  27.8492570  53.4968472  41.6113329  28.3327985  55.1732683
  42.7426815  30.4315996  54.2555618  43.4311676  29.8161650  53.9932060
  40.1830673  29.4521356  51.6516161  40.1815939  28.2683277  51.3175249
  39.1267490  30.2434564  51.3415670  39.2143965  31.2124252  51.6127205
  37.9575944  29.8419166  50.5262470  37.3269463  29.1864753  51.1268997
  37.0725369  31.0601163  50.2732897  36.1725307  30.7414556  49.7474194
  36.8418622  31.4646530  51.2588072  37.6229095  32.1608949  49.4112778
  38.2896638  33.2770109  50.0160170  38.4125781  33.4012341  51.0817862
  38.7729049  34.2719769  49.1595936  39.2580104  35.1229548  49.6144724
  38.6951733  34.1588974  47.7718735  39.3366671  35.0703979  47.0312452
  40.2414083  35.1671934  47.3372984  38.1225705  33.0423808  47.1649265
  38.0635858  32.8886032  46.0975599  37.6095986  32.0482731  48.0122232
  37.2691035  31.1046600  47.6121569  38.2691622  29.1637611  49.1639042
  37.6163673  28.3164310  48.6290073  39.5186806  29.4145989  48.6292744
  40.1554394  30.0301433  49.1148138  39.9020052  28.9789200  47.2196674
  38.9972377  28.8084054  46.6362095  40.8634567  29.9854708  46.5656471
  40.4011440  30.9686780  46.6532135  41.7630672  30.0087428  47.1806765
  41.1558104  29.8945308  45.0666189  41.5760946  28.8953066  44.9525499
  39.8808646  29.8788929  44.1572714  39.4390535  30.8703160  44.0573311
  40.1918697  29.5105314  43.1796789  39.1184878  29.2030096  44.5446587
  42.0388079  31.0638928  44.5803261  42.3889256  30.9314322  43.5566187
  41.4909840  31.9944763  44.7286606  42.9136753  31.0021496  45.2275467
  40.7184076  27.5645161  47.2342968  40.7083797  26.8506670  46.1722994
  41.2623978  27.2110510  48.4449482  41.2340879  27.9027748  49.1803503
  42.1864271  26.0763097  48.6032200  42.6218033  26.1957479  49.5953321
  41.5888786  25.1681876  48.5235596  43.3283472  26.0158587  47.5156546
  43.4608030  25.0025892  46.8221521  44.1390991  27.1222854  47.3631477
  44.2441463  27.8332996  48.0727434  45.1969576  27.2847819  46.3385534
  45.1326847  26.4413404  45.6511068  45.0264549  28.5900807  45.5666780
  45.0798798  29.4271708  46.2627554  45.8443880  28.7180090  44.8576450
  44.1095448  28.8081980  45.0191402  46.5853310  27.1575475  47.0327902
  47.4509525  27.9847264  46.8617916  46.7849064  26.0667372  47.7949524
  46.0605621  25.3637719  47.7593851  47.9242277  25.8764148  48.6977339
  48.8284254  26.2498474  48.2170296  47.5847912  26.6686797  49.9950266
  48.3960152  26.4751792  50.6968641  47.5583601  27.7218533  49.7153330
  46.2270641  26.3181210  50.6046200  45.4684258  27.1975923  51.0261822
  45.8992672  25.1288319  50.8490324  48.2177687  24.3223691  48.9882088
  48.8496017  24.0279675  50.0016689  47.9778671  23.4180713  48.0855894
  47.5489140  23.6440253  47.1995640  48.6828756  22.0937943  48.1862736
  48.5905933  21.7622256  49.2205143  47.9282427  21.0560870  47.3244810
  47.3338699  21.6475582  46.6280746  48.5891819  20.4870749  46.6706562
  47.0576620  20.1161265  48.1977272  47.6365566  19.4726348  48.8602209
  46.3343811  20.6236315  48.8360071  46.0424376  19.1502762  47.1557379
  46.3767815  17.5291383  47.9530334  47.4346828  17.2841191  48.0474138
  45.9679794  17.5712562  48.9625931  45.8824492  16.7252028  47.4076748
  50.1482201  22.0886683  47.7822924  50.8394003  21.1000156  48.0994701
  50.6435966  23.0978632  47.0714426  50.0087786  23.8106370  46.7412043
  52.0703793  23.3489108  46.8557835  52.5936079  22.7354956  47.5893021
  52.4546146  22.9189038  45.4093409  51.9394493  21.9992971  45.1317978
  52.0932961  23.7033486  44.7443628  54.0333271  22.8540206  45.1741648
  54.1465521  22.6970124  44.1014910  54.3895006  23.8685060  45.3532362
  54.6431494  21.6407704  45.9582281  55.4416656  21.9483447  46.8532467
  54.4172144  20.4761243  45.7435179  52.2413301  24.8516583  46.9999695
  51.3304090  25.6425095  46.7341137  53.4130859  25.2273130  47.5098038
  54.0939617  24.4892740  47.6184750  53.8123178  26.5594721  48.1498623
  53.2195854  27.3401809  47.6731443  53.5858536  26.5981412  49.6157217
  54.0618467  25.7618904  50.1277924  53.9480925  27.5567818  49.9870634
  52.0965719  26.4886212  49.9820185  51.5694189  27.3414373  49.5543385
  51.5858364  25.6163073  49.5741844  51.9982004  26.5647936  51.4708853
  52.3250961  27.6719260  52.0348406  51.4903402  25.5822587  52.1561909
  55.3127718  26.8262124  47.8821468  56.2161589  26.0026670  47.9784536
  55.7125807  28.1129265  47.5762033  54.9454451  28.7543297  47.4340391
  57.0944738  28.5835218  47.4505854  57.6693916  27.6592755  47.5083733
  57.2861433  28.9821076  46.0142994  56.7140341  29.9043608  45.9130955
  58.3178139  29.2306852  45.7653666  56.7251778  27.9264593  45.0390148
  55.7053328  28.2888436  44.1946077  55.1670170  29.2039180  44.3927574
  55.2095270  27.4179316  43.2356834  54.3220329  27.6357794  42.6600981
  55.7884979  26.1586094  43.2002354  55.4487181  25.4255962  42.4835491
  56.8037701  25.7825184  44.0631962  57.2318745  24.7998476  43.9309454
  57.3302031  26.6716290  44.9854851  58.0621672  26.3566470  45.7144642
  57.5668669  29.6267033  48.4259987  56.8961000  30.4540563  48.9092207
  58.8846254  29.6072817  48.7190294  59.4472790  28.9931941  48.1477070
  59.6088457  30.5907774  49.5939493  58.9488316  31.2147856  50.1965332
  60.3261042  29.8077369  50.7439137  60.9583426  29.0770888  50.2394104
  60.9279633  30.5127716  51.3173294  59.3040133  29.2947650  51.7290020
  58.4512329  30.0401568  52.5414419  57.7642727  29.1276813  53.2150841
  57.1132708  29.2975950  54.0599108  58.2093287  27.8940392  52.8868484
  58.0061340  27.0776463  53.4457016  59.1987610  27.9371810  52.0187426
  59.8850679  27.1475339  51.7507172  60.5713701  31.5282440  48.8579226
  60.8410406  32.6179790  49.2889690  61.0682011  31.1670184  47.7160072
  60.7589102  30.2275276  47.5115681  61.9166088  31.8322802  46.7806673
  62.6393366  32.3742366  47.3906183  62.4121284  31.1749411  46.0661983
  61.1691189  32.8174973  45.8873749  59.9528742  33.0299354  46.0521221
  61.9292879  33.4565473  44.9903631  62.8834391  33.1254220  44.9833441
  61.4164019  34.5712113  44.1936684  60.3567839  34.5972896  43.9394283
  61.6576147  35.9215641  44.8654461  62.7258730  36.0309887  45.0523806
  61.2906408  36.7866302  44.3130970  61.0918474  36.0789299  46.2802839
  60.0692511  35.7090878  46.3551903  61.7071676  35.4981995  46.9674826
  61.0998631  37.4353075  46.9268990  62.1320772  37.7563739  47.0667315
  60.5275536  38.1321168  46.3145113  60.4273081  37.2802353  48.2001448
  60.1031351  36.4051080  48.5863638  60.0738049  38.2975483  48.9343214
  59.5129871  38.0562472  50.0538778  59.2793036  37.0912695  50.2391052
  59.1670465  38.7679887  50.6814528  60.2893257  39.5237327  48.7549925
  60.7822561  40.0124884  48.0213451  59.8070383  40.1767349  49.3558931
  62.1134377  34.5741940  42.8192949  63.0617094  33.8223910  42.5873947
  61.5989065  35.3692460  41.9622612  60.7013178  35.7255697  42.2580051
  61.9691801  35.6169724  40.6075048  62.9936600  35.2937031  40.4230165
  61.0324335  34.9265623  39.5593500  59.9876595  35.0892138  39.8240924
  61.1584902  35.4144430  38.1118631  62.1986485  35.1602936  37.9079580
  60.4832649  34.8472953  37.4711418  60.9645319  36.4761400  37.9592824
  61.2987328  33.5010886  39.6253276  60.5423021  33.1045985  39.1869187
  61.8569803  37.1203899  40.3471375  60.7762432  37.6983595  40.3533363
  62.9923439  37.8168821  40.1927376  63.8061714  37.2212052  40.1383495
  63.1726551  39.2396665  40.4066181  62.1796179  39.6027112  40.6715155
  63.9720201  39.3640685  41.7236614  64.9058390  38.8222170  41.5737486
  64.1788721  40.4150534  41.9255447  63.3148813  38.7810683  43.0090666
  63.0211210  37.7504945  42.8097630  64.3540668  38.7753344  44.1640091
  64.5556116  39.7858858  44.5193624  63.9851189  38.2027054  45.0149345
  65.2743769  38.3396149  43.7750673  62.2049570  39.6940470  43.5211372
  61.9711876  39.2048478  44.4667292  62.5340033  40.6807709  43.8470268
  61.4032030  39.7724032  42.7868700  63.8333225  39.7712946  39.0899587
  64.9846601  39.4443750  38.7022972  63.1624174  40.7822037  38.5529876
  62.2322702  40.9153414  38.9233875  63.5760689  41.5001345  37.3139691
  64.5335627  41.0944462  36.9872689  62.4781227  41.4913368  36.2669921
  61.6893959  42.0849371  36.7292118  62.7842999  42.0302963  35.3704000
  61.8892384  40.0906134  35.9418178  60.6124973  39.8424339  35.3901410
  60.5192566  38.5620975  35.1519561  59.7075272  38.0372143  34.6703005
  61.6857004  38.0325699  35.4807568  61.8583536  37.0445514  35.3619361
  62.5784683  38.9141917  35.9624982  63.6356831  38.8647652  36.1775661
  64.0040588  42.9542208  37.6575947  63.3926153  43.5954857  38.4755898
  65.0798750  43.4456921  37.0143247  65.5055237  42.9249430  36.2608361
  65.8223248  44.7149944  37.2388053  65.6893063  44.7583723  38.3197880
  67.2662973  44.4793463  36.8603683  67.5829697  43.4804296  37.1603489
  67.2753191  44.4497538  35.7708073  68.2932425  45.4113579  37.4561596
  69.2941523  45.6955242  36.7742944  68.1635237  45.7117081  38.6951828
  65.2360868  45.9076262  36.4837861  64.4918537  45.7807827  35.5010700
  65.6386805  47.0816946  36.9551373  66.3054180  47.0834112  37.7137947
  65.1535320  48.3402014  36.4757848  64.0650129  48.2840681  36.4847684
  65.6665850  49.5441914  37.3453426  65.2525949  50.4473925  36.8970799
  65.2811146  49.4169760  38.3569407  67.2216892  49.7127056  37.4752164
  67.9712534  48.7761784  37.2252274  67.6363993  50.6776476  38.0801344
  65.5358553  48.5302496  34.9592686  66.7161322  48.4599781  34.5888519
  64.4880867  48.8021708  34.1516495  63.6141682  49.1210556  34.5449448
  64.6525812  48.9821577  32.7273369  63.7254286  49.4042683  32.3396373
  65.5751610  50.1922321  32.3400378  66.6154003  49.8714876  32.2840548
  65.2274895  50.4864025  31.3497400  65.4379511  51.3146353  33.3701491
  64.3118668  51.8543434  33.4565091  66.4570475  51.8566084  33.8927412
  65.0011730  47.7909040  31.8918157  65.0685406  47.9018116  30.7012415
  65.0474072  46.6936445  32.5670552  65.0958014  46.7946243  33.5708284
  65.1824236  45.3907871  31.9400501  66.0779667  45.3161955  31.3231730
  65.3307152  44.3624830  33.0271792  66.0675573  44.6499395  33.7771988
  64.4160175  44.3107033  33.6177373  65.6198025  43.0760717  32.4917388
  66.1168480  42.6231146  33.1768513  64.0267086  44.9948263  30.9752488
  62.8225708  45.1625156  31.3380003  64.4301081  44.4498968  29.7866774
  65.3788662  44.5366335  29.4513559  63.4219217  43.9720678  28.7871647
  62.5274086  44.5550728  29.0063858  63.6860895  44.3496943  27.2579288
  64.6793747  43.9739847  27.0123196  62.7015924  43.6597300  26.3127542
  62.6925087  42.5713444  26.3714361  61.6617346  43.9693689  26.4172792
  63.1182623  43.8267517  25.3194809  63.4598303  45.8788729  27.1076035
  62.3738766  45.9526873  27.0496273  63.9074850  46.4055347  27.9504204
  64.0494728  46.5325451  25.8409739  64.0258360  45.7763767  25.0562787
  63.3490801  47.3569536  25.7071567  65.1064301  46.7575598  25.9834981
  63.2005787  42.5038290  29.0066743  64.0380096  41.6392374  28.8398290
  61.9133615  42.1708107  29.1451359  61.2932587  42.9633856  29.2311311
  61.4590311  40.7903004  29.5918441  62.2183990  40.0232458  29.4398856
  61.1248398  40.8232880  31.1334658  60.4107666  41.5928745  31.4266086
  60.7643270  39.8587537  31.4909601  62.3323154  41.1084890  31.9449067
  62.7899265  42.0460033  31.6290617  62.1065950  41.2088490  33.0065465
  63.4515047  40.0616407  32.0613432  63.2616997  38.8747501  32.1966839
  64.6686745  40.5102968  31.9150114  65.3946304  39.8569584  32.1724010
  64.8459625  41.5030575  31.8594384  60.2632570  40.2376270  28.7134457
  59.7261286  41.0103321  27.9236507  59.9973059  38.9510369  28.8047552
  60.5295181  38.4305263  29.4873381  59.1115427  38.1309748  27.9408693
  58.4294033  38.7871027  27.4002361  59.8298883  37.2795343  26.8772531
  60.6077194  36.5946698  27.2149587  58.8317537  36.5054774  26.0124826
  59.4484282  35.8381486  25.4104137  58.1324530  35.8504152  26.5320659
  58.3186722  37.1878052  25.3347826  60.5695152  38.2113552  25.9623456
  61.4320660  38.4804630  26.5720105  60.9760046  37.5769973  25.1746511
  60.0376844  39.0583467  25.5289149  58.2096004  37.2042680  28.8137484
  58.7664795  36.3228655  29.4473553  56.9185352  37.5130582  28.9177442
  56.6347361  38.2712770  28.3138704  56.0196638  37.1800256  30.0312448
  56.4845181  36.3303280  30.5312705  55.9074497  38.3178139  31.0673666
  55.1213503  38.9813280  30.7069492  55.4387140  37.6768756  32.3891568
  54.4608164  37.1983719  32.3357487  56.1594057  36.8893194  32.6092815
  55.2716637  38.2859373  33.2775450  57.2165108  39.1275096  31.3670683
  58.1017256  38.5113502  31.5247059  57.5311422  39.6876049  30.4865003
  57.1023273  40.0960684  32.5249410  58.0558681  40.6117249  32.6387930
  56.3036346  40.7868624  32.2547746  56.8283224  39.5665216  33.4374118
  54.6630764  36.6863322  29.4329238  54.0577841  37.4241638  28.6122179
  54.0678167  35.5167580  29.8231292  54.7874737  34.4153023  30.4016352
  54.6518612  34.5678544  31.4723563  55.8295965  34.4988799  30.0932550
  54.0611172  33.1745124  29.8753214  54.1808081  32.3461390  30.5735874
  54.5119190  32.9593945  28.9065075  52.6244926  33.7022734  29.8355532
  52.1621084  33.6331701  30.8201981  52.0333195  33.3042812  29.0108013
  52.7389336  35.1645255  29.4397306  52.7646971  35.3018045  28.3587122
  51.6253424  36.0139704  30.1005077  51.7535067  36.4292693  31.2370682
  50.5370045  36.2072706  29.3550754  50.3574800  35.6344700  28.5428143
  49.4696283  37.0726299  29.8254299  49.7055149  37.5712109  30.7655764
  49.1337061  38.0848694  28.7065125  48.7997961  37.5638962  27.8091812
  48.0363274  39.0618801  29.1305447  47.0995426  38.6476707  29.5033312
  48.3552504  39.6735716  29.9744797  47.6345205  39.6204424  28.2851696
  50.3757334  38.8209963  28.2619882  50.9275818  39.2410278  29.1029024
  51.0989571  38.1955576  27.7386594  49.9888849  39.5823574  27.5846577
  48.1847048  36.2573218  30.0849342  47.8081608  35.4702139  29.2447639
  47.5519371  36.4443207  31.2729955  47.8963661  37.2378206  31.7943645
  46.2450886  36.0119987  31.6630840  45.9187222  35.2658081  30.9386635
  46.3534832  35.3416681  33.0200481  46.7601776  36.0728836  33.7186337
  45.3188848  35.1217771  33.2834053  47.1038055  34.0394330  33.1807017
  48.1109953  34.1994071  32.7958822  47.1785545  33.7166572  34.6691060
  46.1701536  33.6015749  35.0665736  47.7061701  32.7848387  34.8726821
  47.7133560  34.5690632  35.0880313  46.4565802  32.7819347  32.6469350
  46.8850231  31.8154931  32.9125118  45.4373121  32.6943135  33.0231214
  46.3575602  32.8433895  31.5631819  45.2436876  37.1750426  31.6649842
  45.1124048  37.9108572  32.6648521  44.5320415  37.3924828  30.5273795
  44.4053888  36.5107179  29.3953371  43.9941740  35.5427623  29.6818113
  45.3209782  36.5178180  28.8039422  43.2465601  37.0537782  28.5356283
  42.3292303  36.6539574  28.9677715  43.2297421  36.6491675  27.5236464
  43.2668734  38.5493445  28.8119721  42.3007679  39.0278840  28.6515141
  44.0796709  38.9438987  28.2022285  43.6647463  38.5836601  30.2756000
  44.2234421  39.4761419  30.5574584  42.4102211  38.5918522  31.1663198
  41.5562963  39.4269562  31.0505295  42.1787214  37.6050305  32.0264935
  42.7122784  36.7653561  31.8522429  40.9892511  37.4921656  32.9608512
  40.1003599  37.3446751  32.3474789  41.2203550  36.2307978  33.7653494
  41.1967993  35.3769898  33.0881810  42.1072340  36.2940836  34.3958616
  40.0750017  36.0378551  34.8826838  40.5164433  35.3431463  35.5972552
  39.9178648  36.8723869  35.5660319  38.7719417  35.5097127  34.3552828
  38.2460594  35.7733345  33.2891679  38.1220317  34.8389030  35.2270007
  37.4544549  34.1916752  34.8326135  38.3399391  34.7010517  36.2035322
  40.9303045  38.7557793  33.9075041  39.9102163  39.3046284  34.3585658
  42.1043587  39.2745662  34.3006682  42.9572582  38.9456987  33.8711166
  42.2412634  40.2601242  35.3685689  41.5927267  39.9482632  36.1872506
  43.6970615  40.1382208  35.8943200  44.4325447  40.4057646  35.1356459
  43.8211632  41.0046291  37.2218657  43.0761099  40.6790113  37.9477906
  44.8091412  41.0460567  37.6804376  43.4593439  42.0274878  37.1172547
  44.1409588  38.7339711  36.3119102  45.0328779  38.7808180  36.9367123
  43.4107113  38.3658910  37.0325780  44.2481470  37.9798794  35.5321956
  41.9399834  41.7095137  34.9228764  42.7072573  42.4607086  34.3384862
  40.7054520  42.0858002  35.2758193  40.0875807  41.3734245  35.6375527
  40.2596951  43.4919643  34.9381900  40.9039688  43.9315939  34.1767836
  38.9231586  43.4107876  34.2496538  38.1648779  42.9280138  34.8661280
  38.6418390  44.4203091  33.9499354  38.9746070  42.7218342  32.8805685
  39.7441936  43.2498312  32.3174906  39.2848325  41.6778755  32.9254198
  37.5121188  42.5985289  31.8575811  36.4909673  41.4005899  32.9016352
  36.2214828  41.8214846  33.8703108  35.6202412  41.2656164  32.2599792
  37.1050978  40.5139637  33.0592370  40.2721262  44.3837261  36.1642432
  39.3053412  44.7409391  36.7454934  41.4986944  44.6332932  36.6673136
  42.2614765  44.3517208  36.0681605  41.9305611  45.1264238  37.9362917
  41.4162016  46.0136127  38.3056593  41.6349173  43.9930201  38.9894557
  40.5710506  43.9173222  39.2143106  41.9954920  43.0363703  38.6114144
  42.4392366  44.2468357  40.2449322  42.4715996  45.3146315  40.4614162
  41.8622208  43.8718843  41.0902500  44.0837097  43.5238075  40.3594398
  44.3771839  43.5875988  42.1319485  45.2104378  42.9751682  42.4765015
  44.5583344  44.6267843  42.4065018  43.5073948  43.2123947  42.6711988
  43.4262848  45.5200100  37.8229570  44.1527128  44.6610498  37.2578287
  43.8473988  46.7595053  38.1145978  43.1560707  47.4214315  38.4371233
  45.1926517  47.1973705  37.7917528  45.5636454  46.7058659  36.8923712
  45.1995659  48.7200928  37.4873495  44.9901819  49.2115021  38.4374952
  46.6172647  49.2196035  37.1136546  47.3923492  49.0287590  37.8558993
  46.9622469  48.8159275  36.1617422  46.6083336  50.3010798  36.9779277
  44.1193724  49.2431450  36.5038681  43.2038164  49.1019058  37.0782423
  44.2857027  50.2960443  36.2761855  43.9980698  48.5466433  35.1626205
  44.0154266  47.4593306  35.2370954  43.0435610  48.7258530  34.6677470
  44.8084641  48.9114523  34.5315361  46.0549450  46.8487835  38.9289641
  45.9633207  47.5557899  39.9782372  46.8250513  45.7392550  38.8020277
  46.8345737  45.2271414  37.9315400  47.7083158  45.1157951  39.8377967
  47.1325684  44.7614574  40.6928205  48.3380222  43.9081955  39.3025565
  47.6242113  43.2112789  38.8633657  49.0147781  44.2309856  38.5114145
  49.0686464  43.1087875  40.4077625  49.8857117  43.7951851  40.6299257
  48.2763910  42.8583002  41.6642618  48.1593800  43.7265491  42.3127604
  47.2980881  42.4136353  41.4817667  48.8020658  42.1772242  42.3335171
  49.6516371  41.8244982  39.8811579  50.3624630  41.2545633  40.4794931
  48.8243198  41.1654854  39.6178031  50.0814199  42.0415497  38.9032674
  48.8678885  46.0666609  40.2274084  49.3450594  46.7311859  39.3139124
  49.1560268  46.0919905  41.5113878  48.5717916  45.6286049  42.1925926
  50.2330637  46.8594790  42.1696329  50.7995224  47.5179672  41.5111351
  49.7055054  47.7680111  43.2073879  49.3245602  47.1995926  44.0558434
  50.7429171  48.7866688  43.5932827  51.0748720  49.3424702  42.7163601
  50.3244877  49.4609976  44.3404865  51.5476656  48.3435774  44.1799259
  48.4965372  48.6185789  42.5811672  47.6596928  47.9821920  42.2934103
  48.0894518  49.2958450  43.3319616  48.7704229  49.0828943  41.6338015
  51.1835957  45.8842278  42.8833771  50.7338238  44.9022532  43.4966707
  52.4955177  46.1809349  42.8272152  53.1211090  47.2240162  42.0571995
  52.9328585  48.1436920  42.6111555  52.7108765  47.1671772  41.0489464
  54.5996237  46.7669535  41.9833565  55.2428484  47.6397419  41.8710709
  54.7110891  45.9996986  41.2172031  54.8336124  46.0326004  43.2415438
  54.9722624  46.8152332  43.9874411  55.6487989  45.3113651  43.1833410
  53.4608459  45.3385878  43.5208797  53.4564495  44.3847752  42.9933023
  53.2786942  45.1672554  45.0001287  52.7820206  46.0960102  45.6197023
  53.5909319  43.9688778  45.5266905  54.0105152  43.2810879  44.9175978
  53.3745289  43.6330891  46.9333839  54.1493654  42.9425573  47.2663784
  53.4762192  44.6031475  47.4199486  51.9648743  43.0653286  47.2555590
  51.8324423  42.2898483  48.1500101  50.9449387  43.4900713  46.5521526
  51.2094545  44.0773058  45.7741499  49.5185280  43.0544949  46.5790129
  49.1520929  43.1555700  47.6005840  48.7246704  43.9982939  45.5891562
  49.0427637  45.0328016  45.7184172  48.9188337  43.7268353  44.5515060
  47.2050476  43.9555645  45.7975817  46.8983746  42.9680824  45.4527235
  47.1050262  44.1752672  46.8605185  46.3238239  44.9438095  45.0388002
  46.6980028  45.3649616  43.9686298  45.1993704  45.3691196  45.4996824
  44.7349977  45.9984064  44.8605728  44.8905516  45.2596712  46.4550638
  49.2400122  41.5657568  46.1968756  49.6812630  41.1261511  45.1477861
  48.3729506  40.8196592  46.9576693  48.0675888  41.2247705  47.8310204
  48.0645370  39.4569898  46.6911650  48.9730310  38.9198375  46.4187431
  47.4436712  38.6822391  47.8263044  46.5330267  39.1248131  48.2299852
  47.1423674  37.1960807  47.5352144  48.0393934  36.6288924  47.2867393
  46.9630480  36.7917395  48.5314369  46.3703299  36.9251609  46.8150330
  48.3708477  38.6503887  48.8119221  48.5064363  39.5401239  49.1459703
  47.0358849  39.4591975  45.5640221  46.1737680  40.3518915  45.4975224
  46.9520950  38.3562016  44.8065758  47.7368784  37.7339721  44.9371290
  46.1709785  38.1578684  43.6373663  45.2640057  38.7415433  43.7949133
  46.9216061  38.5449958  42.3645592  47.2595549  39.5703077  42.5149775
  47.8062868  37.9254532  42.2175741  46.1483765  38.4152985  41.0058975
  46.0778618  37.3607564  40.7392979  44.7610903  39.1263318  40.9645367
  44.8530865  40.1825380  41.2176418  44.5376873  39.0377688  39.9013567
  44.1040039  38.5356331  41.6028261  47.0434570  39.0572667  39.9448371
  48.1033230  38.9094281  40.1520491  46.8787575  38.6381054  38.9522243
  46.8209696  40.1232958  39.8981285  45.8552361  36.6481805  43.5477686
  46.6957569  35.8123064  43.1402349  44.6133518  36.2693763  43.9339781
  43.8771200  37.0127177  44.8640347  43.5542297  37.9285192  44.3689060
  44.4044924  37.1726918  45.8044529  42.6962948  36.0143542  45.1352835
  41.9074631  36.2652302  44.4261265  42.3582268  36.2099671  46.1529016
  43.1507158  34.6339750  44.7876596  42.2908926  34.0360332  44.4855356
  43.6473322  34.1247773  45.6136084  44.1498327  34.8734331  43.6392450
  44.9458170  34.1388226  43.7611151  43.4884644  34.7939491  42.2733688
  42.9654503  35.7500672  41.7498589  43.3734798  33.6180401  41.7402029
  43.7265682  32.8565550  42.3019600  42.8441238  33.4025717  40.3689384
  41.9729948  34.0499377  40.2681255  43.9211464  33.6411071  39.2449307
  44.8706150  33.8789415  39.7245669  43.9850569  32.7247667  38.6581302
  43.6684036  34.8389101  38.3489633  43.5060930  35.7107401  38.9827394
  44.9162674  35.2651167  37.4433327  45.0020695  34.6436477  36.5519762
  44.8143578  36.3186955  37.1831632  45.8827877  35.1910901  37.9417896
  42.4372768  34.6033764  37.4724722  42.2866011  35.5636168  36.9791794
  42.7347469  33.8562608  36.7366529  41.6562366  34.3614554  38.1932712
  42.2869587  32.0168161  40.3475618  42.7462101  31.1053896  41.0608721
  41.2767601  31.7887092  39.4515038  40.8125591  32.4850345  38.8860416
  40.9788704  30.4208660  39.0403581  41.7589235  29.7533417  39.4064784
  39.7105956  29.8823380  39.7417402  39.8098016  30.0195670  40.8185053
  38.8246012  30.4312825  39.4227242  39.4977498  28.3924127  39.6014333
  39.2974472  28.1646180  38.5544896  40.4609060  27.9917693  39.9175286
  38.4880805  27.7287126  40.5020380  37.5160694  28.2780385  41.0006046
  38.5861588  26.4410639  40.6918526  37.8759408  25.9427953  41.2089825
  39.2564392  25.9270930  40.1380873  40.9175253  30.1636195  37.4742484
  40.5036211  31.0113907  36.7069101  41.3900423  28.9892745  37.0329523
  41.8687916  28.4593081  37.7471232  41.4643908  28.5738635  35.6667852
  40.9509468  29.2334723  34.9672127  42.9392719  28.7535715  35.2447724
  43.4872532  28.0786228  35.9022403  43.0529737  28.3717203  34.2301965
  43.6622047  30.0843167  35.1690507  43.6552477  30.5098081  36.1725497
  45.1078320  29.8819780  34.7220564  45.5869627  30.8138752  34.4218946
  45.5510426  29.6154118  35.6815386  45.1008463  29.0625024  34.0033722
  43.0056143  30.9493446  34.1878939  42.8153658  30.5803394  33.1800461
  41.9748640  31.1357641  34.4893956  43.4289837  31.9536114  34.1703510
  41.0264635  27.1751213  35.3433895  41.0786581  26.2955260  36.1562562
  40.5830669  26.9825387  34.1035461  40.8785248  27.6464534  33.4021020
  39.6169901  25.9943986  33.5961699  39.7981071  25.1220274  34.2240739
  38.1528974  26.3146114  33.8781905  37.6482773  26.8415236  33.0683589
  37.5463152  25.4172873  34.0005326  37.8246784  27.1644616  35.0899100
  38.0629539  28.5415316  35.0163579  38.4725237  28.9856768  34.1211534
  37.6680660  29.3294454  36.0876274  37.8912187  30.3856659  36.0560012
  37.1981120  28.8413215  37.2671080  36.9777036  29.5139623  38.0828142
  36.9990325  27.4375391  37.3055720  36.5177321  26.9812942  38.1579757
  37.3226857  26.6198754  36.1890388  37.1106172  25.5649686  36.2817979
  39.8840666  25.6478691  32.0908332  39.5749927  24.4954562  31.7495561
  40.4020357  26.5746284  31.2667966  40.5621576  27.4807429  31.6832304
  40.5673218  26.4836192  29.7705483  39.6988082  26.0058594  29.3171978
  40.6974745  27.9366350  29.1916442  39.8642230  28.5603547  29.5153236
  41.5669775  28.4673452  29.5794678  40.6972599  27.8763890  27.6551533
  41.8026829  27.5688672  26.8631220  41.3703966  27.7870917  25.6087136
  42.0110655  27.6798940  24.7458935  40.0796318  28.1184840  25.5794358
  39.4175768  28.2393336  24.8263240  39.6170926  28.1941986  26.8938279
  38.6257958  28.4438920  27.2422361  41.8247795  25.6721616  29.5144558
  42.9263115  26.0038424  30.0371671  41.8214035  24.5838881  28.6733222
  40.7559252  24.1137743  27.8832984  40.2069664  24.9481916  27.4468350
  40.0412989  23.4858894  28.4154367  41.4359093  23.2341886  26.8553925
  41.8417263  23.9066148  26.0995770  40.8207035  22.4374413  26.4372754
  42.6243114  22.6904511  27.5792623  43.4333324  22.5221658  26.8684363
  42.3927784  21.7074943  27.9894853  42.9313278  23.6551762  28.6267972
  43.0567789  23.0981016  29.5552540  44.2802429  24.3076563  28.3162689
  45.2682352  24.0342808  28.9884543  44.2764282  25.2696919  27.4195337
  43.4102583  25.6687570  27.0869732  45.5122948  26.0448265  27.1024776
  46.3465691  25.4059482  26.8127799  45.4258013  26.9270420  25.7920122
  44.7294331  27.7394700  25.9997058  46.4157009  27.3777342  25.7207990
  45.0610876  26.2048173  24.5249629  45.9209108  25.5770373  24.2910933
  44.2216921  25.5507350  24.7609568  44.7234821  27.1919203  23.3650970
  44.0941906  28.2288766  23.5409522  44.9977064  26.7855668  22.1876693
  44.7455788  27.4573207  21.4768386  45.4357862  25.8900976  22.0254469
  46.0230064  26.9642854  28.2745051  47.2407484  27.0188403  28.4212232
  45.1246214  27.6201010  29.0737081  44.1249704  27.5548697  28.9451027
  45.5648613  28.4717393  30.1947117  46.2852240  29.2357802  29.9024343
  44.4670916  29.2992163  30.7096529  43.7688732  28.5162425  31.0055399
  44.7571611  29.8448205  31.6075826  43.9564276  30.2554083  29.5862985
  44.8124552  30.7288885  29.1055369  43.5328531  29.6340251  28.7972689
  42.9455328  31.2705755  30.0469589  43.0219936  32.4371195  29.6146083
  42.0201492  30.9198761  30.8015013  46.0801792  27.5840640  31.3651371
  47.2003937  27.8135657  31.8189216  45.3708601  26.5221858  31.8070269
  44.4176626  26.3768911  31.5063548  45.8129549  25.4283547  32.6069045
  45.9110689  25.7109094  33.6550665  44.8531866  24.2880464  32.4921489
  44.6243620  24.1517067  31.4351940  45.3718758  22.9706597  33.1050754
  46.0313416  22.4413514  32.4172950  45.8078623  23.1408978  34.0894723
  44.5625782  22.2428417  33.1635475  43.5093164  24.6693730  33.2301140
  43.0059624  25.4700637  32.6882362  42.7792168  23.8791108  33.4048724
  43.8251448  25.1270437  34.1676068  47.2321892  24.9962115  32.2101307
  48.1511497  25.1629305  32.9969525  47.5138807  24.5088148  30.9777737
  46.7812490  24.4735408  30.2834320  48.8190985  23.9775062  30.5819869
  49.2425680  23.4237576  31.4199233  48.7688541  23.0652809  29.3511629
  47.9718208  22.3263550  29.4338369  48.5151243  23.6334324  28.4562135
  49.8601246  22.1935320  29.2122769  49.5781803  21.2887073  29.0592980
  49.8185730  25.0754023  30.3625107  51.0240316  24.7766519  30.5430031
  49.4911337  26.2973404  29.9676442  48.5478735  26.4949083  29.6654367
  50.3460789  27.4429846  30.1676273  51.2237787  27.3502016  29.5279908
  49.5707989  28.6560130  29.5883870  49.1519117  28.4490013  28.6036134
  48.6877346  28.8954115  30.1808310  50.4154158  29.9408841  29.4170260
  51.3463736  29.6448755  28.9335036  49.9177694  30.5726457  28.6812782
  50.7797670  30.9666133  30.8941293  49.5526266  32.2545910  31.0435128
  49.3251038  32.6388216  30.0491810  48.6715126  31.7371345  31.4229631
  49.9220896  33.0585814  31.6800642  50.7826185  27.5860643  31.6297460
  51.9717741  27.6183915  31.8366528  49.8724127  27.8039980  32.5902390
  48.8899660  27.8386950  32.3585320  50.3042841  28.1085944  33.9662910
  51.0734653  28.8581800  33.7803340  49.1245365  28.7977004  34.7711921
  48.3886290  28.0505705  35.0684071  49.7774220  29.3862700  36.0071516
  50.3359270  30.2711010  35.7017827  49.0838051  29.8911405  36.6795397
  50.3653574  28.6346054  36.5338707  48.5025263  29.9799085  34.0300488
  47.8693771  29.6384716  33.2111239  47.8565931  30.5320072  34.7127366
  49.2884493  30.6567907  33.6950016  51.1000443  26.8675017  34.5959139
  52.0578098  27.0815730  35.3150249  50.7198286  25.6834984  34.1724992
  49.8710251  25.6100893  33.6300588  51.4859581  24.4195437  34.5692539
  51.4953852  24.4242263  35.6592035  50.7697296  23.1963181  34.1661119
  49.7225761  23.3497357  34.4269514  50.7719851  23.1788445  33.0762553
  51.3708258  21.9148898  34.7615671  52.4291086  21.8097711  34.5226502
  51.4198065  21.8992567  35.8503604  50.6891394  20.6009722  34.2844510
  50.7665539  20.4945803  33.2024217  51.2629557  19.7772133  34.7090244
  49.3214369  20.5604196  34.6659184  49.1814327  20.5939269  35.6656075
  48.2735062  20.2710915  33.9111280  48.3380508  20.1724195  32.5792432
  49.1362429  20.6243682  32.1564746  47.4938059  19.8172212  32.1535873
  47.1147251  19.9817288  34.4342637  46.8687057  19.9334764  35.4126549
  46.3803482  19.7859025  33.7690973  52.9501438  24.4735599  34.2142177
  53.8116407  24.1606522  35.0394034  53.2125473  25.0173473  32.9874182
  52.4193573  25.4462743  32.5324750  54.4669819  25.3107452  32.3735857
  55.1226997  24.4607973  32.5626016  54.3774700  25.3068352  30.8384538
  53.9064217  24.3817353  30.5061817  53.6833096  26.0649300  30.4757643
  55.7265854  25.4960251  30.1653695  56.1317158  26.5671277  29.7676110
  56.4802170  24.3944454  29.9145508  57.1591187  24.4800186  29.1716671
  56.2077188  23.5035586  30.3046346  55.1793289  26.5710092  33.0055332
  56.3973141  26.5141892  33.2346177  54.4099140  27.5780129  33.4039021
  53.4427023  27.4943209  33.1253409  54.8304176  28.8106799  34.0987802
  55.5837584  29.1428924  33.3844805  53.7596989  29.8350215  34.0977955
  53.3227825  29.8082304  33.0995536  52.9793024  29.5995188  34.8214126
  54.2203617  31.2207794  34.5632052  54.2818403  31.2323833  35.6514096
  55.4569292  31.7180061  33.8689017  55.4830313  31.5014839  32.8009415
  55.5057669  32.7924633  34.0456915  56.3481665  31.3269520  34.3596888
  53.0753946  32.2177267  34.2992210  53.1143332  32.9913139  35.0661278
  53.1959295  32.7267957  33.3429646  52.0779467  31.8084407  34.4594717
  55.4945993  28.5251880  35.4760742  56.4672899  29.0530801  35.9565663
  54.7486734  27.7164507  36.2230206  53.8339043  27.4775410  35.8677483
  55.1328230  27.1952462  37.4929953  55.2598238  27.9642320  38.2549882
  53.9749289  26.4054036  38.0529261  53.4017420  25.8937693  37.2797632
  54.3163443  25.4923558  39.2403483  55.0996828  24.7943068  38.9450312
  54.6353960  26.1263156  40.0676298  53.4825373  24.8562169  39.5373178
  52.8597641  27.4045706  38.6233306  53.1657600  27.7261543  39.6188450
  52.8228378  28.3268237  38.0435133  51.4614582  26.7586040  38.6749506
  50.7344627  27.5155163  38.9693427  51.2261105  26.2350035  37.7483678
  51.4736223  26.1351442  39.5689583  56.4904404  26.4153790  37.5186872
  57.3479700  26.4760923  38.4360528  56.6822338  25.5270314  36.5362716
  56.0841751  25.5234075  35.7223821  57.8954124  24.7704720  36.3167429
  58.2136583  24.4442010  37.3068762  57.6250362  23.4389353  35.5869555
  57.1159077  23.7604165  34.6783590  58.5873127  22.9902029  35.3404450
  56.7921019  22.4180841  36.4785624  57.4420071  22.0601726  37.2770739
  55.9838200  22.9645991  36.9644690  56.2164164  21.1776423  35.7192516
  56.1822844  21.1166692  34.5333219  55.7521725  20.1450539  36.3660645
  55.1491928  19.4369102  35.9723020  55.7088423  20.2090549  37.3730993
  59.0727997  25.5740452  35.7086372  60.2482748  25.2303457  35.9071350
  58.7678480  26.6977334  34.9791002  57.8127718  27.0259953  34.9658346
  59.7398901  27.7396894  34.5802546  60.7381773  27.3733926  34.3407798
  59.1077375  28.4035468  33.3260655  58.9867640  27.7195239  32.4860787
  58.2073641  28.9423323  33.6212420  60.1488256  29.4446778  32.8519940
  61.3378572  29.1553855  32.7614570  59.8052073  30.6682491  32.5165296
  60.5178118  31.3560915  32.3186207  58.8395548  30.9458637  32.4138522
  60.1111460  28.7346864  35.6991482  61.1927891  28.5581279  36.2473893
  59.3518639  29.7686148  35.9854293  58.4427786  29.8044658  35.5468178
  59.7698927  30.9194231  36.7785645  60.4931211  30.5035996  37.4800849
  60.5937243  31.9295549  35.9602380  61.1304665  32.5133228  36.7080522
  61.3689852  31.5181494  35.3138518  59.8208904  32.9030490  34.9500608
  60.4804182  33.8358521  34.4195604  58.5833836  32.6353264  34.7082281
  58.7111330  31.6717148  37.5620103  59.0056038  32.6617527  38.2574224
  57.4678230  31.0941124  37.5534773  57.4321651  30.2110004  37.0646548
  56.3130140  31.4443231  38.3255863  55.5804443  30.6848025  38.0525041
  56.5851831  31.2757063  39.8391104  57.3021221  31.9684887  40.2797318
  55.6952381  31.4420199  40.4461050  57.1132898  29.8414183  40.1573658
  56.3188362  29.1165829  39.9797320  58.0700064  29.6204042  39.6841335
  57.4508429  29.6654034  41.6539478  56.5334368  29.8284745  42.2195244
  57.7380848  28.6165929  41.7287302  58.5384274  30.5681419  42.0928192
  58.3163214  31.4518356  42.5285435  59.8593283  30.5543876  41.8292904
  60.5251789  29.5710230  41.3031912  60.0475597  28.7328935  41.0039902
  61.5347910  29.5957947  41.3160229  60.6228161  31.5677953  42.1084785
  60.2295446  32.4827647  42.2766256  61.6062403  31.4712572  41.8995380
  55.5285788  32.6789498  38.0377078  54.6163845  33.0934405  38.8060069
  55.9489536  33.3763480  36.9935441  56.6854286  32.9652095  36.4379597
  55.7663012  34.8194838  36.7823792  55.2890015  35.2997017  37.6365948
  57.1216249  35.4807472  36.6639519  57.6867723  34.9856734  35.8742619
  56.9926786  36.9575715  36.3783193  56.3404894  37.1260715  35.5213761
  56.6698647  37.6011133  37.1967006  57.9810286  37.2076774  35.9926867
  57.7128363  35.2968264  37.9202366  58.1247425  34.4314408  37.8651333
  54.8672247  35.2060962  35.5406189  55.3177547  35.0715685  34.4299483
  53.7009287  35.7530093  35.7633638  53.4032106  35.9552121  36.7070675
  52.7080488  36.2021971  34.7738814  53.0632734  35.9349251  33.7786484
  51.3194799  35.5656910  34.9400020  50.7088280  35.9597921  34.1276646
  51.4478683  34.4946337  34.7835875  50.5844069  35.8160377  36.1552119
  50.6271219  34.8674321  37.2006130  51.2514210  33.9894366  37.1245980
  49.7233915  35.0339460  38.2769084  49.6595478  34.3634486  39.1211581
  48.8213444  36.1070347  38.2959008  48.0710649  36.2338829  39.0623188
  48.8569164  37.1313238  37.3407841  48.1178999  37.9183507  37.3117876
  49.6979332  36.9149685  36.2186432  49.6049023  37.5478172  35.3484440
  52.5996637  37.6943660  34.7909737  52.9958344  38.3141994  35.7561827
  52.0896006  38.2350826  33.6958861  51.7388725  37.6717973  32.9344392
  51.9446039  39.6975517  33.4904385  52.3967505  40.3151512  34.2664766
  52.5359297  39.9936676  32.0977473  52.0568943  40.8674240  31.6559601
  53.6024427  40.1636410  32.2452378  52.4187279  39.2316532  31.3272238
  50.4163647  40.0065613  33.5353565  49.6060514  39.3597794  32.8554869
  50.0173616  41.0669804  34.2823792  50.6789684  41.4396048  34.9483609
  48.6679077  41.6280842  34.3692183  48.0258799  40.9105730  33.8582587
  48.2376051  41.8095493  35.8044744  48.9199400  42.4223804  36.3935041
  46.9201994  42.5252533  35.9361362  47.1569490  43.5892153  35.9425592
  46.1347103  42.2247028  35.2427554  46.5553474  42.3783302  36.9526982
  48.1880522  40.4139376  36.4810157  49.1937065  39.9969649  36.5347815
  47.7866697  40.4603863  37.4933553  47.6300669  39.6642971  35.9199595
  48.7081575  42.9189348  33.5512996  49.3599224  43.9027929  33.9326572
  48.2214212  42.8227425  32.3217869  47.7756977  41.9681025  32.0200777
  48.1210852  44.0116453  31.4497471  49.0972424  44.4929075  31.5098691
  47.8622198  43.5424328  29.9467182  47.4688244  42.5343943  29.8155785
  47.1201706  44.1653919  29.4473338  49.1876125  43.6202765  29.0854788
  49.8728848  44.3707609  29.4795322  49.8789835  42.2832537  29.2166233
  49.2561245  41.5463543  28.7095404  50.8405209  42.2659826  28.7035394
  50.0490093  42.0798492  30.2738929  49.0209818  44.0397978  27.6704025
  48.3837223  44.9139261  27.5366044  49.9654913  44.1621161  27.1402764
  48.4817839  43.2177353  27.1996713  46.9923449  44.9215984  32.0037770
  45.8839130  44.4144869  32.3202205  47.2710228  46.2202883  31.9796467
  48.1718779  46.5507936  31.6644907  46.3983679  47.1815586  32.6784682
  45.9642267  46.7346191  33.5728192  47.3062325  48.3003998  33.2492304
  48.0026102  48.5379171  32.4450254  46.7744684  49.2246962  33.4750867
  47.7697468  47.9091740  34.1548800  45.2185011  47.7559614  31.8632746
  45.1452780  48.9351559  31.4500380  44.1875982  46.9305038  31.6842723
  44.2469645  46.0156727  32.1081424  42.9187059  47.3020363  30.9340072
  43.1463146  47.9030275  30.0536036  42.1875811  46.0521603  30.4376602
  41.5457916  45.6674051  31.2302375  41.4026022  46.2975454  29.7223330
  42.9349136  44.8490143  29.8757005  43.5493279  44.8698473  28.6430240
  43.7375307  45.8177662  28.1609106  44.2497349  43.7676239  28.2468891
  44.8442459  43.8324404  27.3475766  44.3324232  42.5747728  29.0005398
  45.0620699  41.6042137  28.5015082  45.1038504  41.6756582  27.5450778
  43.6562729  42.5540161  30.2184725  43.5112047  41.6325426  30.7627535
  42.8799868  43.6698627  30.6216931  42.2663021  43.6730671  31.5103912
  42.0257187  48.2878304  31.7433715  41.0481596  47.8614759  32.3269558
  42.1897888  49.6040630  31.6386056  42.8947020  49.9337959  30.9948015
  41.4056396  50.6075001  32.3338771  41.3031435  50.3924894  33.3975339
  41.9656038  51.9511843  32.1250963  41.3527298  52.6770973  32.6594591
  42.9615498  51.9388914  32.5678611  42.0654583  52.4627447  30.8122158
  42.7564144  51.9706821  30.3627014  40.0233984  50.8018112  31.7358947
  39.1345406  51.1843395  32.4441361  39.8863077  50.3054953  30.4986000
  40.6812000  49.7879124  30.1516724  38.5749626  50.1376104  29.8193264
  37.9884553  50.9945583  30.1506209  38.6873007  50.2987623  28.3047247
  37.7315235  50.1692581  27.7969646  38.9923930  51.3169670  28.0633330
  39.6428180  49.4329739  27.5757933  40.3844261  48.6212254  28.0589199
  39.7608232  49.6636438  26.3313198  40.5361891  49.2394829  25.8424520
  39.0915585  50.2553463  25.8600712  37.6922536  48.9058399  30.1741457
  36.6594243  48.6668825  29.6103621  38.1687284  48.0410576  31.0870314
  39.1478610  48.0597353  31.3341284  37.5058031  46.7403793  31.5556836
  38.1985927  46.2593365  32.2461462  36.2853193  47.0439148  32.4365115
  35.3219652  47.1536732  31.9385147  36.0778356  45.9522724  33.5294509
  36.8005466  45.9407806  34.3453288  35.0531816  46.0726643  33.8811517
  36.2057161  44.9399662  33.1460714  36.5783072  48.2801437  33.3625245
  35.9237361  48.4791946  34.2110634  37.5956893  48.2357502  33.7511992
  36.5365934  49.1675901  32.7310181  37.3353195  45.7056475  30.4443264
  38.2886958  45.3908253  29.7835970  36.1078644  45.2073765  30.2470422
  35.3145123  45.4795647  30.8097196  35.6901407  44.2799425  29.1939974
  36.2037992  43.3800793  29.5323658  34.1835237  44.0328455  29.2291760
  34.0114999  43.2310724  28.5110760  33.9281201  43.5114050  30.1516557
  33.3231902  45.2724028  28.8502979  33.8586736  45.7841349  28.0506158
  32.3989916  44.8538160  28.4518743  32.9160810  46.2326288  29.9735498
  33.3087206  46.0621262  31.1195755  32.2788048  47.2959995  29.7237158
  32.0866799  47.8900433  30.5176282  31.8954253  47.5894976  28.8365912
  36.2331486  44.5228291  27.8125715  36.2125802  43.6166334  27.0063138
  36.5637517  45.7875824  27.4519897  36.4441013  46.4938021  28.1640553
  37.0487976  46.1920786  26.1198926  36.4674282  45.7468939  25.3124738
  36.9494605  47.6814747  25.8227444  37.4001288  48.1865168  26.6771054
  37.3503089  47.9469061  24.8444963  35.4083562  48.1122351  25.7434368
  34.9120760  48.0332851  26.7106867  35.3754973  49.1834450  25.5445933
  34.5082068  47.3459244  24.7019291  34.9724889  46.8722153  23.6368179
  33.2563615  47.4490929  24.8840547  38.5060906  45.7438231  25.8812380
  38.8210320  45.4654360  24.7651315  39.3227839  45.6841898  26.9043875
  38.9671850  45.9310818  27.8169084  40.7026768  45.2787638  26.8775821
  41.1501884  45.5712032  27.8274798  40.7431173  43.7674952  26.7706203
  40.1123524  43.4254026  25.9501243  41.7588520  43.4662724  26.5144110
  40.3912354  43.1091690  28.0623150  40.9252119  43.5803890  28.8874936
  39.3237114  43.2483482  28.2329774  40.5498075  41.6259670  27.9302239
  40.1290989  41.2096071  27.0149374  41.6286945  41.5201616  27.8166223
  40.1765203  40.9251213  29.2207241  40.8894682  40.5531740  29.8318410
  38.9267302  40.6053162  29.6067357  37.8559256  40.9713078  28.9630222
  38.0081654  41.4002705  28.0614018  36.9756842  40.7380342  29.3998909
  38.8218474  39.9501467  30.6899238  39.6013999  39.6831632  31.2739754
  38.0089712  39.3550754  30.7622600  41.7008924  45.9750748  25.9203625
  42.0978069  45.5752563  24.8229575  42.0663500  47.2184086  26.3089871
  41.5239763  47.6737642  27.0291114  43.2132578  47.9197311  25.7434440
  43.7507820  47.3209953  25.0081325  42.7887535  49.2120886  24.9745941
  42.4506664  49.9786949  25.6718135  43.7211084  49.6433878  24.6101713
  41.8649530  48.8527632  23.7899280  42.1365023  47.8886366  23.3600235
  40.8424473  48.6883783  24.1298676  41.9023609  49.8678160  22.6797366
  41.2480593  49.6566963  21.5973735  42.4812222  50.9453058  22.8771067
  44.2284012  48.3909750  26.8246508  43.8855362  48.6465025  27.9981804
  45.5236483  48.4376335  26.5326118  45.9021759  48.1894302  25.6297207
  46.5326929  48.5993528  27.5699115  46.2199640  49.3666172  28.2781577
  46.5260029  47.2009087  28.2882905  46.9390392  46.4266682  27.6417208
  47.1157408  47.2115850  29.2049170  45.5304527  46.8025351  28.4839177
  47.9108000  48.9129877  26.9708300  48.3921671  48.3629084  25.9978938
  48.7135410  49.6965551  27.6496077  48.4095287  50.1883745  28.4777355
  50.1299953  50.0329256  27.3226213  50.4524469  49.4589186  26.4539194
  50.2411747  51.5980482  27.0680737  49.4260454  51.9912386  26.4605641
  50.1669884  52.1609545  27.9985285  51.5600967  51.8791771  26.4375329
  52.3208570  51.5493202  27.1450186  51.6662645  51.1716032  25.6152391
  51.8226862  53.2769632  25.9100509  51.1759996  54.2562819  26.3586998
  52.7280092  53.4864140  25.1196051  51.0136032  49.5951891  28.4474945
  52.2251415  49.4889164  28.2706547  50.4301882  49.2344713  29.6130753
  49.4320917  49.2132616  29.7661948  51.1595249  49.0708017  30.8831882
  52.2212362  48.8863039  30.7193851  51.0569572  50.3151131  31.7665577
  50.0265694  50.6288481  31.9338083  51.3748264  49.9953699  32.7589393
  51.8446636  51.5292406  31.3436007  51.3033676  52.5569201  30.5074596
  50.2806473  52.4192667  30.1888633  52.1630383  53.5507488  29.9921536
  51.8913937  54.1922092  29.1668439  53.4366894  53.7073231  30.4947114
  54.0703917  54.4968748  30.1186371  53.8905096  52.8501701  31.5442944
  54.7924852  53.0638456  32.0985413  53.1274557  51.6868353  31.8621874
  53.5461950  50.9571505  32.5394034  50.6752968  47.8326130  31.7048669
  49.8243284  47.1136808  31.2277079  51.1753702  47.5184584  32.8791785
  51.9621754  48.0710936  33.1884193  50.7605314  46.4199257  33.7156630
  49.8482084  46.6439342  34.2684674  50.5933046  45.5792856  33.0422735
  51.7954016  46.0808897  34.8137236  52.7132893  46.8627930  34.9964261
  51.7658377  44.9268150  35.4733014  51.0711336  44.2454767  35.2026224
  52.6335669  44.5035791  36.6352892  53.6351252  44.9196911  36.5264654
  52.2215843  45.1296425  37.9673529  51.1317205  45.1463556  37.9632425
  52.4919271  44.2934847  39.1642523  53.5473394  44.0292311  39.2303848
  52.3015833  44.8655605  40.0723267  51.8656588  43.4081793  39.2743325
  52.6759481  46.4046192  38.1377149  52.4402237  46.8798018  37.3375678
  52.6978827  42.9623079  36.6276646  51.7322493  42.2592068  36.2832046
  53.9640427  42.5299358  36.8358350  54.6862125  43.2069206  37.0364761
  54.2971182  41.1276102  37.0833492  53.9159775  40.5281973  36.2565804
  55.7604742  40.7960129  37.1202445  55.9579277  39.7422719  37.3170853
  56.4078712  41.2479973  35.8106685  55.8454657  40.8650303  34.9591112
  56.4916039  42.3345137  35.7867289  57.3798132  40.7555771  35.7798362
  56.4393139  41.5299749  38.0864024  57.1709204  40.9445715  38.2953477
  53.6195326  40.6795359  38.4212279  53.6825371  41.4193964  39.4045544
  52.9539156  39.5504451  38.4587669  52.9367733  39.0205336  37.5991154
  52.5836945  38.7413454  39.6130610  52.7596235  39.2849565  40.5413055
  51.1177444  38.4216595  39.5125508  51.0462332  37.4287605  39.0685463
  50.6104040  38.4396982  40.4771137  50.6383419  39.2270851  38.9561677
  53.4382868  37.4771857  39.6382856  53.4334755  36.6557622  38.7075686
  54.0666294  37.2008657  40.7574177  53.9440536  37.8730845  41.5011930
  54.7196293  35.9384990  41.0244989  54.9003315  35.5081391  40.0394917
  56.0958099  36.0671592  41.5864515  56.5566301  36.8916535  41.0424328
  56.0243940  36.2761283  42.6538467  56.8199348  34.7380376  41.3571119
  56.2404346  33.8640666  41.6545153  57.0003796  34.6724820  40.2841520
  58.1409931  34.6952629  42.1061850  58.8090372  35.6837583  42.3858356
  58.6180258  33.5896635  42.4151468  53.8251448  34.9755001  41.8191481
  53.4153080  35.2655792  42.9454803  53.5056734  33.7829876  41.2606001
  53.9642525  33.6071491  40.3780556  52.8512621  32.6662087  41.8796062
  51.8604279  32.8839445  42.2782803  52.5681114  31.5965366  40.8456612
  53.4301949  31.3357472  40.2317333  52.1308661  30.3511429  41.5087986
  51.3361597  30.6201363  42.2046328  51.7814445  29.5273972  40.8863401
  52.9775333  29.9292850  42.0503664  51.4776850  32.0464373  39.9050713
  50.5666780  32.2134519  40.4797602  51.7479229  33.0300474  39.5209074
  51.1189318  31.0665274  38.7903738  50.8796453  30.0574446  39.1259217
  50.2644968  31.4600372  38.2397461  51.9820213  31.0671258  38.1246614
  53.6970997  32.2170639  43.0850840  54.8503447  31.7982650  43.0033398
  53.1245136  32.0735192  44.2650890  52.1829319  32.4368048  44.3043375
  53.6363697  31.5562701  45.4603958  54.6677589  31.2857437  45.2342224
  53.8059330  32.6528883  46.5645075  54.4612455  32.3192739  47.3690939
  54.3765020  33.4764767  46.1352634  52.5505733  33.1115055  47.1958399
  52.0055819  32.3136973  48.2061529  52.6231337  31.4861250  48.5226202
  50.8615971  32.7402735  48.9296818  50.4587889  32.2973800  49.8285627
  50.2000999  33.9045000  48.4971666  49.0693140  34.2904782  49.1040802
  49.0442038  34.4810891  50.0446320  50.7697964  34.7943449  47.4665594
  50.3163052  35.6981230  47.0871830  52.0166254  34.3443465  46.8529510
  52.4574471  34.9926066  46.1100912  52.9303217  30.2946281  45.9478426
  53.4629679  29.5975137  46.8282270  51.7499590  29.9993062  45.4428101
  51.3189411  30.4982805  44.6777296  50.9321785  28.8617897  45.8731461
  51.6511059  28.0620766  46.0512161  50.3249931  29.1523528  47.2736311
  51.0949039  29.2182231  48.0423927  49.8362303  30.1214457  47.3739719
  49.6336365  28.3409405  47.5010681  49.8046255  28.3527374  44.8831081
  49.1969585  29.1127849  44.1253710  49.5405531  27.0426226  44.8198509
  50.1784563  26.4354849  45.3143835  48.5083437  26.4329743  43.9134121
  47.6584673  27.1087408  43.8177776  49.1426563  26.3957715  42.5441551
  48.3772755  26.1675000  41.8024158  49.6958923  27.3003960  42.2917938
  50.0897408  25.2164912  42.2912741  49.5508385  24.0731096  41.7184067
  48.5447264  24.1408682  41.3316965  50.3798962  22.9567266  41.5256071
  49.9706221  22.0006442  41.2344074  51.7606640  23.0761242  41.8174076
  52.5763845  22.0442462  41.6759872  52.2160673  21.3407159  41.1311769
  52.3499680  24.3051910  42.2073936  53.4153461  24.4190168  42.3431110
  51.4696360  25.4016638  42.5045395  51.8373108  26.3685489  42.8149509
  47.9613638  25.1032853  44.4549274  48.5709381  24.4489527  45.3042078
  46.7525721  24.7451186  43.9551497  46.3123465  25.3893137  43.3138084
  46.2659121  23.3656526  43.9082718  47.1196079  22.6960421  44.0127850
  45.2134895  23.1737828  45.0189114  45.8402777  23.1908870  45.9105110
  44.4231939  23.9068985  44.8574543  44.5481253  21.7873883  44.9453306
  43.7467289  21.7698884  44.2067099  45.2789688  20.9899759  44.8107672
  43.7436724  21.6393209  46.2445116  44.5151901  21.6449285  47.0144701
  43.0664444  22.4537945  46.5016079  43.0753899  20.3561640  46.3150120
  42.7206326  19.8554325  45.5128193  42.6657295  19.7850347  47.3760509
  42.2224379  18.5647011  47.3059082  42.3691225  17.9880524  46.4897823
  41.7549229  18.2464015  48.1427050  42.7375889  20.3688312  48.5261631
  42.9172993  21.3615608  48.4781694  42.3249197  20.0118995  49.3761063
  45.5746365  23.0311394  42.5809002  44.5782423  23.7233686  42.2170115
  46.0938454  22.0215034  41.9004679  46.7214441  21.4013982  42.3920918
  45.4833937  21.3219142  40.7307768  45.1723099  22.1370053  40.0773621
  46.4736748  20.4840016  39.8693419  46.9548559  19.7578681  40.5245495
  45.8815622  19.9022484  39.1628933  47.4411297  21.3834858  39.0900683
  46.9987392  22.3323417  38.7866521  48.2925320  21.6016340  39.7347641
  47.9225349  20.8012986  37.8009629  47.1620178  20.0693011  37.1316409
  49.0854740  21.0135150  37.5153708  44.1909981  20.4867458  41.2073326
  44.2426395  19.8980665  42.2661638  43.1079674  20.5872178  40.4704142
  43.1019688  21.0269189  39.5611668  41.8171597  20.0597644  40.8937025
  41.9050980  19.3664145  41.7301416  40.8930397  21.2161231  41.2834120
  41.2417555  21.5160203  42.2716188  40.9752846  22.0766592  40.6194735
  39.3936849  21.0268426  41.4724445  39.0369868  21.9611835  41.9058895
  38.8500977  20.7264924  40.5766773  39.0736103  19.9810362  42.4960804
  38.0349636  20.1889300  43.1603765  39.6610165  18.8511467  42.5928164
  41.3696003  19.1283011  39.8041773  41.9046688  19.1864562  38.6642003
  40.4160929  18.1999147  39.9818683  39.9781036  18.2318962  40.8913946
  39.9281669  17.0960164  39.1264033  40.2489328  17.1844506  38.0884290
  40.3398752  15.7532382  39.7866797  39.9003553  15.7684445  40.7840252
  39.8062897  14.9593699  39.2640305  41.8456316  15.5791247  39.7107172
  42.4010468  16.4974952  39.9010205  41.8956280  14.9086106  40.5686283
  42.2339678  14.8637950  38.4732580  42.7534723  15.4183745  37.4929214
  42.0124626  13.5958064  38.4175992  42.3328638  13.2031834  37.5439334
  41.8325377  13.1280792  39.2945004  38.4035611  17.0825410  38.9831209
  37.6442003  17.2058511  40.0206661  37.9122138  16.7243135  37.7923727
  38.5672665  16.3380694  37.1276760  36.5506220  16.9557381  37.2977519
  35.8926320  16.4989328  38.0369925  36.2880850  18.5195792  37.2817111
  36.6279101  18.8560641  38.2612014  36.9219136  19.0152717  36.5464211
  34.8297167  18.8422143  36.9487429  34.4745064  20.0000453  36.9145012
  34.0231347  17.9085326  36.8457770  36.4657927  16.2743533  35.9319758
  37.4595451  16.1911058  35.2168894  35.3096533  15.6981146  35.5583262
  34.4704223  15.8208227  36.1067224  35.1667142  14.7444463  34.4583774
  35.8748913  13.9575362  34.7179151  33.7849951  14.1648936  34.5400548
  33.0680490  14.9322844  34.2481732  33.6629152  13.4485519  33.7276196
  33.2774949  13.4971130  35.8113647  33.3905077  12.0657074  36.0087800
  33.8321519  11.5323758  35.1799798  32.9660368  11.4599919  37.1605682
  33.0398130  10.4067683  37.3878932  32.3642421  12.2640920  38.1673551
  32.1622610  11.8174553  39.1297078  32.2435570  13.6584914  37.9723048
  31.7364097  14.2947602  38.6824918  32.6153040  14.2919791  36.7614698
  32.4849963  15.3480577  36.5767622  35.5822968  15.3880107  33.1402707
  34.8031354  16.0311818  32.4454379  36.7915058  15.1901281  32.7200365
  37.2907186  14.4546974  33.1996489  37.5849628  15.6783795  31.5983653
  38.4116936  14.9904311  31.4213109  37.0096493  15.7157946  30.6733155
  38.2085896  17.0204842  31.7471385  38.5397840  17.5806379  30.6927657
  38.4094858  17.6090169  32.9458332  38.2772875  17.0536304  33.7790012
  38.8645267  18.9856708  33.0056691  39.4275665  19.3234849  32.1356273
  37.6512098  20.0034356  33.1944060  37.0640159  19.6880114  34.0568495
  38.2180882  21.4567566  33.3463883  38.7981582  21.4885902  34.2686749
  38.9357662  21.7335582  32.5741053  37.4319053  22.2115350  33.3283091
  36.5339327  19.9407125  32.0676899  36.9080949  20.4114580  31.1585712
  36.2834311  18.9213502  31.7740035  35.2441072  20.5603790  32.4816084
  34.8409677  20.0819826  33.3741999  35.2475190  21.6397166  32.6336670
  34.5709276  20.2341819  31.6888118  39.6689439  19.0735030  34.2702007
  39.0745783  19.0580976  35.3799176  40.9951925  19.0852070  34.0966868
  41.4195251  18.8385916  33.2139540  41.8946886  19.5070732  35.1158953
  41.6636658  18.9869714  36.0455322  43.3862734  19.4566143  34.6633673
  43.5572624  20.0068641  33.7381148  44.0856457  19.7854400  35.4320383
  43.6819553  17.9833317  34.3246126  44.7502613  17.9716182  34.1085434
  43.3354902  17.3076487  35.1066065  43.1206989  17.5202465  32.9733372
  43.1569338  18.2752705  32.0023966  42.6754999  16.3537085  32.8657174
  41.6632605  21.0121226  35.3782296  41.3702869  21.7742038  34.4087219
  41.7972040  21.4043188  36.6549301  42.1524000  20.6829858  37.2661710
  41.4777946  22.7641606  37.2097111  41.2932587  23.3991122  36.3431692
  40.2092075  22.7703857  37.9604197  40.2569294  21.9887233  38.7185979
  39.9019766  24.0153527  38.7866378  40.8032942  24.4685793  39.1993237
  39.4997573  24.7465777  38.0854726  39.2166996  23.7059760  39.5758033
  38.9558101  22.5168705  37.0265126  38.8888836  23.2268310  36.2021494
  38.9673376  21.5593314  36.5058517  37.5935125  22.4971700  37.8884220
  36.7520332  22.3800826  37.2055626  37.5109124  21.7548656  38.6823106
  37.2616458  23.4548402  38.2894564  42.6834202  23.3110094  37.8709769
  43.4710503  22.5832438  38.4492254  42.8186655  24.6612215  37.8374290
  42.1311045  25.1660585  37.2966003  43.9695263  25.3629899  38.4626555
  44.4539165  24.6613240  39.1417217  44.9696970  25.8162308  37.3223710
  44.4099188  26.4032102  36.5942192  46.0681629  26.5997434  37.9798770
  46.4833641  25.9098792  38.7145853  46.8177843  26.8803406  37.2399855
  45.7911062  27.5408030  38.4550047  45.6430006  24.6340942  36.6222930
  46.2063980  23.9961934  37.3032975  44.9042511  23.9943647  36.1394882
  46.2951136  24.9384856  35.8036399  43.5238171  26.5477872  39.3889856
  43.2468319  27.6608300  38.9510727  43.6324692  26.2876558  40.6364584
  43.7228775  25.3198481  40.9108257  43.4355116  27.2473192  41.7570066
  42.9726744  28.1294584  41.3146114  42.7353621  26.7401671  42.9812145
  43.1466389  25.8117652  43.3774757  42.9161215  27.4339437  43.8022518
  41.2245655  26.4700913  42.8427410  40.7501459  27.0410371  43.6408997
  40.7485914  26.9915128  42.0122814  40.6953478  24.9885964  42.9260063
  39.6230054  25.0066924  42.7314520  41.2513876  24.4296598  42.1733379
  41.0390759  24.3383455  44.3390608  41.2172508  23.2911611  44.0945959
  41.9347811  24.7855282  44.7701550  39.9606442  24.4345260  45.2994537
  39.8983026  25.3959727  45.6024885  39.1015482  24.0572262  44.9256849
  40.1948309  24.0002775  46.1807489  44.8118353  27.6950383  42.1983528
  45.7183075  26.9118786  42.4361897  44.9291611  29.0326190  42.2889423
  44.1404724  29.5917559  41.9966459  46.3187647  29.5535183  42.1656132
  47.0007992  28.9888144  42.8012562  46.9582558  29.3872809  40.7994270
  47.0005131  28.3239007  40.5637693  46.1050272  29.9896812  39.6070504
  46.7606354  29.8883557  38.7421751  45.1831532  29.4081926  39.6183276
  45.8138418  31.0092402  39.8596692  48.3757114  29.9277973  40.7373095
  48.8428974  29.6550560  39.7910285  48.3252954  31.0164022  40.7149458
  48.9856529  29.4980192  41.5318918  46.4198494  30.9079599  42.7142143
  45.5141163  31.6822815  42.5316381  47.5477743  31.2545037  43.3685064
  48.3006859  30.5837274  43.4258604  47.6586390  32.5010562  44.0717316
  47.0467329  33.0829859  43.3825064  46.9684505  32.4802566  45.4616928
  46.8028545  33.5078597  45.7852840  46.0063791  31.9928837  45.3036308
  47.7153206  31.7840314  46.6080523  47.9508781  30.7808685  46.2526941
  48.6283493  32.3431897  46.8125868  46.9187212  31.7098212  47.9157257
  46.8737841  32.6540947  48.4583378  45.8805752  31.4655113  47.6906347
  47.5916481  30.6247687  48.7998199  47.5352049  29.7358203  48.1715775
  48.6204863  30.9531617  48.9472914  47.0078611  30.4908752  50.1404381
  47.2211981  29.5585036  50.4648972  47.3641825  31.1703205  50.7973146
  46.0064936  30.4439831  50.0172853  49.0585661  33.1252861  44.0103197
  50.0741482  32.4468827  43.9664268  49.1209507  34.4080234  43.7651205
  48.3013391  34.9785686  43.9161921  50.2016163  35.1943922  43.2920313
  51.0729456  34.5454884  43.3804131  49.9076033  35.5688882  41.8636179
  48.8978529  35.9677625  41.7666197  50.6606627  36.2194252  41.4188671
  49.9874496  34.6192765  41.3345003  50.3755569  36.5027428  44.0512371
  49.6034336  36.8784547  44.9359703  51.4389515  37.1859956  43.8493967
  52.0886230  36.7179012  43.2338333  51.9021797  38.4608102  44.4731140
  50.9267282  38.8425756  44.7745323  52.7232218  38.2335877  45.7851267
  52.2324657  37.3999095  46.2873602  54.2241907  37.8439188  45.4479122
  54.7506571  37.4633622  46.3231897  54.1462469  36.9673038  44.8048115
  54.7529268  38.7057757  45.0408030  52.5675058  39.4671965  46.7359400
  53.1128931  40.3187418  46.3290977  51.5076542  39.7204709  46.7617989
  53.0925274  39.2367196  48.0890131  52.4050379  38.5534930  48.5876799
  54.0988111  38.8245821  48.0139256  53.0340195  40.1756954  48.6394691
  52.5931358  39.4151163  43.5302305  53.3640432  39.0060186  42.7002144
  52.1837282  40.6680536  43.5282278  51.4641237  40.9422493  44.1817474
  52.6929712  41.6151714  42.6482344  52.3847961  41.3450384  41.6382074
  52.1963930  42.5590897  42.8730154  54.1832638  41.7592859  42.9126024
  54.6896458  41.7732668  44.0848875  54.9355173  41.7428732  41.8778086
  54.4814014  41.6742325  40.9782696  56.4294624  41.9747210  41.9701385
  56.7889547  42.0868969  42.9930162  57.2638321  40.8867550  41.2583780
  56.9223356  40.7185555  40.2370119  58.2755852  41.2811565  41.1639786
  57.2067976  39.5364046  41.9796371  56.2618160  38.9951611  42.0261526
  57.8238821  38.9044809  41.3408995  57.7489901  39.4397306  43.4988260
  58.7084246  39.9453616  43.6080170  57.0607424  39.9829960  44.1463423
  58.0351925  38.0622053  43.8066387  58.3012486  37.4259162  43.0687666
  57.8681898  37.4788547  44.9855089  57.6344872  38.1636429  45.9944153
  57.6589108  39.1730785  45.9710407  57.6390171  37.6999950  46.8916988
  57.8567648  36.1801982  45.1725912  58.2484102  35.6164241  44.4317341
  57.6227236  35.7921433  46.0752201  56.8543816  43.2567120  41.3841534
  57.5779486  44.0479136  42.0369387  56.5490484  43.5656261  40.0835276
  56.1582375  42.8307056  39.5114589  56.9850159  44.7726727  39.3860888
  56.9218969  45.6142902  40.0758743  58.5031366  44.6514034  38.9213634
  59.1107178  44.0822029  39.6248960  58.5622168  44.1727686  37.9438567
  59.1904306  46.0355043  38.8084579  60.2196407  45.7309294  38.6185503
  58.8050270  46.5878010  37.9514098  59.0729475  47.0075464  39.9737930
  58.0949879  47.7455282  40.0175238  59.9097967  46.8850327  40.9679937
  59.8981380  47.5134706  41.7585850  60.7189655  46.3037968  40.8021164
  56.2275839  45.2921486  38.1943560  55.8321142  44.4954586  37.3479104
  55.9697151  46.5350008  38.1128550  56.2742233  47.1653986  38.8408542
  55.4445028  47.3197079  36.9011569  54.4384003  46.9793224  36.6562128
  55.5641842  48.7495756  37.3547864  56.6143894  48.9356899  37.5795960
  55.3905392  49.3643093  36.4715815  54.5532322  49.2447090  38.3393240
  53.7995958  49.7784805  37.7603364  54.0714741  48.4289360  38.8783240
  55.1274776  50.2975273  39.3385696  54.3689775  50.8147812  39.9261308
  55.7185316  49.8014212  40.1083946  55.9109068  51.3096094  38.6434913
  55.4563570  52.0464325  38.1233239  57.2435999  51.4576483  38.7094259
  57.9342651  50.4732227  39.2317128  57.4911308  49.7357321  39.7607136
  58.8980484  50.6256628  39.4924641  57.8065205  52.5081873  38.2272601
  57.2943258  53.2653618  37.7977872  58.7888336  52.6058006  38.4408593
  56.1766624  47.1408415  35.5536509  57.4063587  47.0277596  35.5060005
  55.5710316  47.3579168  34.4757724  54.5610380  47.3544836  34.4770026
  56.2144041  47.3642969  33.1380367  57.2520447  47.6904535  33.2089496
  56.2830448  45.8881474  32.5924969  56.8759918  45.8628035  31.6782355
  56.8735361  45.3407907  33.3272243  54.9625921  45.1004839  32.3812938
  53.8959026  45.5670309  31.5485787  53.9377165  46.5247297  31.0511160
  52.7383184  44.7896862  31.4486313  51.9334364  45.1861715  30.8474874
  52.5416470  43.6802197  32.2799945  51.5980816  43.1593895  32.2105145
  53.5681534  43.2154942  33.1905293  53.4187078  42.3116446  33.7624693
  54.7651672  43.9267445  33.1403708  55.5347633  43.7142992  33.8676882
  55.4789448  48.3503199  32.1864629  54.3605089  48.7610340  32.5017977
  56.0930634  48.6309576  31.0158205  57.0211363  48.2353973  30.9677362
  55.3670359  49.0431595  29.8288512  54.2990446  49.1136360  30.0350738
  55.8275414  50.4046726  29.2083645  55.0875664  50.6932259  28.4618568
  55.8039618  51.0705566  30.0710011  57.2573519  50.4176855  28.6396909
  57.9345512  49.8558283  29.2829800  57.3500872  50.1494980  27.5872755
  57.8075552  51.8703747  28.6739469  57.2203636  52.5987387  28.1146669
  57.9364634  52.3164368  29.6601081  59.1698027  51.8728161  28.0199218
  59.8475266  51.2096357  28.5574937  59.0485573  51.5069818  27.0003295
  59.7136068  53.2532883  27.8117228  60.3616142  53.1957340  27.0391393
  59.0751934  54.0122461  27.6206374  60.4263735  53.5385275  28.4680009
  55.4790354  47.9448843  28.7950850  56.3700676  47.0837212  28.8249111
  54.5244169  47.8732586  27.8867483  53.8533783  48.6274195  27.8542304
  54.2978525  46.8588400  26.8912888  54.6615410  45.8837128  27.2152781
  52.7967310  46.5946579  26.6113305  52.3925352  47.4807644  26.1219049
  52.6730013  45.4166126  25.6107306  51.6193485  45.2587366  25.3805590
  53.0516720  45.6994343  24.6285295  53.0634451  44.4456482  25.9154892
  51.8515539  46.2168503  27.7761722  50.8402252  46.3962126  27.4112892
  51.8994808  45.1995039  28.1645131  51.8905544  46.9297457  28.5997915
  55.0563097  47.2396421  25.6087065  54.5388699  48.1174040  24.8692274
  56.2236929  46.5528727  25.3177381  56.4081144  45.6640339  25.7605124
  56.8268538  46.8084049  23.9583731  56.7427731  47.8560829  23.6695886
  58.3355999  46.4400101  23.8938594  58.3488941  45.4031658  24.2298555
  58.6781788  46.4370394  22.8590965  59.2718601  47.3210239  24.8421741
  58.9006615  47.2605848  25.8652401  60.7420683  46.8138123  24.7800684
  60.9302473  45.8014822  25.1376557  61.0776949  46.9060135  23.7471318
  61.3997459  47.4427414  25.3800821  59.2969418  48.8106012  24.5097446
  59.8536253  49.3956757  25.2417898  59.7964430  48.9331245  23.5487103
  58.2903719  49.2262506  24.5562053  55.9734297  46.1595821  22.8546596
  55.8959579  46.7365408  21.7492342  55.4018784  44.9703598  23.0118728
  55.5752516  44.5256662  23.9019823  54.4152403  44.2744017  22.0618200
  53.6425829  45.0049973  21.8223763  55.0553465  43.9397526  20.7420468
  54.4062948  43.3436012  20.1006079  55.2028990  44.9004984  20.2488017
  56.3335800  43.1009293  20.9273696  57.1006775  43.7428808  21.3604498
  56.1687136  42.2380400  21.5726161  57.0277309  42.5047064  19.6727920
  57.2765541  41.2718821  19.6585965  57.3436975  43.2008553  18.6865211
  53.7186098  43.0811167  22.6310778  54.2494726  42.3575592  23.4889078
  52.4614620  42.9658937  22.2093511  52.0910358  43.6140776  21.5290976
  51.5729904  41.8866730  22.5470686  52.1113205  41.1716080  23.1691480
  50.2693892  42.4640942  23.1531596  50.5393791  43.1771708  23.9320898
  49.8381042  42.9412413  22.2731447  49.4375896  41.4100218  23.8543129
  49.2859459  40.5047703  23.2664132  50.1251602  40.9785318  25.1755047
  50.0180054  41.6696262  26.0115695  49.6086216  40.0527191  25.4287934
  51.2081194  40.8866739  25.0925946  48.0395412  41.9756937  24.1748977
  47.4269581  41.3048267  24.7772098  48.2761574  42.8299713  24.8091912
  47.5298119  42.2550631  23.2528186  51.2494326  40.8849859  21.4076686
  50.7601166  41.2479782  20.3393435  51.7069912  39.6031117  21.5352726
  52.1261644  39.3051624  22.4045372  51.9471550  38.6445689  20.4876709
  51.5203190  38.7443638  19.4896948  53.4334850  38.5318995  20.2722478
  53.9207745  38.2055736  21.1910295  53.6363316  37.7817512  19.5078981
  54.1184807  39.8601699  19.8255503  54.0491533  40.5422115  20.6729650
  55.1598549  39.6103215  19.6225238  53.4817600  40.3716660  18.5436618
  53.4310865  39.5624876  17.8151262  52.5223494  40.8115530  18.8159359
  54.4059229  41.3725996  18.0073225  55.3170395  41.3603497  18.4429979
  54.1886663  42.2993565  17.1193433  55.0679207  43.1566381  16.8865728
  55.8868122  43.2533026  17.4698126  54.9929047  43.8340187  16.1411691
  53.0644751  42.3738718  16.5135765  52.3423433  41.6803551  16.6464496
  52.7310181  43.1966448  16.0319591  51.4006186  37.2823381  20.9259987
  51.9329166  36.5905833  21.7713189  50.4077387  36.8617558  20.2333498
  50.1006413  37.4867725  19.5018148  49.8075008  35.5391192  20.4359627
  49.8413372  35.3284478  21.5048766  48.3379412  35.5886889  20.1137662
  48.0743885  36.0595512  19.1667008  47.5042248  34.3299913  20.3623366
  47.4967051  34.0036702  21.4023161  46.4747190  34.5342207  20.0682092
  47.7538538  33.5341716  19.6605825  47.5999546  36.4403033  21.0121489
  48.0619049  37.2816682  20.9945345  50.4762650  34.4579768  19.6931398
  50.7815742  34.6719027  18.5262251  50.8071423  33.3820677  20.3403163
  50.6086302  33.3428144  21.3298392  51.9061089  32.4396229  19.9238288
  52.6851225  33.0563927  19.4756806  52.7132607  31.9680142  21.1862111
  51.9784546  31.3823819  21.7386580  53.4989548  31.2511539  20.9476948
  53.2643366  33.0206537  22.0910573  52.5383806  33.8030958  22.3121190
  53.6543322  32.5602651  22.9988289  54.4360876  33.7201262  21.4533734
  55.4655123  33.1213093  21.1273766  54.4487762  35.0092459  21.2411976
  55.3511095  35.4539347  21.1509109  53.7005663  35.5011106  21.7084718
  51.4058638  31.2602758  19.0314603  51.6573048  30.0400901  19.2272973
  50.8393097  31.6195726  17.8511882  50.8074713  32.5885201  17.5679314
  50.2453709  30.7997346  16.7461562  49.6266842  31.4825654  16.1638594
  51.4623547  30.5025697  15.8068419  51.9783878  31.4608574  15.7477248
  52.0305395  29.6818447  16.2446499  51.0116673  30.2176213  14.5412135
  50.8017349  29.2810583  14.5606542  49.4391918  29.5246339  17.1368337
  49.8501825  28.3882642  16.9650233  48.3007765  29.7034431  17.7867711
  48.0359173  28.8218832  18.2024634  47.5523472  30.9638333  18.1119335
  48.1690979  31.8514276  18.2530010  46.7002726  31.4716220  16.8833685
  46.2770033  32.4629188  17.0454729  47.2724485  31.4982438  15.9560049
  45.5372763  30.4516649  16.5889764  44.4206762  30.9195805  16.4980078
  45.8370972  29.2867613  16.2766814  46.6950083  30.7346916  19.4461870
  45.6627703  31.2961507  19.6722269  47.1937037  29.9275994  20.3536558
  48.0074883  29.3700504  20.1368618  46.9741392  30.0506282  21.8025064
  45.9426212  30.3291917  22.0180774  47.1499872  29.1050935  22.3154902
  47.9168940  31.1946154  22.3512411  48.9415026  31.5264964  21.7293668
  47.6458645  31.6573215  23.5801935  46.7848063  31.3827348  24.0310669
  48.5433340  32.3369074  24.5297790  47.9379320  32.6283717  25.3880572
  49.5929193  31.2942243  25.0848508  50.2043533  30.8814645  24.2824292
  50.6601906  31.9338083  26.0040617  51.3323593  32.5468254  25.4036450
  50.0967979  32.4767232  26.7629623  51.1830473  31.1234069  26.5119720
  48.8201427  30.0599241  25.7292295  48.2774258  29.5146704  24.9570489
  49.5367050  29.4839287  26.3147759  47.6637268  30.3819299  26.7357183
  47.1094513  29.4508171  26.8536425  47.9597378  30.7200956  27.7287579
  46.8781757  31.0485983  26.3799644  49.1170073  33.6893940  24.0794945
  50.1495600  33.7846923  23.4088850  48.3271790  34.6685028  24.3291092
  47.4424124  34.4811487  24.7787619  48.8482189  36.0580468  24.3232822
  49.0577602  36.4176655  23.3158731  47.9268122  37.1214652  24.9792242
  47.5848627  36.6111207  25.8796263  48.4899664  38.0143070  25.2508712
  46.7697477  37.6887870  24.0840101  47.1237993  38.1967402  23.1869435
  46.2816000  36.7848301  23.7197614  45.6193161  38.4912872  24.7714806
  45.4591370  39.6287680  24.4247341  44.7865105  37.9145288  25.5798626
  44.1301584  38.5030413  26.0727715  44.8499680  36.9206643  25.7481050
  50.1292229  36.0797858  25.2719069  50.1044846  35.6984377  26.4257097
  51.1321592  36.8168473  24.8115492  51.0623550  37.0644903  23.8348699
  52.4248600  36.9420457  25.3765440  52.2503042  36.9307518  26.4524150
  53.2170868  35.7449651  24.9305201  52.6044941  34.8600626  25.1031089
  53.4664202  35.8269477  23.8725924  54.5374584  35.5228949  25.7450438
  54.7843361  36.3817477  26.3691640  54.4214439  34.6620774  26.4035535
  55.6630373  35.2290869  24.8133945  56.1468220  36.1034274  24.0635872
  56.1692524  34.0334558  24.6309757  56.9671774  34.1056538  24.0159965
  55.9800577  33.2761168  25.2718687  53.1035852  38.2518935  25.0095916
  53.0370760  38.5939240  23.8179350  53.7587357  38.8945365  25.9478951
  53.9448261  38.3967543  26.8067813  54.1572285  40.2867270  25.8145642
  53.8915634  40.6817293  24.8340011  53.3681154  41.0786676  26.8580604
  54.1044807  41.2964249  27.6316547  52.9768419  42.0123768  26.4540815
  52.6505280  40.4280472  27.3579168  55.6474495  40.4977846  25.9576392
  56.2987518  40.1801157  26.9251871  56.2795448  41.1735964  24.9961329
  55.6547022  41.4565897  24.2547894  57.5067234  41.9125891  25.1796007
  58.2103062  41.3496876  25.7929707  58.0931520  42.2790051  23.8501024
  57.9282379  41.5405560  23.0655050  57.4862671  43.1079435  23.4858871
  59.5206165  42.6747799  23.9904189  59.4591475  43.5682487  24.6117401
  60.1422358  41.8757915  24.3945336  60.0678730  43.0909491  22.6228356
  59.8507547  42.3886299  21.8180346  59.5777798  44.0051317  22.2878981
  61.6227150  43.1589890  22.7473831  61.9295979  43.7230158  23.6281776
  61.9842482  42.1367884  22.8592181  62.2565794  43.6286879  21.4918351
  61.6844273  44.4320869  21.2743640  63.2278442  43.8190079  21.6931319
  62.1235991  43.0293179  20.6898522  57.1374321  43.1547022  26.0610390
  56.1898804  43.8249588  25.7590628  57.8837442  43.2645130  27.1367884
  58.6797523  42.6729536  27.3279047  57.6628208  44.3579769  28.1235290
  57.1443558  45.1816082  27.6326895  56.7966795  43.8981390  29.3457603
  56.4586592  44.7948790  29.8650908  55.5604839  43.0879927  29.0041208
  54.9110889  43.0365801  29.8780441  55.0399065  43.5823298  28.1839204
  55.8456993  42.0451689  28.8652802  57.6076841  42.9396152  30.2460361
  58.4952354  43.4406328  30.6324816  56.9808674  42.7625895  31.1200309
  57.9223299  42.0499086  29.7005796  59.0618134  44.8991966  28.5643148
  60.0286484  44.1555977  28.7077379  59.1030502  46.2130690  28.8117313
  58.2308149  46.7149734  28.7257195  60.1440907  46.7662334  29.6076179
  60.9399033  46.0215759  29.6241784  60.6351471  47.9880333  28.8850212
  61.0840416  47.5706577  27.9836917  59.9120903  48.7686777  28.6486220
  61.7945290  48.7095451  29.6200323  61.4166784  49.3102264  30.4473829
  62.5458050  47.9996777  29.9661112  62.6159859  49.6056128  28.7415123
  62.1355152  50.4439878  28.0023003  63.8751411  49.2984009  28.5620141
  64.2279816  49.6936893  27.7021575  64.3365383  48.6421442  29.1756463
  59.7398472  47.0529938  31.0482574  58.8967419  47.8502083  31.2971091
  60.3490734  46.3587761  32.0138288  61.1522102  45.8197403  31.7231250
  60.3014898  46.6843843  33.4267092  59.2929411  46.6458511  33.8383508
  61.3111782  45.7007122  34.1891575  62.3446417  45.9767771  33.9797592
  61.0878992  45.7363176  35.6852436  61.3114071  46.7110586  36.1188579
  60.0322533  45.5599260  35.8916354  61.6883183  44.9561501  36.1531544
  61.2011862  44.1312122  33.7687564  61.3202810  44.0147018  32.6915646
  62.1566820  43.7411261  34.1194105  60.0098467  43.3129454  34.1293025
  60.0356579  42.2818279  33.7768340  59.9064779  43.2780838  35.2138305
  59.0872192  43.7530899  33.7509680  60.5302429  48.1545687  33.6791706
  61.4190340  48.8137817  33.1955838  59.6602488  48.6836100  34.5742083
  58.9384270  48.0548477  34.8962903  59.8959923  49.9555588  35.2373314
  60.3386259  50.6463194  34.5196724  58.5169315  50.5623484  35.5928850
  58.0771112  49.8831034  36.3231444  58.7155390  51.5855980  35.9116578
  57.5284147  50.6340456  34.4187140  57.0859432  49.6809912  34.1288638
  56.4440298  51.5514851  34.8430157  56.0743380  51.2826204  35.8325338
  56.7292500  52.5996304  34.9332142  55.5555582  51.4276266  34.2238307
  58.0969048  51.2412119  33.1758332  58.6338329  50.5354500  32.5420284
  57.2792149  51.5443611  32.5219321  58.6281109  52.1464014  33.4700251
  60.7944393  49.8887348  36.4849734  60.8964491  48.8088036  37.1102262
  61.3900185  51.0199404  36.7949939  61.5417767  52.2042656  35.9614539
  60.6136274  52.5208473  35.4856253  62.2065163  51.9520473  35.1352525
  62.1851110  53.2707357  36.8058014  61.4325857  53.7400150  37.4395061
  62.7891445  53.9901876  36.2529612  63.1265879  52.4474478  37.7795553
  63.2530451  52.9938841  38.7141776  64.1036463  52.2765160  37.3276234
  62.2755480  51.1343527  38.0166721  62.9640055  50.2898836  38.0483222
  61.5154886  51.2315464  39.3320394  61.9185591  50.5650282  40.3085136
  60.4590797  51.9012737  39.4601059  60.5961895  60.1353550  58.8850117
  61.5809536  59.9154139  58.9292765  60.0493002  59.3671942  59.2468786
  60.4506207  60.9498405  59.4642496  60.2231503  60.3979015  57.4942875
  60.8781815  61.0925436  56.9684505  60.2665710  59.0946007  56.5710592
  61.3048172  58.7725496  56.4908743  59.7912598  58.2113218  56.9976711
  59.7899437  59.3110943  55.0661993  59.9480724  58.4066677  54.4787407
  58.7247133  59.5310402  54.9953556  60.5270672  60.5222559  54.4347095
  61.6628408  60.3347111  54.0143347  60.0018692  61.6216898  54.4907284
  58.9066505  61.1633110  57.4762440  57.8315115  60.7004881  57.8135014
  59.0127230  62.4171066  57.1877289  59.8512506  62.7732468  56.7516851
  57.9672670  63.4761524  57.2450972  57.7332306  63.6671019  58.2924175
  58.5595703  64.7999144  56.7278576  58.5728645  64.6888638  55.6436110
  57.6362133  65.9159279  57.2537279  58.0031204  66.8636036  56.8595362
  56.6334105  65.7243776  56.8718863  57.5920534  66.0334396  58.3364773
  59.8682261  65.1026440  57.2186279  60.4502535  65.1058531  56.4551878
  56.7815733  63.1501293  56.4020061  55.6497097  63.3645248  56.7974615
  56.9929647  62.5168419  55.2034998  57.9456568  62.2939873  54.9528742
  55.9502602  62.0961237  54.2276001  55.3353119  62.9269600  53.8816929
  56.6362858  61.6851854  52.9128075  57.2446156  62.5518084  52.6539612
  57.3769188  60.9517288  53.2315588  55.7881403  61.1037540  51.7854500
  55.3459883  60.1852226  52.1713161  54.5200205  61.8595076  51.2231302
  53.8790226  62.0922232  52.0734644  54.8572731  62.6793146  50.5888748
  53.9288759  61.1210775  50.6814861  56.8180990  60.8985186  50.6395483
  57.6563740  60.2494526  50.8927488  56.2344408  60.4440594  49.8389816
  57.0751858  61.8935776  50.2764034  55.1531839  60.9699154  54.8673105
  53.9418030  60.8464146  54.7203016  55.8660936  60.0284004  55.5267143
  56.8575621  60.2011633  55.6118679  55.3170061  58.8421345  56.1606073
  54.5866251  58.4119272  55.4753542  56.4712906  57.8188276  56.3889122
  56.9293451  57.6461887  55.4150105  57.2337437  58.3425283  56.9655466
  56.1070108  56.4934206  57.0567131  55.7158613  56.7200422  58.0485535
  55.3263760  55.9590578  56.5152597  57.5571060  55.4976463  57.5726795
  58.2617569  54.9165773  56.0209990  57.5218487  54.3050575  55.5045843
  58.5681105  55.7520151  55.3914785  59.1063833  54.2766094  56.2762403
  54.6286726  59.0856123  57.4776649  53.6940384  58.3514118  57.7297163
  54.9572372  60.1240206  58.2871056  55.8132172  60.5995178  58.0395031
  54.1578627  60.6638193  59.3130827  53.9208269  59.9577236  60.1089144
  54.9114895  61.8480968  60.0659561  55.0384474  62.6755714  59.3679142
  54.2438364  62.2795868  60.8117151  56.2365103  61.4911890  60.8510780
  56.4706326  60.2880764  61.1808968  56.9784069  62.4263525  61.2606668
  52.8281832  61.1509991  58.7868786  51.7482758  60.8210039  59.3153572
  52.8660536  62.0597315  57.7721500  53.7358952  62.5227976  57.5506735
  51.5979099  62.4820423  57.1524239  51.0151052  62.9978848  57.9155397
  51.8326473  63.5755110  56.1144304  52.5621367  63.2757759  55.3620291
  50.8954906  63.9412498  55.6948185  52.4435902  64.7440529  56.7797470
  51.8343163  64.9198627  57.6663065  53.4087181  64.4673681  57.2040987
  52.6507473  65.9830570  55.9775209  53.1365538  65.7209778  55.0376225
  51.7018795  66.4178991  55.6633949  53.2857752  67.0158958  56.8396282
  52.8508472  67.1136951  57.7459288  54.3356943  67.7332926  56.4320564
  55.0285101  67.3941803  55.3539181  54.5701313  66.9697666  54.5602751
  55.8732510  67.8538847  55.0453663  54.7292566  68.7187767  57.1819544
  54.1097689  69.0694618  57.8984451  55.6107759  69.1077614  56.8791199
  50.6850672  61.4087629  56.5798426  49.5078564  61.5001488  56.7979860
  51.2643337  60.4033089  55.9275961  52.2276592  60.5910826  55.6891823
  50.5506182  59.2371464  55.3946686  49.9112415  59.5680428  54.5762491
  51.4910936  58.2564735  54.7417164  52.3356676  58.1182241  55.4167652
  50.9390450  56.8237829  54.5247173  50.1565027  56.7671490  53.7680626
  51.8198872  56.2106657  54.3341875  50.5991697  56.4471674  55.4894686
  52.0415211  58.6134624  53.3384609  52.4418259  59.6179771  53.4756136
  52.8807783  57.9910040  53.0281401  51.0608625  58.6278725  52.2159529
  51.5015554  58.9681244  51.2788677  50.5331945  57.7026653  51.9843006
  50.3476191  59.4295120  52.4076986  49.7532177  58.5635376  56.5405464
  48.6162472  58.2023239  56.2496185  50.3310156  58.2813215  57.6981068
  51.1927223  58.7844753  57.8542995  49.7300720  57.5666142  58.7689877
  49.2064953  56.7128086  58.3388948  50.9220076  57.1525860  59.7041988
  51.5736485  58.0248737  59.7549677  50.5099487  56.8770075  60.6749582
  51.7171574  55.9021091  59.2029858  51.0931206  55.0851917  58.8405991
  52.2835255  56.3076973  58.3646393  52.7313137  55.3814554  60.2412367
  52.2344828  55.2395773  61.2009907  53.1772566  54.4830608  59.8144817
  53.8158131  56.4070702  60.4331589  54.1495562  56.7939711  59.4703341
  53.4131098  57.3013306  60.9087992  54.9163008  55.9374428  61.2676239
  55.2540493  55.0784731  60.8574963  55.6366825  56.6316271  61.1288548
  54.6616602  55.8320093  62.2392941  48.6264324  58.4309292  59.4737291
  47.6289654  57.9179573  59.9218369  48.7215424  59.7683430  59.4679165
  49.5992184  60.1848078  59.1916084  47.5730896  60.6626987  59.8089981
  47.2195196  60.3323936  60.7857227  48.0172300  62.1042681  60.0223398
  48.9733934  62.0346260  60.5409956  48.0358028  62.7206039  59.1235161
  47.0100403  62.7547407  60.9812117  45.9875107  62.7610302  60.6037331
  47.0143366  62.1130466  61.8623018  47.3012590  64.1707468  61.4027786
  47.2007704  64.9141073  60.6119490  46.6444397  64.3524981  62.2534657
  48.7079000  64.1973734  61.9729614  48.7795258  63.6347437  62.9037762
  49.4433689  63.7713766  61.2905264  49.1189480  65.5882931  62.4108458
  50.0144815  65.6288147  62.8761196  49.3166876  66.1396503  61.5880394
  48.4383869  66.0351610  63.0085468  46.4134645  60.5582714  58.8487673
  45.2920914  60.2903795  59.2924261  46.7193604  60.7349586  57.6021910
  47.6644516  61.0321522  57.4057961  45.7195187  60.6650400  56.5388441
  44.9686670  61.4447260  56.6669464  46.3451052  60.8176613  55.1582909
  47.1844959  60.1560068  54.9444437  45.5907488  60.6146288  54.3981409
  46.8753242  62.2574139  54.9801493  47.5187063  62.5051689  55.8244085
  47.5132465  62.1323538  54.1052103  45.8526945  63.3046532  54.6811914
  44.6831942  63.0052519  54.4526672  46.1958694  64.5825195  54.5761633
  45.3942919  65.1139212  54.2676401  47.1084547  64.9337769  54.8289585
  44.9390936  59.3267632  56.5970135  43.7465143  59.2961407  56.4975357
  45.6148386  58.1723976  56.8635893  46.6073132  58.1838655  56.6766024
  45.0572777  56.8634748  57.1329212  44.3946409  56.5912628  56.3113832
  46.1240721  55.7315350  57.2082758  46.8387318  55.9759378  57.9941702
  45.5981827  54.8533964  57.5830078  46.8562078  55.3055859  55.9541464
  47.3500919  56.1487389  55.4711628  47.9961395  54.2905331  56.2609482
  47.6449966  53.4477186  56.8563223  48.5278845  53.9950275  55.3565025
  48.7324905  54.7664785  56.9085312  45.8319902  54.4942665  55.0530148
  45.4424429  53.6589050  55.6348515  45.0704622  55.2034998  54.7287226
  46.3892698  54.2783594  54.1414595  44.1463995  56.8068218  58.3859921
  43.0825472  56.1470270  58.2667208  44.3944645  57.5162315  59.4536829
  45.2824211  57.9872274  59.5526457  43.4542751  57.5746059  60.6470203
  43.3434534  56.5730238  61.0625315  43.9465284  58.4835577  61.8085814
  44.2929983  59.4170856  61.3652039  43.0977440  58.6564779  62.4702263
  45.1396084  57.8975964  62.5655556  44.9037743  56.8651915  62.8236675
  45.9557438  57.9527235  61.8451500  45.4150915  58.8083887  63.7665272
  46.5011883  58.7951994  63.8577366  45.1460648  59.8166752  63.4517527
  44.6566677  58.3777952  64.9500751  44.2503500  57.4591875  64.8444319
  44.4168472  59.0802240  66.0726500  43.6756086  58.5262966  66.9144249
  43.2324076  57.6273298  66.7897701  43.3190584  59.1354227  67.6368666
  44.7997713  60.3115940  66.2425089  45.3952360  60.7065296  65.5286837
  44.5853090  60.9147882  67.0237017  41.9955349  57.9880810  60.3212261
  41.0596704  57.8622437  61.1281443  41.6986179  58.7029791  59.2156267
  42.5272369  58.8522053  58.6577511  40.3538513  59.0850973  58.7062979
  39.8410368  59.6308470  59.4983101  40.4863834  59.9689770  57.4791861
  40.9936905  59.4921494  56.6405106  39.4775867  60.1662445  57.1165276
  41.2654877  61.2590408  57.7888870  42.2283554  61.0044432  58.2317972
  41.3367987  61.9599152  56.9571495  40.5939960  62.0809841  58.9399719
  39.3839502  62.0975828  59.0100718  41.3591814  62.5993156  59.7361612
  39.4795465  57.8824615  58.3464813  38.2531714  58.0238390  58.5751390
  40.0290918  56.8563700  57.7783012  40.9731722  56.9185114  57.4248171
  39.4863415  55.4537058  57.6401091  38.4605503  55.5247021  57.2784281
  40.3956175  54.5475626  56.7228079  41.4328575  54.5176125  57.0564890
  39.8506474  53.6037064  56.7382860  40.4585171  54.9900341  55.2663231
  39.7037792  55.9412432  54.6336699  38.9746261  56.6085386  55.0689363
  40.1148319  56.0195398  53.3264780  39.8237753  56.7243862  52.6642227
  41.0789824  55.1717043  53.0347681  41.7634201  54.8716879  51.8178940
  41.4323044  55.3997564  50.9359026  42.8963947  53.9825296  51.8004608
  43.3505440  53.8674927  50.8273649  43.1795788  53.2610464  53.0498981
  44.0998411  52.7105236  53.1781244  42.4306583  53.4953165  54.2216444
  42.7402973  53.0009794  55.1305771  41.3967323  54.4871330  54.2509842
  39.2917180  54.7358131  58.9791250  38.1896663  54.3437767  59.3441963
  40.4366827  54.4528961  59.6639109  41.2925053  54.7738361  59.2341757
  40.6385136  53.5149097  60.7774448  39.8606491  53.8108397  61.4813280
  40.2764177  52.0633507  60.2454567  39.2030668  52.1331120  60.0689697
  40.6890821  51.9634342  59.2415524  40.5814362  50.8502293  61.0848808
  40.2549934  50.9784508  62.2753716  41.1528444  49.8807240  60.6476784
  42.0516014  53.6721134  61.3706970  43.0536842  54.1601658  60.8473063
  42.1755934  53.3555031  62.5953531  41.3820410  52.9705381  63.0874777
  43.4491062  53.3428431  63.3238840  43.8948011  54.3350649  63.2534599
  43.1663656  52.9492998  64.7566509  42.7061033  51.9671345  64.8644161
  44.1138697  52.9770613  65.2947617  42.2973824  53.9945126  65.4629803
  41.3113689  53.9134407  65.0054693  42.2195768  53.7504578  66.5224552
  42.8501511  55.3920317  65.4330158  44.0686035  55.7322025  65.4851151
  41.9862032  56.3320684  65.4920769  44.3888664  52.3094320  62.7128220
  44.0193319  51.2998056  62.0821285  45.6413269  52.7619410  62.7920723
  45.8243084  53.5703325  63.3692408  46.7895317  52.1909332  62.0464277
  46.3712025  52.0855236  61.0454321  47.9354906  53.2199335  62.0014334
  48.1266022  53.4499645  63.0496073  48.8535118  52.6859617  61.7560339
  47.7723312  54.4873333  61.1048460  48.1513309  54.5111752  59.9751568
  47.2056198  55.5725050  61.6326904  47.3301125  56.4677572  61.1819935
  46.8692017  55.3625250  62.5615788  47.2610521  50.8045721  62.5490952
  47.1463871  50.4502296  63.6728287  47.9561853  50.0930452  61.6335678
  48.1241941  50.5826092  60.7662725  48.5141659  48.7136126  61.8743134
  48.3046722  48.3447647  62.8783941  47.8221369  47.7323818  60.8449078
  48.0302715  48.0584288  59.8258543  48.1619740  46.7013597  60.9429455
  46.2578344  47.5374699  61.0645437  45.8205843  48.5282516  60.9409761
  45.6413078  46.6055822  60.0083542  44.5724106  46.5421963  60.2121782
  45.8729124  46.9424725  58.9979219  45.9341574  45.5634594  60.1361036
  45.9040022  46.9778776  62.4183893  44.8200655  46.9162560  62.5152731
  46.2416124  45.9453058  62.5073433  46.3607979  47.5682402  63.2126904
  50.0804377  48.7043238  61.7364883  50.6124401  47.8499699  61.0502863
  50.7450771  49.6635532  62.3721743  50.2456379  50.0540495  63.1584167
  52.1817684  50.0147581  62.1205616  52.2869205  50.2580786  61.0632801
  52.5153494  51.3302851  62.9202890  53.2885599  51.8703461  62.3738623
  51.6675472  52.0153189  62.9127932  52.9929209  51.1059666  64.3534994
  52.1354437  50.7208347  64.9053192  53.8301945  50.4089260  64.3881893
  53.3678436  52.3903465  65.0600338  53.9989471  52.9978752  64.4114017
  52.5474596  53.0335617  65.3783607  54.1744900  52.0460081  66.3149786
  55.0426579  51.4705038  65.9937620  54.5019436  53.0376434  66.6272831
  53.3252764  51.4881134  67.3579216  52.9455376  52.1864223  67.9810286
  52.5701809  50.9507704  66.9564247  53.8561630  50.8947182  67.9793262
  53.1301069  48.8201714  62.3557663  54.2476511  49.0449142  62.0160723
  52.7287102  47.6218843  62.8963995  51.8183708  47.5865459  63.3324432
  53.5186338  46.4218712  62.9703712  54.4316339  46.4931822  62.3792315
  53.9958572  46.1723804  64.4440651  54.7549915  45.3975964  64.5514154
  54.4872665  47.0914936  64.7632074  52.8223467  45.8702755  65.4302311
  53.1406975  45.7673311  66.6018581  51.6599989  45.7505703  65.0695372
  52.7408171  45.1944113  62.3914003  53.4240055  44.1945839  62.2266102
  51.4131784  45.2553129  62.0398474  50.8692837  46.0887909  62.2118711
  50.6804943  44.0327024  61.5588045  51.2302160  43.1388998  61.8538094
  49.3437624  43.9255333  62.3855495  49.4341373  44.4720030  63.3243275
  48.5141706  44.3271351  61.8036652  49.0565062  42.5487280  62.9273605
  47.9114437  42.4392653  63.3637905  49.9139833  41.7089701  63.2623529
  50.4924297  44.0609217  60.1200676  50.1066065  43.0171299  59.5857143
  50.7741833  45.1175642  59.4108438  51.2284040  45.8409786  59.9497843
  50.1835108  45.3609276  58.0541754  50.1457310  44.4299269  57.4885702
  48.6930561  45.5595255  58.1858969  48.2928801  44.8523903  58.9124823
  48.5000849  46.5185785  58.6666155  48.0474567  45.3491879  56.9453526
  47.8349543  44.4177771  56.8509388  50.8072662  46.4310169  57.2431946
  51.1921740  46.2387562  56.0755730  50.9983873  47.5745440  57.8558302
  50.7905245  47.5731754  58.8442087  51.8522120  48.6595964  57.2588539
  51.3911152  48.9302588  56.3089943  51.7151690  49.9056482  58.1270218
  52.1809673  49.7247458  59.0957355  52.3287392  50.6901598  57.6841068
  50.2857065  50.4905939  58.3721352  49.8480606  49.8368931  59.1266108
  50.3273630  51.9459009  58.8963127  51.0378313  52.0158625  59.7199869
  50.6437874  52.6629782  58.1388283  49.4177103  52.3314810  59.3567085
  49.3269968  50.4131985  57.1316624  48.3221245  50.7543278  57.3805714
  49.6060896  51.0744476  56.3113260  49.1996098  49.3492556  56.9319296
  53.3065319  48.2503653  57.0805788  53.9331007  47.9179955  58.0256510
  53.8313246  48.1282091  55.8165741  53.1681442  48.5135555  54.5907068
  53.3173513  49.5817375  54.4331455  52.1021461  48.2861137  54.5856524
  53.7685299  47.4857473  53.6288214  53.7401724  47.9537964  52.6448393
  53.1422043  46.6024113  53.7534714  55.1654720  47.2374916  54.0979671
  55.8969545  47.9057074  53.6435127  55.4555368  46.1980820  53.9443731
  55.0785351  47.6095963  55.6011534  55.2839756  46.8068790  56.3093472
  56.1402416  48.5465240  56.0675716  55.9819317  49.7327137  55.9970760
  57.3141336  48.0642319  56.5780401  57.4143934  47.0631599  56.6669416
  58.3380270  48.8476181  57.2454500  57.8806162  49.7517347  57.6472712
  58.9802504  48.2291698  58.4530115  59.7752714  47.5202656  58.2217216
  59.4798088  49.0032721  59.0355206  57.9418087  47.7107382  59.1981363
  58.1104469  47.8417444  60.1340818  59.3690777  49.4338846  56.3005543
  60.0239038  50.3909492  56.5600681  59.4063711  48.9593601  55.0563478
  58.9630079  48.0738306  54.8579311  60.1691103  49.5935726  54.0091848
  61.1374187  49.9163532  54.3916702  60.5702972  48.4783554  52.9958248
  61.3759089  47.9352617  53.4899282  59.7856903  47.7746010  52.7179337
  61.1072493  48.9485502  51.6444683  61.3818455  50.1866055  51.5116787
  61.3323879  48.0554676  50.6681204  61.9626331  48.3418131  49.9326611
  60.9809542  47.1099663  50.7193851  59.2741966  50.7201719  53.4902048
  58.1070089  50.5015898  53.0849075  59.8349428  51.9593716  53.4467030
  61.1787891  52.3747873  53.9052391  61.8509340  51.7641163  53.3024073
  61.2379026  52.2823429  54.9897051  61.2927341  53.8544226  53.5988379
  62.2951221  54.1944885  53.3386946  60.8155870  54.4376612  54.3864012
  60.5178785  53.9342403  52.2672129  61.1744976  53.7449694  51.4180183
  60.2565908  54.9857998  52.1486759  59.4122076  52.9902554  52.5034475
  58.7048054  53.5719728  53.0944538  58.6925125  52.6027727  51.2347412
  57.5245619  52.8967524  50.9712172  59.4073200  51.8940401  50.3298140
  60.3119230  51.5596867  50.6298113  58.8977718  51.5706730  49.0340614
  58.4901285  52.4527216  48.5401726  60.0985050  51.0865736  48.1572723
  60.5389833  50.2096224  48.6316490  59.7013187  50.6094122  46.7151594
  59.1009092  51.3504791  46.1875010  60.5875683  50.4719925  46.0956573
  59.1869783  49.6484184  46.7088795  61.2200689  52.1682167  48.0959797
  61.4580774  52.3978043  49.1346025  62.1579981  51.7330742  47.7509451
  61.0361195  53.5600233  47.3811388  60.0579262  54.0375757  47.4375629
  61.7725754  54.3065023  47.6786327  61.3117599  53.2451439  46.3746691
  57.7654982  50.6112099  48.9722061  56.7115307  50.8199644  48.3410740
  57.9187965  49.5326471  49.7491407  58.7713623  49.3628693  50.2633524
  56.7654037  48.7133360  50.0561762  56.4473152  48.3597851  49.0754032
  57.1933413  47.5589132  50.9852028  57.7246523  48.0701780  51.7879581
  56.3005686  47.1655989  51.4713717  58.0124807  46.3622236  50.4734421
  57.9088354  46.0736847  49.2389441  58.7900019  45.8133650  51.2845564
  55.5702496  49.4230270  50.6446123  54.4618416  49.2929316  50.1749849
  55.7265139  50.3067160  51.5967274  56.6756010  50.4741478  51.8988848
  54.5905685  51.1014080  52.1182442  53.8464212  50.4219103  52.5337267
  55.0964022  52.0518875  53.1811333  55.7929134  51.4162493  53.7278843
  55.6418943  52.8782129  52.7253628  54.0724468  52.5264740  54.2004204
  52.6487398  52.4984741  54.0282488  52.2581816  52.0358610  53.1339025
  51.7191696  52.9981995  54.9223089  50.6712341  53.1087494  54.6856356
  52.2150946  53.6405754  56.0712576  51.4220190  54.1140461  56.6309547
  53.5915947  53.5967398  56.3652849  53.9853334  54.1533899  57.2028494
  54.5036507  53.0296516  55.4345274  55.5360079  53.1975794  55.7036829
  53.9921618  51.9264984  50.9400988  52.7925014  51.9718552  50.7008362
  54.8020172  52.6096964  50.1104975  55.7914925  52.5223017  50.2932596
  54.2700338  53.3961010  48.9639759  53.6477470  54.1989040  49.3594122
  55.4198217  54.0867567  48.1432962  54.8901081  54.8838234  47.6215696
  56.1387300  54.5750570  48.8011980  56.0985279  53.2876635  47.1421862
  56.4465952  52.5120449  47.5881290  53.3335304  52.6037073  48.0309582
  52.2386742  53.0594254  47.7561808  53.7319279  51.4196110  47.5539541
  54.6852922  51.1538458  47.7553797  52.8871441  50.4963446  46.8257523
  52.2697258  51.0818481  46.1445141  53.6975002  49.5082760  46.0351515
  54.2944717  48.8873339  46.7031050  52.9716873  48.8934660  45.5028868
  54.5210791  50.1723051  44.9919558  54.0211630  50.8348846  43.8616800
  52.9477596  50.9517384  43.8852739  54.9111366  51.1621571  42.8487301
  54.5011234  51.7749310  42.0595551  56.3305616  50.9799528  42.9913378
  57.1354961  51.4529848  42.0016003  58.0676842  51.2458324  42.1002150
  56.7907953  50.4349899  44.1525888  57.8395271  50.1937628  44.2440701
  55.9072685  50.1166630  45.1638985  56.3767385  49.6083164  45.9930992
  51.8160152  49.7492075  47.6575327  50.7901144  49.2745209  47.0916080
  51.9049168  49.6848726  48.9635324  52.7051926  50.0625467  49.4503736
  50.7574272  49.4461298  49.8171520  50.3009939  48.5596323  49.3768215
  51.1681986  49.0501451  51.3029718  51.8085194  48.1688881  51.2645912
  51.6923523  49.9538898  51.6137934  50.1271200  48.7727690  52.3404121
  49.7933722  47.5951862  52.8852320  50.2890348  46.6560698  52.6882887
  48.6070871  47.7708054  53.6148119  48.1381845  47.0707941  54.1717768
  48.3506536  49.0602922  53.8657331  47.3280287  49.6801281  54.6120930
  46.6126204  49.0486813  55.1179314  47.2512007  51.1016321  54.5707750
  46.4814425  51.6120195  55.1305723  48.1988621  51.8131590  53.7833166
  48.1410027  52.8893805  53.7140465  49.1396761  51.1140251  52.9932117
  49.8681831  51.6272259  52.3830509  49.2237520  49.7456455  52.9841328
  49.6906757  50.5358934  49.6585941  48.5184956  50.2093029  49.3989611
  50.0351048  51.7814875  49.6706963  51.0154772  52.0016623  49.7731543
  49.1915703  52.9765034  49.4854212  48.3661604  52.8184128  50.1795483
  49.8385143  54.3405724  49.8579264  50.6995440  54.5388031  49.2196131
  48.7218714  55.3566313  49.5778036  48.4520292  55.6708956  48.5695744
  47.9033279  55.1545954  50.2686501  49.1794157  56.2774038  49.9396467
  50.2499390  54.5244408  51.3852549  49.4300222  54.2677450  52.0560217
  51.0883236  53.8589573  51.5910435  50.5090046  55.5622005  51.5951157
  48.5555553  52.9271841  48.0936909  47.2929478  53.0260944  47.9601049
  49.3953800  52.7943230  47.0543146  50.3956890  52.7419376  47.1836901
  48.8814020  52.7577448  45.6329203  48.3505297  53.6820316  45.4049635
  50.0423098  52.5450706  44.6255398  50.9014273  53.1686163  44.8729420
  50.3883266  51.5115738  44.6093798  49.6941185  52.5749826  43.5930824
  47.7561998  51.7372274  45.4257727  46.6983700  52.0768309  44.8646688
  47.9208040  50.5354786  45.9212446  48.7230492  50.3710747  46.5124083
  46.8496752  49.4846153  45.9215689  46.4563751  49.2815161  44.9254942
  47.5326490  48.2190180  46.4311075  47.8675890  47.6654768  45.5538893
  48.2698345  48.4383440  47.2034836  46.7905998  47.5682783  46.8937063
  45.6005430  49.7480154  46.8251181  44.4227076  49.5174026  46.4260769
  45.7639313  50.3852367  47.9893637  46.6677856  50.7123709  48.2994223
  44.5986176  50.7328367  48.8245440  43.9285135  49.8731565  48.8273859
  44.9579382  50.8228731  50.3359890  45.8293438  51.4564037  50.5014944
  44.1059542  51.1242867  50.9453917  45.4496050  49.4262552  50.8979034
  44.6837759  48.4824944  51.0532761  46.7603540  49.2269135  51.1322451
  46.9650221  48.3182096  51.5227127  47.4943113  49.8666334  50.8636141
  43.7704420  51.9718695  48.3348513  42.5932646  52.0356560  48.6751175
  44.3663931  52.9137659  47.6536417  45.3499460  52.8228188  47.4427938
  43.7088299  54.0533876  47.1121836  43.2227278  54.5422888  47.9564476
  44.7338629  55.1282024  46.6598988  45.5751944  54.6543169  46.1542320
  44.2234182  55.7482719  45.9229755  45.3339005  56.0492277  47.7798367
  45.8569717  55.3487825  48.4308863  46.2401104  57.0174599  47.0778036
  46.8392706  57.5050783  47.8467798  46.9082117  56.4725637  46.4108515
  45.6548166  57.7505112  46.5226793  44.2288113  56.7773914  48.4947491
  43.5436726  57.2160816  47.7693272  43.7611008  56.1068106  49.2156267
  44.5373154  57.7429104  48.8956308  42.6241970  53.8719988  46.1144209
  42.8234148  53.2063103  45.1434517  41.4049149  54.2977238  46.3864088
  40.9363747  55.3134489  47.3821878  41.2752056  56.2961531  47.0542002
  41.3248730  55.1148891  48.3810616  39.3932605  55.2817440  47.5099277
  38.9019370  56.0256290  46.8827581  38.9723825  55.3812313  48.5104561
  39.0881991  53.9426708  46.8250704  38.1335711  53.9002371  46.3006735
  39.1546845  53.1048346  47.5191212  40.2178860  53.8635635  45.6987906
  40.3677368  52.8373051  45.3634644  39.9592423  54.6334219  44.3309450
  38.8040638  54.6255350  43.9087725  41.0449409  55.1641607  43.7142611
  41.8990517  54.7683287  44.0802002  41.0070944  55.7779980  42.3571491
  40.2707815  56.5811968  42.3286867  42.4814415  56.3146973  42.1781683
  42.3815727  56.7757320  41.1955261  42.6033640  57.3997879  43.2872581
  42.6755285  57.0089054  44.3021965  43.3979225  58.1165028  43.0796432
  41.6423082  57.9082489  43.3643913  43.5540295  55.2220583  42.1062851
  43.6280394  54.7719193  43.0962372  43.3324242  54.5488119  41.2781954
  44.9083376  55.7931805  41.8209171  45.2222300  56.5570688  42.5322866
  45.6547689  55.0129414  41.9697952  44.9467564  56.2226820  40.8198357
  40.6312084  54.7980404  41.2045097  40.7555962  53.5931826  41.3574791
  40.2402544  55.3908300  40.0989962  40.2596951  56.4004564  40.1187325
  39.9872303  54.8509312  38.7954116  39.3051195  54.0229464  38.9884615
  39.3295455  55.8606291  37.8279757  38.3134270  55.9377384  38.2148337
  39.8438144  56.8017244  38.0228257  39.1787434  55.4474783  36.3959289
  39.8358512  56.0371637  35.5087471  38.3832359  54.5500803  36.1095858
  41.1542654  54.1754532  38.1929827  42.3346519  54.3612289  38.4525847
  40.8398104  53.1141281  37.3996639  39.8808193  52.8290367  37.2612500
  41.7615080  52.3034334  36.6726899  42.3986864  51.7128754  37.3309827
  41.0307455  51.1848068  35.9146357  40.4192591  51.6582632  35.1465034
  41.8976021  50.6772232  35.4915309  40.1068592  50.2881193  36.7533398
  39.0722728  50.7553625  37.3739409  40.4026031  49.1320658  36.8713260
  42.6579475  53.1211662  35.7624269  43.8873672  52.9632568  35.6766868
  42.1076345  54.1410780  35.0994349  41.1492300  54.3921137  35.2957463
  42.9518366  55.0023937  34.2584658  43.6144352  54.3618488  33.6764312
  42.1484756  55.8746052  33.2591295  42.8358126  56.3027143  32.5294733
  41.3814592  55.2599239  32.7880120  41.6549110  56.9997787  33.9696169
  40.9549570  56.7466307  34.5759034  43.9166832  55.8730268  35.0575399
  44.9911070  56.1225319  34.6277189  43.5105228  56.2417603  36.2829614
  42.5886154  55.9766960  36.5990782  44.3644714  57.1296167  37.2061920
  44.7824478  57.9318047  36.5979981  43.4697580  57.7686071  38.2515812
  42.6486588  58.2072496  37.6845789  43.0531931  57.0560837  38.9635420
  44.2235470  58.7497139  39.0909553  44.8209476  58.1189966  39.7492933
  45.1181602  59.7348309  38.3321214  46.0547161  59.2835569  38.0045271
  44.5558977  60.2489376  37.5525975  45.5224419  60.4472256  39.0512562
  43.2910109  59.4850206  40.0234985  42.7411842  60.1905298  39.4005704
  42.5879240  58.8107252  40.5124760  43.8503838  59.9908543  40.8104801
  45.4794073  56.2882328  37.8034616  46.6248083  56.7195988  38.0292201
  45.1135731  55.0608540  38.2148623  44.1310453  54.9625874  38.4271836
  46.0457468  54.1013432  38.7383890  46.5201092  54.4870996  39.6407604
  45.2931786  52.8059912  39.1714430  44.3194151  53.0580282  39.5913911
  45.0578976  52.1676588  38.3198118  46.2553406  52.0165920  40.0794268
  46.4834738  51.1523771  39.4555783  47.1631145  52.6154375  40.1530886
  45.7486296  51.5585566  41.4432716  46.5009356  51.9356823  42.1360254
  44.8587561  52.1497059  41.6595316  45.4593992  50.1028967  41.5396976
  45.8879185  49.4255829  40.9251070  44.8253345  49.5049381  42.4766302
  44.3954515  50.0550032  43.5776806  44.5706844  51.0226011  43.8082027
  44.0362692  49.4098997  44.2668247  44.7711706  48.1969690  42.3892546
  45.0524473  47.8603840  41.4794731  44.1664314  47.7620411  43.0713224
  47.1584034  53.8377762  37.7465153  48.3285522  53.9449263  38.1863427
  46.8959284  53.6377430  36.4166117  45.9560728  53.8866282  36.1430478
  47.9675961  53.6431265  35.4334807  48.5900354  52.7671385  35.6160045
  47.4293947  53.6216736  33.9661908  46.6532898  54.3774033  33.8452363
  48.5089684  53.7537003  32.8391552  49.0867329  54.6749592  32.9137850
  49.0729713  52.8226423  32.7832508  47.9949188  53.7627077  31.8780255
  46.7875767  52.2382736  33.7731838  47.5462294  51.4597321  33.6930275
  46.1291552  51.9993591  34.6083522  45.8917665  52.2130442  32.5057960
  45.2275276  53.0760717  32.4601340  46.4936447  52.1770239  31.5977526
  45.2909946  51.3064861  32.5787520  48.9202738  54.9033260  35.4358888
  50.1350641  54.7058344  35.4200625  48.2489681  56.0673285  35.5209661
  47.2505522  55.9632397  35.6324673  49.0018606  57.3100758  35.5907655
  49.5981836  57.2726440  34.6791172  48.1352997  58.5851860  35.5163527
  47.3706675  58.4437847  36.2801909  48.6913109  59.4831133  35.7859397
  47.5270224  58.8219166  34.1193700  47.1239710  57.8710890  33.7706876
  46.6915035  59.5190239  34.1830230  48.5345697  59.2617750  33.0358553
  49.7125626  58.9565229  32.9761124  48.0457401  60.1301098  32.2406769
  48.7175512  60.5729818  31.6302419  47.1013165  60.4730749  32.3433208
  49.9011946  57.4783182  36.7722940  50.9429646  58.0611277  36.5576220
  49.5018673  57.1525383  37.9809737  48.5200548  56.9218159  38.0349398
  50.4626083  56.9501734  39.1747689  51.0434628  57.8724241  39.1621089
  49.7516870  56.8093967  40.5883741  49.1787243  55.8826542  40.6193686
  50.5077648  56.7490911  41.3711977  48.8115072  57.9544210  40.9127092
  48.4141016  58.2219410  39.9336219  47.7570105  57.6748419  41.8845701
  46.9753695  58.4281683  41.7863894  47.2515249  56.7183256  41.7516661
  48.1401348  57.5983334  42.9021454  49.6951008  59.1856098  41.3517427
  50.3773451  59.4324303  40.5382824  49.0487337  60.0305939  41.5890503
  50.1916409  59.0277767  42.3091507  51.5888357  55.9077930  38.9099741
  52.7764797  56.2765360  38.9141226  51.1653185  54.6780348  38.6209655
  50.1809788  54.4710827  38.5295820  52.1555662  53.6228275  38.4541130
  52.6518106  53.6667442  39.4236040  51.3986492  52.2781277  38.4312630
  50.6068373  52.3784781  37.6889253  52.0058823  51.4414406  38.0858183
  50.7485533  51.9410038  39.8041224  50.2537489  52.8657103  40.1010799
  49.7190571  50.8395147  39.5519018  49.1573668  51.2162447  38.6971021
  50.2608156  49.9006414  39.4373322  49.0921497  50.9610081  40.4352617
  51.7090702  51.4975786  40.9055042  52.0833206  50.4936886  40.7048941
  52.5568199  52.1811056  40.9525204  51.1888123  51.4343023  41.8612432
  53.2167768  53.7390995  37.3882318  54.2590237  53.1339216  37.4377298
  52.9853630  54.4771194  36.3185358  52.1098328  54.9782944  36.3672972
  53.9561462  54.7028637  35.2443814  54.3709564  53.7217760  35.0130892
  53.3307362  55.1267052  33.8769412  54.1691971  55.0038242  33.1913900
  52.5482464  54.4266415  33.5841608  52.7589941  56.5380669  33.8538575
  51.9192934  56.5903711  34.5468664  53.4078026  57.3488283  34.1852379
  52.3221684  57.0362949  32.4848151  52.2429132  58.1172276  32.6005793
  53.1471157  56.9670820  31.7757511  51.1065960  56.3715744  31.9295073
  51.4537430  55.3923178  31.5998960  50.3299093  56.1911964  32.6726913
  50.5612803  57.1317768  30.8676934  50.0800228  57.9721212  31.1546063
  51.3016510  57.3366547  30.2119660  49.8236752  56.5653086  30.4737997
  54.9696159  55.7911110  35.5751991  55.8426142  56.1041641  34.7458863
  54.8299265  56.5051794  36.6605282  54.1266584  56.2266684  37.3298144
  55.8555984  57.3654795  37.2377539  56.1709023  58.0089903  36.4164257
  55.3312588  58.1230354  38.4759235  55.0930071  57.4617672  39.3090296
  56.4794159  59.0516710  38.9132977  57.0036936  59.4652700  38.0518031
  56.1122274  59.7881126  39.6280837  57.2997904  58.4494257  39.3036747
  54.0951300  59.0909672  38.1617498  53.3465910  58.4326649  37.7208066
  53.7313890  59.5333862  39.0891409  54.3300056  60.1861954  37.1663475
  54.8734713  59.8202038  36.2952614  53.3286905  60.4900408  36.8611336
  54.9358511  60.9769630  37.6087713  57.1250343  56.4957380  37.5113440
  56.9046593  55.3326893  37.8383493  58.3222198  57.0885277  37.2715640
  58.3686256  58.0638075  37.0131493  59.5885706  56.4294052  37.3898244
  59.4547844  55.3500128  37.4613047  60.3513861  56.5221024  36.0781646
  61.1795092  55.8133650  36.0770845  59.6227169  56.2705946  35.3075171
  60.9726429  57.8994560  35.7026863  60.1947689  58.8165903  35.5893850
  62.1856451  58.0631971  35.5562043  60.5253220  56.9209957  38.5734200
  61.6593742  56.3462687  38.7075543  60.0147724  57.7850056  39.4000745
  59.0780067  58.1302452  39.2471623  60.5967617  57.9023504  40.7746696
  61.5286541  57.3460817  40.8758688  61.1534023  59.3030071  40.9835672
  61.8631220  59.4141245  40.1637793  60.4031372  60.0572729  40.7463360
  61.8571472  59.4440746  42.2087622  62.6087141  58.8467979  42.2122335
  59.5639515  57.5257111  41.8810892  58.6446571  58.3482790  42.1402025
  59.6611118  56.3600111  42.4890232  60.2835798  55.6543159  42.1220970
  58.6333084  55.8543873  43.3488846  57.7534628  55.7674074  42.7113914
  59.0162325  54.4239998  43.8239241  58.2716608  54.1131687  44.5567942
  58.9405155  53.6876392  43.0238342  60.0021315  54.4559336  44.2876959
  58.2244873  56.8021011  44.4961548  57.0699215  57.0760441  44.7867918
  59.2404413  57.5691986  44.9567318  60.1463604  57.3563862  44.5641518
  59.1717672  58.6791801  45.9680080  58.6902809  58.3265400  46.8801022
  60.6058788  59.0716124  46.3040924  61.1666107  59.2782879  45.3925133
  60.6164360  60.3127050  47.1367168  61.6027117  60.4949427  47.5635147
  60.2988005  61.1082172  46.4626455  59.9089909  60.2909946  47.9656601
  61.4946318  57.9059124  46.9372559  61.3126898  57.0472336  46.2909842
  62.5663137  58.0975580  46.9908667  61.0782242  57.4813175  48.2972431
  61.7921066  56.7476845  48.6717558  60.9841871  58.2180119  49.0950775
  60.0168276  57.2554827  48.1945848  58.2720423  59.7903490  45.5515718
  57.2893906  60.1331854  46.2903214  58.4921312  60.2703762  44.3672466
  59.1634512  59.7577953  43.8134575  57.7416658  61.3990164  43.7658024
  57.5738144  62.1882629  44.4986200  58.4555244  61.9195604  42.5480652
  58.4301186  61.0969782  41.8333530  57.9208088  62.7119446  42.0243168
  59.9064970  62.4913740  42.7319717  60.4446936  61.7729330  43.3502674
  60.4511786  62.6109123  41.7954159  59.9473715  63.7996531  43.5052299
  58.9550257  64.5546436  43.6658192  61.0730886  64.1471720  44.0698004
  61.1291361  65.0455046  44.5280123  61.7860508  63.4338474  44.1241074
  56.2444401  60.9660292  43.4263849  55.3049755  61.8176317  43.5611200
  56.0518026  59.6861124  43.1589937  56.8387365  59.0978146  42.9250240
  54.7116184  59.0492249  42.9886150  54.2365837  59.6616745  42.2222281
  54.8766851  57.5632048  42.4512529  55.5903053  57.5309277  41.6279650
  55.2640438  56.9698906  43.2795238  53.4983921  57.1384048  41.8884945
  52.7226782  57.4580383  42.5843430  53.2980871  57.6442623  40.9439898
  53.5349751  55.5856037  41.8436909  52.6341534  55.2968788  41.3021517
  54.4589376  55.2870274  41.3484764  53.3025408  54.9734831  43.1449175
  52.3792648  55.1443768  43.5170221  54.1875505  54.5140839  43.9091778
  55.4365253  54.2385197  43.5588551  55.8337688  54.4643974  42.6581478
  55.9100389  53.5114717  44.0758514  53.8125372  54.3032217  45.1050329
  53.0043411  54.8752117  45.3044128  54.5290995  54.3053484  45.8168221
  53.9778852  59.0616322  44.2516565  52.9431248  59.7398520  44.2731810
  54.5348597  58.6629486  45.3466320  55.4921722  58.3472109  45.2837181
  53.9304590  58.8043070  46.6546679  53.0258274  58.2053232  46.5499926
  54.7817469  58.0449438  47.6847982  54.9729729  57.0448256  47.2958231
  55.7066441  58.5990000  47.8450775  54.1376305  57.9378557  49.1338825
  53.9814186  58.9305735  49.5560265  52.8570032  57.0917940  49.1689301
  52.7936411  56.6356850  50.1568842  51.9857359  57.7063704  48.9424658
  52.9017878  56.1817884  48.5706091  55.2142477  57.3225880  49.9387550
  56.1113977  57.9416227  49.9346304  54.8103666  57.2824287  50.9503698
  55.4563951  56.3056278  49.6300936  53.5831213  60.1834393  47.1893072
  52.6042700  60.3739166  47.8801394  54.3521166  61.1818790  46.6798115
  55.1365280  60.9160709  46.1017609  54.0849018  62.5802517  46.8652773
  53.9058685  62.6286888  47.9393816  55.3388596  63.3494520  46.5306711
  55.7036972  62.9381084  45.5895090  55.0344658  64.3958139  46.5067577
  56.4904070  63.2566786  47.5244761  56.1567783  63.6517811  48.4840012
  56.7554283  62.2087717  47.6650572  57.6290751  64.1204739  46.9393873
  57.8573132  63.6435032  45.9862280  57.3304558  65.1490879  46.7371845
  58.8340187  64.0535879  47.7807474  59.6902752  63.6174202  47.4698067
  58.6479616  64.2894411  49.0805101  57.6795578  65.0401878  49.6150208
  57.0216751  65.4160500  48.9471769  57.5552273  65.1205969  50.6141090
  59.5276260  63.7800884  49.9202394  60.2547550  63.1755638  49.5653677
  59.5008707  63.9919853  50.9073973  52.8524160  63.0901384  46.1355305
  52.0986605  63.8971090  46.7357779  52.5658607  62.5378895  44.9746609
  53.1344795  61.7693138  44.6489763  51.2399244  62.6947641  44.3495321
  50.8922434  63.7271404  44.3118572  51.3351536  62.2715950  42.9117441
  51.5748501  61.2369442  42.6665068  50.4099083  62.5189209  42.3913097
  52.6842976  63.1622124  42.0558500  53.6606503  62.4418354  42.6150370
  50.0801611  61.9367361  45.0242138  49.0745163  62.5767708  45.3172064
  50.1911879  60.5979204  45.3913498  51.0900640  60.2020454  45.1559591
  49.2639303  59.7404289  46.1414576  48.3398581  59.5146418  45.6092739
  49.9635315  58.3941364  46.4044857  50.9662485  58.7013960  46.7015696
  49.5282221  57.9465437  47.2979403  49.8367548  57.5566149  45.0791216
  48.8068390  57.2008848  45.0503492  49.9769783  58.2010746  44.2112970
  50.8328819  56.4609385  44.8140717  51.8703508  56.4074707  45.4733801
  50.6620264  55.6200647  43.9188814  48.7778902  60.4559183  47.4106169
  47.5735569  60.5163908  47.6861906  49.7036171  61.1281586  48.1171799
  50.6742191  61.0002279  47.8688622  49.3423605  61.9031239  49.3356800
  48.7788153  61.3738918  50.1040745  50.7876778  62.2923851  49.9977255
  51.2612963  61.3633156  50.3149366  51.3652849  62.8356838  49.2498636
  50.6103134  63.2327557  51.2397099  49.6485853  63.7457657  51.2408113
  50.6945276  62.3204994  52.3698950  50.7585859  62.9629469  53.2481098
  49.7511625  61.7759323  52.4100733  51.5975952  61.7103529  52.3870516
  51.7451048  64.2473078  51.2710428  51.7368650  64.7192907  52.2535229
  52.7164984  63.7765312  51.1198378  51.5906191  64.9955654  50.4936457
  48.4926605  63.1060839  48.9899445  47.4861622  63.3608198  49.7094679
  48.8485622  63.8780117  47.9494619  49.6422100  63.6535025  47.3665190
  47.9774761  65.0061226  47.4673414  47.9533339  65.7010126  48.3067703
  48.7175655  65.7295847  46.3609505  49.6852541  65.8728218  46.8417501
  48.9394331  65.0595236  45.5303526  48.3082438  67.1510124  45.9342670
  47.6178455  67.9292345  46.6908836  48.6881304  67.5982332  44.8256063
  46.5699053  64.5298719  47.0534992  45.5941200  65.1805830  47.4590111
  46.4074326  63.3005619  46.5175962  47.2696590  62.8156900  46.3137245
  45.1256704  62.6781368  46.2631369  44.5017052  63.4329176  45.7845211
  45.3019619  61.5098763  45.3076982  46.1523867  61.0187626  45.7806587
  44.0987396  60.5420351  45.1838875  43.2979679  61.1587095  44.7757387
  44.2830896  59.7010231  44.5154476  43.7328243  60.1177692  46.1188841
  45.7560253  61.9899082  43.9140272  44.9353743  62.3279858  43.2813025
  46.5352345  62.7448988  44.0185404  46.5074396  60.9052896  43.0717278
  47.4022961  60.6181192  43.6238718  45.9148884  60.0134277  42.8678513
  46.7678690  61.2816191  42.0824575  44.4072771  62.3166466  47.5820494
  43.2722044  62.6117611  47.6564693  45.0271797  61.6489458  48.5118294
  45.9876060  61.4014006  48.3210516  44.4248581  61.2110662  49.8382950
  43.5897398  60.5665255  49.5639753  45.5259275  60.3392792  50.5213594
  45.7436132  59.5628166  49.7879982  46.4473343  60.9214401  50.5073977
  45.1193810  59.6440268  51.7950964  44.8968029  60.4616785  52.4806690
  44.1236591  59.2062426  51.7244720  46.0631943  58.2824802  52.6728821
  45.0492907  56.7881632  52.2903109  45.6693363  55.9472322  51.9797039
  44.4408131  56.4364147  53.1234550  44.3328476  57.0322514  51.5059423
  43.9832687  62.3718691  50.7516003  42.8882265  62.2780657  51.3777256
  44.8149824  63.3997250  50.7827663  45.5993128  63.2493210  50.1644564
  44.5081568  64.6820211  51.3529921  44.3237591  64.6598244  52.4270487
  45.7843304  65.6435633  51.3171339  46.5279055  65.0949907  51.8952894
  46.0572815  65.7496357  50.2672052  45.6045008  66.9136190  52.0125723
  45.2611017  67.0162249  53.1696796  45.7221317  67.9279470  51.1682129
  45.7156420  68.8262320  51.6298866  45.9074163  67.7646065  50.1888847
  43.3496475  65.3947306  50.6831026  42.4869776  65.9140396  51.3980293
  43.1929255  65.3058863  49.3543720  43.9235783  64.8653698  48.8138247
  42.0377684  65.8634520  48.6373854  41.7183876  66.7417383  49.1983843
  42.4440098  66.2319899  47.1793365  43.2831049  66.8809509  47.4300671
  42.7883291  65.3475714  46.6432858  41.3637447  66.9938946  46.4600468
  40.6639004  66.2882423  46.0124159  40.9015369  67.6685667  47.1806622
  42.0195389  67.6669741  45.2670336  42.8617573  68.2022285  45.7055235
  42.3687267  66.9128752  44.5617008  40.9830761  68.6239100  44.6923923
  40.4917526  69.1918516  45.4824162  41.4840794  69.2556381  43.9588928
  39.8634481  67.9393721  44.0308809  39.2731929  68.5867596  43.5283041
  40.2079105  67.3871803  43.2585287  39.2496872  67.4175644  44.6400785
  40.7272291  65.0207567  48.7566805  39.6451569  65.6200027  48.8726282
  40.8033562  63.6215639  48.7566090  41.7231941  63.2095814  48.6912584
  39.5881939  62.8145313  48.8234043  38.9603615  63.1456852  47.9961967
  40.0335217  61.4126778  48.6238480  40.5212688  61.3100481  47.6544809
  40.8024740  61.0797071  49.3209410  38.6599898  60.1947260  48.8207579
  37.9885054  60.6265450  47.7495241  38.8565850  63.0180931  50.1443005
  39.4112253  63.1340933  51.3058805  37.5382209  62.9910040  50.0878143
  37.2050405  62.8976154  49.1389322  36.5423632  62.9907513  51.2002182
  36.9923186  62.7628803  52.1665049  35.6692767  64.2824221  51.2581396
  34.8853803  64.1635895  52.0061302  36.3971972  65.5356455  51.6497993
  37.1143913  65.7353401  50.8536482  35.7946801  66.4369154  51.7628860
  36.9337511  65.4168129  52.5911236  35.0249124  64.5138025  50.0437164
  35.6064677  64.3824100  49.2913008  35.4905200  61.9066286  51.2039757
  34.9953651  61.5169334  52.2657824  35.1564145  61.3769197  50.0256491
  35.5687475  61.7552328  49.1848421  33.9519596  60.5705929  49.7310305
  33.8697124  59.8849630  50.5743885  32.7079034  61.5327215  49.7386312
  32.9064584  62.4670649  50.2636766  32.3899293  61.7988348  48.7305737
  31.6173673  60.9904957  50.3683662  31.0770082  60.5201244  49.7293329
  34.0084720  59.7193193  48.4691811  34.9907398  59.7792435  47.7466965
  33.0783343  58.8623095  48.3339071  32.3873949  58.7456560  49.0613031
  33.0402732  57.8685522  47.2154236  33.6960173  58.2404089  46.4281368
  33.4673929  56.4067650  47.6396084  32.7972984  56.1473989  48.4592485
  33.3348799  55.6643009  46.8526649  34.9038219  56.3694334  48.0573988
  35.1806426  57.2726965  48.6010838  35.0976086  55.0542402  48.9606428
  36.1240697  54.8607016  49.2721224  34.5569539  55.1276493  49.9042606
  34.7566962  54.1567564  48.4444904  35.8451700  56.1923409  46.8654585
  35.6565523  55.1841116  46.4966774  35.6620908  56.9269848  46.0813189
  36.9066286  56.2686062  47.1012354  31.6596365  57.8923655  46.5112209
  30.6005907  57.9806137  47.1572924  31.5944457  57.8225183  45.2042723
  32.4483490  57.7463627  44.6702814  30.3877687  57.9168701  44.3737364
  29.4909620  57.8360748  44.9879980  30.3323603  59.3771696  43.7842941
  30.6819582  60.0537157  44.5641470  30.8989930  59.4645405  42.8572607
  28.7861419  59.9010229  43.1822824  28.1177211  59.7726870  44.3319035
  30.4309535  56.8287325  43.3045483  31.4444304  56.1772346  43.0146599
  29.2047596  56.4534855  42.8970003  28.4080076  57.0191050  43.1526661
  29.0701199  55.4602003  41.8168497  29.5093489  54.5209789  42.1530581
  27.5268102  55.2680683  41.5432024  27.1498966  56.2354660  41.2112665
  26.9601297  55.0685930  42.4526978  27.2110581  53.9796495  40.2686834
  29.7387266  55.9339619  40.5209684  29.4121075  57.0258427  40.1012182
  30.7308841  55.2243996  39.9940634  30.9708643  54.3716717  40.4792070
  31.2871575  55.3528500  38.6735487  31.6665816  56.3734055  38.7245512
  32.5478482  54.4642878  38.5750937  33.1687856  54.7068167  39.4374895
  32.2716498  53.4118891  38.6404920  33.3876300  54.6348143  37.3324108
  32.8924608  53.9809752  36.6144943  33.3578229  55.6540060  36.9471049
  34.9873853  54.2922020  37.4674320  35.3859854  54.8257732  36.6045737
  35.2789664  54.6710825  38.4469867  35.3471899  52.8075838  37.3911357
  34.7219491  52.1576118  38.0032682  35.1045513  52.4774027  36.3810802
  36.8149328  52.4807501  37.5113201  37.1254444  52.8312206  38.4062219
  37.0374441  51.4961243  37.4780440  37.4442196  52.9912901  36.9084525
  30.4297566  55.2364349  37.4088669  30.7144332  55.8820486  36.3694906
  29.3914056  54.3999052  37.3988104  29.1852665  53.8166809  38.1972194
  28.4941506  54.2289114  36.3079333  29.0732622  54.3213129  35.3891325
  27.9446149  52.8168344  36.4662576  28.6502266  52.0963478  36.8799210
  27.1076441  52.8733253  37.1622372  27.5120687  52.2793341  35.1199698
  26.8386602  52.9156971  34.5458031  28.3393788  52.0340824  34.4540071
  26.7637086  50.9554243  35.3635478  25.5457807  50.9945107  35.3704739
  27.4550653  49.8928261  35.5514646  27.0290732  48.9955425  35.3684020
  28.4529805  50.0478268  35.5359674  27.4790335  55.3715134  36.1243486
  27.0986629  55.6787300  34.9870563  27.0861220  56.0207605  37.2232842
  27.3677540  55.6776094  38.1304932  26.2295556  57.2544813  37.0800090
  26.1599779  57.4459457  36.0092139  24.8415494  56.9815683  37.5897861
  24.4491696  56.0855293  37.1088934  24.2693400  57.8840303  37.3747659
  24.8336244  56.8384075  39.4116044  26.8022919  58.5884953  37.6043129
  26.5615773  59.6798754  37.0424724  27.5333810  58.5850143  38.6902118
  27.8561831  57.6791954  38.9990640  27.9596567  59.6813154  39.5648503
  28.4146643  59.1960621  40.4283285  29.0586925  60.5494404  38.8895369
  28.5144877  61.2351561  38.2401228  29.5446110  61.1021662  39.6935725
  30.0971961  59.8365021  38.0562639  30.6958127  59.2844391  38.7808275
  29.7403550  59.1516590  37.2870064  30.9852242  60.8874512  37.3795223
  31.2935185  61.9791412  37.8742337  31.3913941  60.6974268  36.1318445
  31.6897726  61.4846897  35.5739141  31.0724711  59.8442316  35.6954455
  26.7877269  60.4379940  40.1505280  27.0881534  61.4038801  40.8424520
  25.4953599  59.9957609  40.1081276  25.2193451  59.2273378  39.5136189
  24.4596171  60.6027126  41.0122299  24.5092893  61.6913271  41.0356998
  23.0110908  60.2247238  40.6186628  22.9259372  59.1388035  40.5783224
  22.2976255  60.6995583  41.2921667  22.5838089  60.7535839  39.1954398
  23.0664945  60.1245403  38.4474993  21.5112400  60.5607224  39.2180252
  22.8572822  62.2549629  39.0994310  22.3410201  63.0506325  39.9584436
  23.4264588  62.7794361  38.1197619  24.7006559  60.1925850  42.4444771
  24.7049594  60.9779549  43.4232664  24.9932981  58.9206362  42.5577164
  24.9753237  58.3302307  41.7384481  24.8267889  58.1207943  43.7965965
  23.8479519  58.2771587  44.2499495  24.7860575  56.6809607  43.4871054
  25.7269812  56.5108967  42.9638004  24.5506454  55.5388403  44.6127605
  25.2213883  55.6758022  45.4609632  23.5026145  55.4100418  44.8832226
  24.9612379  54.6246815  44.1840076  23.6856461  56.4848375  42.6621008
  23.6963201  55.5360460  42.5161648  25.9204960  58.3097172  44.8152924
  26.9519234  57.7031708  44.7840786  25.6854105  59.0907001  45.8438301
  24.8165727  59.6053934  45.8260441  26.6188502  59.2806578  47.0141125
  27.6305199  59.2798090  46.6083670  26.3227201  60.6173420  47.7244282
  25.2421927  60.6324244  47.8670263  26.7890620  60.5476475  48.7071657
  26.6644287  61.8918133  46.9733047  27.7080083  61.8343687  46.6638756
  26.0489368  61.7760515  46.0811901  26.5260530  63.1198311  47.7716064
  27.4742508  63.9452600  47.5599098  25.5374122  63.3246756  48.5518932
  26.6855121  58.0804873  47.9896688  26.0073423  58.0710840  49.0075684
  27.4517298  57.0227146  47.6445007  27.7197099  57.0016527  46.6709280
  27.5702357  55.7835484  48.4233427  26.5519214  55.4195976  48.5599947
  28.3648515  54.7058582  47.6486778  29.4161558  54.9823046  47.7288914
  28.1548333  53.3647966  48.3535051  27.1694779  52.9855776  48.0826426
  28.9508152  52.6690245  48.0881405  28.0919504  53.5275555  49.4294500
  27.9568458  54.5454073  46.1831760  26.9363451  54.1729355  46.0940313
  27.9499316  55.5467224  45.7525682  28.8648272  53.5291862  45.4058409
  28.6019588  53.5038996  44.3483114  29.8995876  53.8403654  45.5491686
  28.7782955  52.4912930  45.7273865  28.0591846  56.0494900  49.8525238
  27.3634243  55.6035852  50.7562256  29.1617441  56.7435884  49.9981499
  29.6089745  57.1694517  49.1989470  29.8073602  56.7439795  51.3350725
  29.0020323  56.9930601  52.0260906  30.3991485  55.3936434  51.8495655
  29.5417500  54.7266579  51.9395733  31.6072702  54.7904921  51.0263443
  32.3803425  55.5515051  50.9199810  32.0150828  53.9222765  51.5440178
  31.3797307  54.4580984  50.0135040  30.8959699  55.5748320  53.1660223
  31.7315483  56.0474491  53.1590128  30.9496546  57.7751446  51.4809465
  31.7905760  57.8747892  50.6106186  30.9931707  58.4350204  52.6093340
  30.1722383  58.3745813  53.1945848  32.1385288  59.1679668  53.1953001
  32.5560355  59.9539995  52.5660515  31.7110395  59.8689413  54.5536184
  30.8516192  60.5214357  54.3995047  31.3843536  58.9350271  55.7652283
  30.6623173  58.1725788  55.4729366  32.2935438  58.3763361  55.9873581
  30.9727669  59.5059109  56.5975714  32.8119087  60.8079338  54.8764229
  32.3911405  61.4771652  55.4211092  33.2780576  58.1626129  53.4154129
  33.0399823  56.9624233  53.5601044  34.5312405  58.6432028  53.3477926
  34.5167828  59.6416998  53.1964731  35.7538748  57.9356670  53.7402964
  35.7603478  57.0735693  53.0733299  37.0080256  58.7695646  53.4304762
  37.8350472  58.0759525  53.5822487  36.9659901  59.0268946  52.3721218
  37.2404122  60.0263786  54.2705107  36.4408135  60.7666969  54.2446041
  37.3004055  59.7929621  55.3335381  38.6092949  60.6271029  53.9076900
  39.3946385  59.9484158  54.2404366  38.7863016  60.7657433  52.8411341
  38.7563753  62.0659637  54.4746351  37.8834152  62.6652956  54.2160940
  38.7552571  62.0168352  55.5635262  40.0475025  62.6246023  53.9630413
  40.3742599  63.4564495  54.4335365  40.8680153  62.0598269  54.1300535
  39.9772167  62.8875446  52.9904079  35.7187724  57.2627878  55.1390934
  36.3109374  56.2069511  55.3294754  34.9810600  57.7915192  56.1097240
  34.5143914  58.6560678  55.8754683  34.9726057  57.4236631  57.5472498
  36.0348701  57.4720240  57.7867556  34.1847348  58.4773684  58.4128428
  33.1008410  58.4506321  58.3007717  34.3476653  58.2152128  59.4582272
  34.5588827  59.9003935  58.1713724  33.7505507  60.8390284  58.2380247
  35.7902169  60.1889038  57.8706884  36.0736585  61.1553669  57.7951097
  36.4388514  59.4201565  57.9623365  34.6172428  55.9507322  57.8006697
  34.9804997  55.3127050  58.8215923  33.8602185  55.2655792  56.9545460
  33.5482597  55.8206224  56.1705065  33.4282517  53.9142036  57.1897411
  33.4022260  53.6710739  58.2519627  32.0206094  53.8476753  56.6578674
  32.0319104  53.8886261  55.5686951  31.4960456  52.9256535  56.9084883
  31.0243249  54.9710369  57.0540667  31.1503410  55.8284855  56.3930035
  30.0193143  54.5842266  56.8854523  31.0710073  55.4300356  58.4813643
  31.0068488  56.7084885  58.6682415  31.1953092  54.5400190  59.3299389
  34.4353342  52.8768682  56.6945171  34.3448782  51.7669630  57.1757650
  35.4238749  53.1871700  55.8161497  35.5577803  54.1812038  55.6975460
  36.3998413  52.2575045  55.3649092  35.8676624  51.4666224  54.8363400
  37.3950791  52.9794359  54.4291592  37.8049135  53.9326429  54.7631264
  38.5493398  52.0556450  53.9526415  39.2315006  51.9153547  54.7911358
  38.1136918  51.0922098  53.6878538  39.0076208  52.5647736  53.1047773
  36.6191649  53.5094452  53.2522488  36.2175775  52.6721668  52.6814651
  35.8456111  54.1899347  53.6081266  37.3676872  54.5549679  52.2554970
  38.3526182  54.2300177  51.9202042  36.7631054  54.5569849  51.3485336
  37.3749590  55.5800152  52.6260805  37.1835518  51.7261171  56.5701294
  37.3807788  52.3320913  57.6129866  37.4933100  50.4325628  56.5812778
  37.3717713  49.9078321  55.7268810  38.1233263  49.7217894  57.6990700
  38.8917255  50.4098511  58.0515480  37.1692061  49.4979668  58.8472843
  37.7987552  49.2978287  59.7143030  36.5471959  50.3767061  59.0176439
  36.2751079  48.2846355  58.6579180  35.3455710  48.2126427  57.6093149
  35.3627801  49.0231800  56.8957758  34.4112468  47.1339750  57.5790548
  33.7047815  47.0307589  56.7687130  34.4217181  46.1020851  58.5765696
  33.6805654  45.3166246  58.5646343  35.3860831  46.2350655  59.6064520
  35.4092145  45.5846643  60.4683352  36.2419415  47.3204708  59.6665287
  36.8669415  47.4397516  60.5391932  39.0272331  48.4518862  57.3420000
  38.6842966  47.6442719  56.4678383  40.1430798  48.1892347  58.0354166
  40.4009151  48.8935709  58.7118340  41.2292147  47.1741199  57.7129316
  41.3842583  47.0167160  56.6455603  42.5901842  47.5703859  58.2683039
  42.4887705  47.8708506  59.3111515  43.2965517  46.7406321  58.2426023
  42.9773951  48.7943888  57.5931358  42.9106522  49.5907116  58.1251240
  40.8130693  45.8585262  58.3138561  41.2589264  45.4993010  59.4220781
  39.8722029  45.1831198  57.6925516  39.4865108  45.5850124  56.8500423
  39.2107129  43.9716578  58.2105207  39.0486407  44.1230536  59.2777205
  37.8337336  43.7879419  57.6080608  37.1599507  44.6241474  57.7948141
  37.9825711  43.7117577  56.5309620  36.9157529  42.5495911  58.0753088
  37.3578811  41.5952492  57.7892017  36.5421057  42.4726248  59.5924616
  37.4728560  42.3278904  60.1409626  36.1371040  43.3961296  60.0062370
  35.9101009  41.5980768  59.7468662  35.5206394  42.5574398  57.4177122
  34.8736954  43.3441591  57.8058338  35.5648398  42.7650595  56.3485813
  35.0234246  41.5977526  57.5587273  39.9457598  42.6749992  58.0463219
  40.1876974  42.0247221  59.0653563  40.3609753  42.3778105  56.7611837
  40.1773787  43.0448151  56.0253143  41.4923382  41.4562273  56.4147377
  41.3096666  40.4517365  56.7964745  41.5951777  41.3176060  54.8909664
  40.7253790  40.8038521  54.4815636  41.7283440  42.2815514  54.3998623
  42.7380419  40.5992651  54.4573212  42.5080919  40.2131176  53.6090183
  42.8677464  42.0035458  56.9960880  42.9839230  43.1499100  57.3525190
  43.9015675  41.1155367  57.1161652  43.8155746  40.2039671  56.6898394
  45.2537012  41.4186811  57.5650215  45.2010822  42.2721529  58.2409763
  45.8544540  40.2969694  58.4070921  45.5834103  39.2831087  58.1126022
  46.9388533  40.3932905  58.4609365  45.4792690  40.4079819  59.9405670
  46.0310411  39.6693063  60.5219507  45.7052851  41.4065123  60.3146744
  44.0182066  40.0584412  60.1126099  43.4042883  40.8144426  59.6230602
  43.8713408  39.1125441  59.5912552  43.8360453  39.7522426  61.5293694
  44.0979815  38.8019824  61.7495823  43.6001635  40.4703188  62.6075745
  43.5780525  39.8877144  63.7410212  43.9185381  38.9458060  63.8713217
  43.3745337  40.5068684  64.5125961  43.3602715  41.7336893  62.5284147
  43.3930206  42.1118927  61.5924692  43.2826471  42.2837639  63.3719110
  46.0390854  42.0311165  56.4266109  47.1008492  42.6169634  56.6673565
  45.5316925  41.9209194  55.1661253  44.7035503  41.3821507  54.9563456
  46.1169815  42.5357723  53.9964437  47.1917105  42.3823214  54.0940046
  45.5095291  42.0012426  52.7017403  45.7547331  40.9413242  52.6343107
  44.4279146  41.9794273  52.8349495  45.8790016  42.6630068  51.3370323
  44.9586582  42.6075268  50.7556581  45.9769297  43.7408781  51.4662647
  47.0798635  41.9897175  50.6817532  48.1890726  42.0524645  51.2415314
  46.9523859  41.5339899  49.5147753  45.9902906  44.0581322  53.9934969
  46.9704914  44.7561502  53.6677694  44.8957396  44.6019983  54.4900465
  44.2707396  43.8717365  54.8002100  44.5274019  46.0006142  54.5166397
  44.8335552  46.4672995  55.4528952  45.0448847  46.4317274  53.6596298
  43.0436945  46.2482929  54.3064499  42.2347689  45.3509903  54.3615103
  42.7126503  47.5325108  54.1045046  43.7262726  48.6158991  54.1031361
  44.6344090  48.4130669  53.5354710  43.9528131  48.9749956  55.1070404
  42.9557085  49.7950554  53.4790325  42.8762245  49.6066761  52.4083805
  43.3762741  50.7681990  53.7324333  41.5638971  49.5614958  54.0257788
  40.7918787  50.2051306  53.6040878  41.5298223  49.7807837  55.0929499
  41.3694954  48.0848074  53.8156557  40.6845856  47.6806641  54.5610857
  40.8472776  47.6402187  52.3586607  39.6382499  47.4219847  52.1885872
  41.7799091  47.3742771  51.4677000  42.7000856  47.3976135  51.8834257
  41.6037655  46.8436909  50.1311207  40.5207491  46.7927265  50.0189686
  42.2686815  47.7217150  49.0405893  42.2568750  48.7891531  49.2609262
  43.2685947  47.3180532  49.1997290  41.6487074  47.4254084  47.6174831
  42.3903847  47.4637222  46.8196440  41.3754892  46.3755274  47.5116158
  40.1515341  48.3215857  47.2591448  40.6777239  50.0397253  47.0929861
  40.1866674  50.6092024  46.3038921  40.5117083  50.5357599  48.0492735
  41.7103529  50.1041174  46.7500019  42.1084642  45.3746986  50.1445389
  43.1177092  45.0416040  50.7950354  41.5395594  44.4657278  49.3380737
  40.7476282  44.7195625  48.7649107  41.8646383  43.0208826  49.1862917
  42.9337406  42.8553724  49.0531826  41.3061666  42.2548342  50.3876114
  41.4998579  42.7882433  51.3182354  40.2261591  42.1136570  50.4295492
  41.7367029  41.2542534  50.4272890  41.1955833  42.3762703  47.9912710
  40.0594378  42.7164793  47.6339817  41.9586658  41.6465664  47.2340298
  42.9030037  41.4294672  47.5189781  41.5784979  41.1814547  45.9351635
  40.7147837  41.7476082  45.5864906  42.6528692  41.5971470  44.9308157
  42.2371721  41.0995722  44.0546227  42.6098776  42.6825047  44.8399830
  43.5519028  41.0518026  45.2179527  41.0941696  39.6820426  45.9915304
  41.9427872  38.8080812  46.1502123  39.8336911  39.5585871  45.8088589
  39.2546535  40.3610849  45.6068373  39.1071272  38.2749510  45.9295893
  39.7594571  37.4954009  46.3231230  37.8930497  38.4445310  46.8824720
  37.2110224  39.1535759  46.4132261  37.4180984  37.4638104  46.8558025
  38.3381128  38.8026571  48.3362055  39.2532229  37.9569364  49.0145922
  39.5426559  37.0220208  48.5579014  39.6388268  38.2622743  50.3670454
  40.1458120  37.5334191  50.9819698  39.0839028  39.4024634  51.0072327
  39.5598888  39.7264814  52.2334433  40.4748583  39.4671988  52.3646069
  38.2658839  40.3104448  50.2799177  37.9612851  41.2532711  50.7096815
  37.8354931  39.9871802  48.9834642  37.1468115  40.6801271  48.5230923
  38.6737537  37.7022862  44.5904350  38.7764263  38.3671594  43.5377264
  38.1902242  36.4427352  44.5668364  38.1445456  35.8105040  45.3531647
  37.8323674  35.7896972  43.3192396  37.5345564  36.6185117  42.6769972
  39.1309595  35.1598930  42.7174997  39.8042035  36.0167813  42.6933575
  39.6378064  34.0276909  43.5454655  38.8858485  33.2614851  43.7340927
  40.4813147  33.5248995  43.0723953  40.0157642  34.3749547  44.5070601
  38.9167261  34.6453166  41.3152790  37.9147291  34.2233086  41.2377453
  38.9046741  35.4520583  40.5823946  39.6881700  33.9342523  41.0197020
  36.6207719  34.8911953  43.5383224  36.5726638  34.1311431  44.4982576
  35.5811501  35.0010800  42.6997948  35.5951118  35.6643271  41.9382095
  34.3337822  34.2651558  42.8556442  34.2526126  34.0539479  43.9218998
  33.1124830  35.1196098  42.4496508  32.2309113  34.8442078  43.0285168
  33.3511829  36.1704326  42.6136494  32.6636147  34.9564195  41.0305738
  33.3302808  34.4111848  40.1964855  31.4585233  35.3365970  40.6895733
  31.2183976  35.1722312  39.7223973  30.8306527  35.7373500  41.3716841
  34.4388461  32.8096652  42.1983814  35.5502295  32.4462318  41.6799974
  33.4829593  31.8569899  42.3925257  32.1817183  31.9487047  42.8913164
  31.5526223  32.5819063  42.2657013  32.2167563  32.2854304  43.9274073
  31.4588141  30.5998921  42.7547646  30.7149148  30.7078385  41.9654179
  31.0181904  30.3041577  43.7068653  32.6082778  29.5956039  42.4411249
  32.3090696  28.9387083  41.6243839  32.8094602  29.0657759  43.3722019
  33.7860036  30.4581380  42.1020794  34.7097850  30.1413512  42.5862026
  34.0282869  30.2167869  40.6341600  34.8124266  29.3473697  40.1842356
  33.5557675  31.1125684  39.7283602  32.8335571  31.6901207  40.1345015
  33.8479090  31.1564898  38.2383418  33.9973736  30.1319885  37.8975224
  32.6031399  31.6397500  37.5473714  32.5949359  32.7251863  37.6466870
  32.6514912  31.3838339  36.4889455  31.3449621  31.0931373  38.1096482
  30.5494690  31.5985179  39.1358447  29.7954988  30.5574918  39.4703603
  29.0406084  30.5341148  40.2423668  30.0814247  29.4431591  38.7897372
  29.7266197  28.5231090  39.0082026  31.1003804  29.7788334  37.9466391
  31.5158558  29.0897536  37.2262573  35.0952458  31.9298840  37.8485155
  35.4204178  32.1663332  36.6849017  35.8958340  32.3364210  38.8259149
  35.6631398  32.1511340  39.7911215  37.3300982  32.7985764  38.6023903
  37.8504324  32.7084184  39.5559239  37.9259872  32.2205138  37.8960919
  37.3394203  34.2381072  38.2995081  38.4555578  34.7333384  38.1687260
  36.2634134  34.9995542  38.3496785  35.3571630  34.5588064  38.4171605
  36.3554931  36.4636970  38.1386709  36.9937921  36.8114018  37.3264027
  34.9887586  37.0598149  37.7410197  34.2516637  37.0081902  38.5423493
  35.1205420  38.1300116  37.5816107  34.3370652  36.3820863  36.5943027
  35.0718427  36.3634562  35.3809023  36.0491991  36.8220592  35.3515506
  34.5429945  35.7464433  34.2892861  35.1048136  35.6544256  33.3715177
  33.3397055  34.9971509  34.3816090  32.8062320  34.4024205  33.2832527
  31.8512964  34.4929004  33.3221173  32.6084900  34.9320984  35.6474924
  31.6958213  34.3579888  35.7094288  33.1111693  35.7045865  36.7307830
  32.6090193  35.7023215  37.6869416  36.8851757  37.2320008  39.3944597
  36.3485551  37.0187831  40.4857683  37.8502703  38.1046152  39.2200494
  38.4008193  38.1471109  38.3743596  38.5554957  38.8677526  40.3164387
  38.6529899  38.1859446  41.1612654  39.9678516  39.2650366  39.9916434
  40.0349760  39.9883008  39.1789412  40.6943703  39.9715471  41.1778927
  40.5794430  39.3751431  42.0829821  41.7586517  40.0359583  40.9514809
  40.2712679  40.9732771  41.2529039  40.9226227  38.0849576  39.6541333
  40.8363914  37.6440549  38.6610246  41.9615936  38.4138680  39.6756124
  40.8538914  37.1822691  40.2612019  37.6759696  40.0425911  40.7563162
  37.1340203  40.7770634  39.9014091  37.5591183  40.2901077  42.0881653
  38.0174375  39.6551394  42.7260256  37.0212770  41.5318632  42.6677847
  36.8325162  42.2848082  41.9025707  35.6594896  41.2071085  43.3735466
  35.6851459  40.2745247  43.9372253  35.4983783  41.9884682  44.1162634
  34.5115089  41.2644053  42.3508406  33.5641456  42.1969604  42.2584343
  32.7482462  41.7743444  41.2461758  31.9570446  42.3570967  40.7980680
  33.1730700  40.5762053  40.7929134  32.8135157  40.0732279  39.9942708
  34.2493486  40.2516890  41.5330648  34.8315334  39.3641686  41.3336372
  38.0177927  42.0834875  43.7768888  38.2082510  41.5210772  44.8240089
  38.6203504  43.2701588  43.4354639  38.1755567  43.7854147  42.6892900
  39.3349290  44.1068554  44.3764448  39.9666595  43.4700012  44.9956703
  40.1974964  44.9811745  43.5104370  40.6297207  44.5223951  42.6211643
  39.5866799  45.8249331  43.1893921  41.2671137  45.5142927  44.5394564
  40.7658243  45.9328651  45.4121590  41.8998861  44.6665096  44.8020601
  42.0118952  46.5848255  43.7401867  41.7029953  46.9517946  42.5470352
  42.9656315  47.1948576  44.2844582  38.2871366  44.7354364  45.2898550
  37.5920343  45.6135559  44.8550272  38.0847454  44.2767048  46.4799786
  38.6113882  43.4350300  46.6652918  37.0767999  44.7751093  47.4347878
  36.2610269  45.2832031  46.9205284  36.4361811  43.6083937  48.1768274
  37.2280002  42.9408455  48.5166788  35.7582259  44.0305090  49.4699383
  35.2097225  44.9527740  49.2783976  35.1189375  43.2396936  49.8623943
  36.5191197  44.2473745  50.2196741  35.4931045  42.6730728  47.3828697
  35.9731698  42.3088074  46.4746046  35.2559495  41.8354273  48.0387735
  34.1246939  43.2601738  46.9669104  33.3840823  43.1637669  47.7608252
  34.1975713  44.2476654  46.5112209  33.7215948  42.7097607  46.1168194
  37.7367067  45.7227278  48.4450912  38.7886000  45.4161453  48.9690542
  37.0815134  46.8563366  48.7509060  36.2774897  47.1099901  48.1947517
  37.2230411  47.7697563  49.8759890  38.2050157  47.6775742  50.3400230
  36.9448900  49.1902447  49.2947435  37.6225591  49.3586874  48.4577894
  35.9505868  49.1232443  48.8531685  37.0065975  50.4502535  50.1915264
  36.4992809  50.2528238  51.1358547  38.5114288  50.7856417  50.4321861
  38.9768648  50.7108259  49.4494009  38.5673833  51.7155886  50.9980249
  38.9575195  50.0172424  51.0635853  36.4204884  51.5872955  49.3713045
  35.3554153  51.3727999  49.2834854  36.3615561  52.5373030  49.9024534
  36.8974233  51.6938925  48.3969975  36.1534047  47.4808693  50.8748436
  34.9281526  47.4486876  50.6624746  36.6642475  47.2118187  52.0762730
  37.6731610  47.2051811  52.1227121  35.8690906  46.8481541  53.2478094
  34.9439573  46.3510132  52.9561138  36.4936280  45.8015919  54.1791821
  35.9481335  45.8266354  55.1225376  36.1846590  44.3841600  53.7397289
  36.8451047  43.7010050  54.2737818  35.1381373  44.1160583  53.8846827
  36.4052701  44.3226957  52.6740551  37.7888298  45.9887838  54.5116997
  37.9327869  46.9098854  54.7407293  35.4315710  48.1019354  54.0213251
  36.2840986  48.9552355  54.3215609  34.1128683  48.2306862  54.2365789
  33.4595227  47.5245380  53.9290094  33.4345412  49.4368649  54.6545982
  34.1112614  50.1232767  55.1635075  32.8571367  50.2362823  53.4624529
  31.9909620  49.8038387  52.9616165  32.3752403  51.5809584  53.9100885
  31.9511461  52.1522617  53.0843353  31.5524364  51.4968443  54.6200323
  33.1240273  52.2419930  54.3464899  33.9719844  50.4666853  52.3603868
  34.0883136  49.6150589  51.6900778  33.7175989  51.2957048  51.6999960
  34.9302363  50.8002472  52.7586222  32.3016906  49.1020632  55.7372665
  31.4010429  48.2465553  55.5130625  32.3443890  49.6849108  56.9539452
  33.1091833  50.2976751  57.1983147  31.5402412  49.3709564  58.2013798
  31.7230701  48.3275175  58.4581089  32.1489954  50.2181959  59.2966795
  33.2281709  50.1965046  59.1449881  31.9580936  51.2756205  59.1136360
  31.9177771  49.6470022  60.6572485  30.7962036  50.0819969  61.3866711
  30.2738786  50.9992266  61.1580324  30.4705906  49.4903898  62.6003933
  29.6457386  49.8386049  63.2043505  31.1382794  48.3278370  63.0124903
  30.6440783  47.6013994  64.1112900  29.7336197  47.8128958  64.3302345
  32.1235132  47.7960873  62.2436142  32.6023173  46.9104719  62.6345634
  32.5267792  48.4406519  61.0405970  33.3560801  48.0028439  60.5048800
  30.0547147  49.6992970  58.0292606  29.2408991  49.0208626  58.7038851
  29.6797228  50.6611061  57.1263981  30.4450870  51.2095928  56.7610550
  28.2642531  50.9568024  56.8252325  27.6967573  50.0480986  56.6244841
  27.4621081  51.5919590  57.9738760  26.4015293  51.6585684  57.7313137
  27.4106121  50.8925200  58.8082886  27.9338479  52.9591990  58.5160542
  29.0212631  53.0112982  58.5700369  27.5410628  53.7847424  57.9225063
  27.2355223  53.2975531  59.8843145  26.2416553  53.7050104  59.6990871
  27.1632004  52.4364042  60.5486059  27.9009461  54.5475245  60.4947424
  28.2257819  55.3172445  59.7946596  27.2325134  55.0308800  61.2072468
  29.1719627  54.2419624  61.1951876  29.4789743  55.0675249  61.6894484
  29.0504837  53.4355450  61.7910385  29.8550296  53.9963341  60.4929161
  28.1254435  51.7201757  55.5000210  29.0635967  52.4177504  55.1817131
  27.0413852  51.5992832  54.7640419  26.3158202  50.9610415  55.0578165
  26.9634485  52.1000957  53.3733845  27.5688529  52.9969597  53.5046339
  27.6884484  51.1468935  52.4104786  27.0523572  50.2844477  52.2112894
  27.7383494  51.5605211  51.4032459  28.6275864  50.8195686  52.8565502
  25.5512357  52.4948454  53.0464745  24.6088815  52.1126223  53.7107754
  25.3894162  53.3415318  51.9881725  26.2248802  53.6800051  51.5326118
  24.2519283  54.1382217  51.6697073  23.4439445  53.6999512  52.2555256
  24.5576334  55.5717039  52.1803236  24.8424411  55.5227184  53.2313156
  25.3344035  55.9976435  51.5452623  23.1016898  56.6735411  52.0953846
  23.1446624  56.7544842  50.7625341  23.8948870  54.1108131  50.1980734
  24.8362064  54.0037537  49.4582367  22.6262212  54.3435335  49.8529196
  21.9375634  54.3760490  50.5910206  22.1596885  54.3906307  48.4953117
  21.0714364  54.4493437  48.5143280  22.6623607  55.5844069  47.6502848
  23.7111807  55.4792643  47.3727560  22.0376968  55.4155779  46.7731333
  22.3845959  56.9256830  48.1640196  21.2636781  57.2857094  48.1905413
  23.2722306  57.7858257  48.5965204  22.7882886  58.6698771  48.6625004
  24.2557526  57.8068972  48.3677340  22.2561026  53.0182266  47.8371525
  22.3204994  53.0019808  46.6031456  22.0785928  51.8879509  48.4891319
  22.0405746  51.9802761  49.4941902  22.1838164  50.5127907  47.9673338
  22.2512245  50.5928802  46.8823719  23.4270597  49.8792028  48.5643435
  23.2430053  49.5547581  49.5885277  23.5511160  48.9393663  48.0263710
  24.8184967  50.6756210  48.3862019  24.8862791  51.5315819  49.0576506
  25.9004855  49.7416592  48.9357948  25.8497953  48.9006472  48.2442570
  26.8864870  50.1973772  48.8451290  25.6873631  49.4208097  49.9554682
  25.1382470  51.0290432  46.9073439  26.1834931  51.2975168  46.7541075
  24.9452662  50.1576376  46.2816334  24.5381665  51.8739367  46.5694618
  20.8795071  49.8410511  48.1268740  20.3066182  49.8794556  49.2377424
  20.3948879  49.1898346  47.0897722  21.0254216  49.1298580  46.3030529
  19.4029629  48.1542063  47.0663118  18.8133562  48.3863544  47.9532003
  18.5933769  48.3215904  45.7157373  18.4912372  49.3807697  45.4794979
  19.2130339  47.7777290  45.0027561  17.2450793  47.6394224  45.8518696
  16.7082012  47.3795176  46.9108677  16.6307735  47.2932577  44.7488499
  15.7333159  46.8364286  44.8261690  16.9662976  47.5412798  43.8290596
  19.9800456  46.7605305  47.3850965  21.1441588  46.4991856  47.0585489
  19.1844726  45.8112764  47.9727793  18.1945693  45.9729719  48.0913401
  19.7447252  44.6024179  48.4605885  20.8236098  44.5166731  48.3311129
  19.5377028  44.5642805  50.0579548  18.5903335  45.0665665  50.2536678
  19.3647718  43.5259247  50.3408194  20.6284094  45.2340174  50.8606482
  20.9085870  46.1954689  50.4302883  20.0844455  45.5306578  52.2821522
  19.1545725  46.0993576  52.2861385  19.9192870  44.5903635  52.8081512
  20.8746552  46.0443926  52.8296375  21.8472314  44.3436766  50.9166527
  22.6268911  44.7372484  51.5688324  21.5997291  43.3581209  51.3110161
  22.3063159  44.2041063  49.9379492  19.0047288  43.4992456  47.7595186
  17.7764285  43.5318995  47.5953293  19.7376251  42.4800158  47.2972345
  20.7203984  42.5249910  47.5257826  19.2102540  41.6237879  46.2065935
  18.1777978  41.7097425  45.8678484  20.0027657  41.9523335  44.9066305
  21.0663223  41.9201326  45.1430893  19.8171484  40.8971548  43.8125610
  20.4769731  40.0567627  44.0281487  18.7563276  40.6584549  43.7365007
  20.0793147  41.2831497  42.8274822  19.8037684  43.4002495  44.4000101
  20.1592946  44.0862846  45.1688147  20.4910541  43.5235167  43.5630274
  18.3490479  43.8479900  44.0668106  18.0765080  43.4774828  43.0786037
  17.6865518  43.5684872  44.8860073  18.2645893  44.9342394  44.0989113
  19.3606246  40.2249670  46.7019510  20.4663491  39.8299932  47.0749235
  18.1973290  39.5060086  46.6826725  17.3368120  39.8706436  46.2997246
  18.1301320  38.1058240  47.0258665  17.3483396  37.6790261  46.3975811
  19.1250789  37.7319717  46.7841721  17.9214084  37.8399086  48.5438681
  18.1022120  38.8256884  49.3087339  17.6505411  36.5593147  48.9476347
  17.5195479  35.8804083  48.2114077  17.9954839  36.0803485  50.2687979
  17.5860202  36.6885948  51.0753202  17.3785603  34.6570015  50.4450941
  17.7757156  33.9660382  49.7014999  17.7753890  34.2521000  51.3760567
  15.8952093  34.6405745  50.3537416  15.4367232  35.5623841  50.7117462
  15.6191778  34.5966220  49.3001842  15.2281392  33.5441661  51.2457275
  15.6653249  33.6603022  52.2374344  14.1417515  33.5817647  51.3260317
  15.6104648  32.2180796  50.7472134  15.8846021  32.1338248  49.7787857
  15.5650342  31.1034131  51.4948940  15.8129668  29.9468851  50.9284163
  15.9190261  29.9615765  49.9241066  15.7032132  29.1854906  51.5828848
  15.3913009  31.0950398  52.7808952  15.2271128  31.9937110  53.2116270
  15.4816568  30.2026606  53.2452154  19.4890904  36.1846471  50.4826641
  20.2361274  35.8903623  49.5261955  20.0416017  36.4212656  51.6697836
  19.3237221  36.8673515  52.8319120  18.3327603  36.4219904  52.9199600
  19.3321466  37.9508257  52.9507113  20.1393223  36.2778854  53.9591312
  19.9903512  35.2278376  54.2107344  20.0414705  36.7539310  54.9347878
  21.5327644  36.5082502  53.4642982  22.3044682  35.9719443  54.0165234
  21.6874599  37.5867128  53.4972477  21.4055109  36.0799313  51.9681549
  22.0888877  36.7029500  51.3911343  21.7724681  34.5684218  51.6289568
  20.9673357  33.6809373  51.8070412  23.0994654  34.3575144  51.3772917
  23.7156248  35.1331425  51.1801815  23.6186075  33.0483627  50.9066725
  23.0297589  32.2666550  51.3865566  23.4455776  32.7532077  49.3991995
  22.4856353  33.2444000  49.2400217  24.2249107  33.1008220  48.7210321
  23.3443499  31.3914895  49.2430305  23.2921481  31.3707137  48.2846737
  25.0743437  32.9012656  51.2808371  25.7279015  33.7805295  51.8575144
  25.6546259  31.7108440  51.0822868  24.9830031  31.0251379  50.7678986
  26.8471003  31.2129974  51.8566465  27.1970439  32.1296549  52.3313856
  26.4464474  30.4228592  53.0758667  27.2761369  29.9854302  53.6311817
  25.6368637  31.2770176  54.1427135  25.0572848  30.5477428  54.7087097
  26.2844133  31.8212557  54.8301601  24.8943019  31.9793892  53.7640572
  25.6013989  29.4806242  52.6818371  26.1359930  28.6918402  52.5650644
  27.8685760  30.4287410  51.0286808  29.0502882  30.3662658  51.3893414
  27.4337840  30.0639319  49.8738480  26.4947677  30.2430654  49.5478630
  28.3294177  29.3792152  48.8961554  28.6908937  28.4744072  49.3847847
  27.5057483  28.8379431  47.6601601  27.2927451  29.6803784  47.0021057
  28.1124449  28.2535434  46.9684267  26.2187171  28.0743170  47.8676987
  25.5332398  28.8304472  48.2504416  25.8669972  27.8127837  46.8697071
  26.3049221  26.7976403  48.6748028  25.3371215  26.4945173  49.4017982
  27.3743081  26.1087966  48.6660290  29.4368196  30.3235579  48.3906412
  29.0985084  31.4049745  47.8923941  30.7249904  29.9062538  48.5564375
  30.7792711  29.1363239  49.2078733  31.8991208  30.6984305  48.2056427
  32.7672648  30.0858641  48.4489298  31.9721007  30.8465528  46.7340136
  31.2431359  30.1824665  46.2695694  31.4201021  31.7778730  46.6073561
  33.3960485  30.8244538  46.1611414  34.0946746  29.6945286  45.8344412
  35.2458453  30.0821209  45.3551006  35.9778500  29.3728685  44.9979734
  35.3718853  31.3938832  45.3890800  36.2228918  31.9322801  45.3114557
  34.2426705  31.9273257  45.9456205  34.0940022  32.9362011  46.3012409
  32.0910311  31.9956374  49.0115976  32.8313398  32.9051518  48.5719824
  31.3884926  32.1567416  50.1220274  30.8391404  31.3895512  50.4822111
  31.6336370  33.2504630  51.0296440  31.4140320  34.1837716  50.5111647
  30.7268429  33.1604338  52.2816181  29.6784925  33.0686474  51.9976521
  31.0170317  32.2582674  52.8201246  30.9645367  34.3487740  53.1131697
  30.4579568  34.3044257  53.9274263  33.1197190  33.3772111  51.4127684
  33.6610150  32.4374366  51.9228315  33.7169266  34.5309043  51.2121677
  33.1100702  35.1986361  50.7583332  35.1310229  34.8269391  51.3647223
  35.7390404  34.0321541  50.9325981  35.5291653  36.1027670  50.5643606
  34.8477769  36.8966031  50.8703661  36.5686464  36.3641000  50.7625580
  35.4032707  36.0070419  49.0845966  35.6340766  34.9239111  48.2806158
  35.9140515  33.9772558  48.7186432  35.4485226  35.2456045  46.9588661
  35.6551266  34.5402861  46.2660933  34.9303007  36.4985371  46.7845964
  34.7159672  37.3555541  45.6857252  34.8790240  36.9870782  44.6837044
  34.1926026  38.6059046  45.9038830  33.8896203  39.2376685  45.0820065
  33.9685822  39.0894604  47.2176409  33.7041497  40.1245451  47.3760128
  34.3387747  38.2901835  48.2941914  34.3782425  38.6808181  49.3002987
  34.8293900  37.0243764  48.1551886  35.5624914  34.8768020  52.8218508
  36.6835046  34.4768476  53.1139326  34.6985245  35.2228212  53.7648582
  33.7728572  35.3994656  53.4014797  34.8556590  35.2569580  55.2798462
  35.9229279  35.1400542  55.4679346  34.4703436  36.6457868  55.9879112
  33.3843207  36.7247534  55.9387207  34.7324467  36.5052700  57.0365572
  35.0827098  37.8564239  55.3604460  36.1884832  38.5099649  56.0027742
  36.5524840  38.2564592  56.9874763  36.7039442  39.6318555  55.3365660
  37.4316955  40.2149487  55.8813429  36.2465072  40.0096130  54.0860415
  36.6177225  40.9298372  53.6596775  35.3080678  39.2711616  53.4843397
  34.9287581  39.6023750  52.5289202  34.7072792  38.1839728  54.1494608
  33.8850307  37.6663780  53.6778545  34.0677476  34.0942359  55.9739685
  32.8336072  34.1362882  56.1089611  34.6996498  33.0014753  56.4316511
  36.1372876  32.7773571  56.3826180  36.7696428  33.5975838  56.7224121
  36.5517616  32.4450588  55.4308367  36.3687825  31.5444660  57.1741772
  36.5340781  31.9062495  58.1890106  37.1318817  30.8986378  56.7397928
  35.0172067  30.8632326  57.3113489  34.9698806  30.3455520  58.2694006
  34.9842191  30.1380444  56.4982557  34.0319586  31.9729328  57.1375751
  33.2188678  31.5746784  56.5306330  33.3474922  32.4404645  58.4091663
  33.8376665  33.2167435  59.2779207  32.1057630  32.0079398  58.5724878
  31.6905165  31.5176558  57.7931976  31.2048721  32.4725151  59.6145487
  30.7621694  31.5804172  60.0575829  31.6635728  33.0304098  60.4309130
  30.1905441  33.5226393  59.1627693  29.3317056  33.9199448  59.9575663
  30.1730466  34.0305495  57.9324627  30.9243298  33.7241220  57.3309803
  29.3677044  35.0811028  57.3740005  28.5731101  35.2802491  58.0930710
  30.1717567  36.2970424  57.0770884  31.0201573  36.1533451  56.4080095
  29.4419479  37.0038390  56.6822243  30.8432722  37.0721817  58.2899714
  32.1322012  36.6463041  58.6912584  32.6830769  35.8765745  58.1712055
  32.7342987  37.3903298  59.7621250  33.7194347  37.1037102  60.0994110
  32.0556855  38.4900832  60.4122543  32.6995993  39.2018318  61.3784456
  32.0859432  39.8820925  61.6652727  30.8177996  38.9721608  59.8389816
  30.3502131  39.8852634  60.1766348  30.2546024  38.2690048  58.7666368
  29.3967319  38.7518620  58.3224392  28.7010550  34.6461296  56.0809708
  29.2579603  33.8893986  55.2953100  27.3758888  35.0170922  56.0140753
  27.0958495  35.6250644  56.7704153  26.6530800  35.0892639  54.7594929
  26.9649267  34.2798996  54.0993547  25.1344848  34.7892547  55.0770569
  24.5266724  34.9330640  54.1837597  25.0672555  33.8053346  55.5412579
  24.7979927  35.4768825  55.8529663  26.8940520  36.3185072  53.8506937
  27.2719312  37.3541737  54.4734478  26.6136718  36.2966132  52.5456810
  26.3144398  35.4417157  52.0987892  26.6274953  37.4406290  51.6207027
  26.9118452  38.3280492  52.1861506  27.6223326  37.2201252  50.4572821
  27.4553561  37.9643059  49.6785641  28.6455131  37.2785854  50.8284712
  27.4467635  35.9274769  49.7677469  28.0715442  34.7716665  49.9943590
  28.7929964  34.6705794  50.7916641  27.8611016  33.8358498  48.9974260
  28.3934069  32.9782367  49.0327406  26.9738626  34.3241000  48.0222750
  26.5345979  33.8482404  46.7907381  26.8647981  32.8670478  46.4831209
  25.7512045  34.7092915  46.0023451  25.4560041  34.4188786  45.0048876
  25.3157330  35.9225059  46.5868473  24.5935297  36.5411782  46.0749245
  25.7480645  36.3640451  47.8289557  25.3825831  37.2858429  48.2568741
  26.6851711  35.6317067  48.5506582  25.2012372  37.7106214  51.0220718
  24.4708538  36.7149806  50.8851051  24.8274755  38.9704227  50.8078957
  25.5511236  39.5875764  51.1478281  23.6880255  39.4388485  49.9391603
  23.3104920  38.5226178  49.4851828  22.5886130  40.0540304  50.7997322
  23.0209255  40.9060335  51.3244295  21.3221502  40.5473948  50.1086092
  20.7068539  39.6816921  49.8635244  20.8377767  41.1257982  50.8953381
  21.6525555  41.1544704  49.2657614  22.2483325  39.2050385  51.7653131
  22.9764247  38.7265015  52.1684122  24.2274523  40.4583025  48.8832331
  25.0738096  41.2655640  49.3056202  23.9468765  40.2145338  47.6055527
  23.1913066  39.5895553  47.3634529  24.2525530  41.1678934  46.4994144
  25.3341627  41.2964249  46.4581537  23.7691903  40.7064676  45.1074076
  22.7655911  40.2994204  45.2307224  23.9716172  41.6969109  43.9372110
  23.7267900  41.2705755  42.9643774  23.2550430  42.4949884  44.1313553
  24.9485230  42.1792221  43.9708424  24.5837235  39.4822979  44.7853136
  24.3271732  39.1389537  43.7831163  25.6430674  39.7370982  44.7541761
  24.3922710  38.6997151  45.5194855  23.7366605  42.5744820  46.7618847
  22.5427294  42.7156305  47.0262957  24.4967937  43.6237097  46.5592527
  25.4707956  43.4340286  46.3709784  24.2096925  45.0280762  46.8855667
  23.1693077  45.0675106  47.2082996  24.9412584  45.4107094  48.1854296
  25.9946895  45.5317259  47.9329681  24.5231628  46.3724709  48.4825945
  24.8805046  44.5756578  48.8833523  24.5046043  45.9932852  45.7089186
  25.6000948  45.9325457  45.1347828  23.5300350  46.8431854  45.2779579
  22.6731467  46.8023682  45.8110428  23.5040212  47.4159575  43.9643288
  24.4245815  47.4230433  43.3807039  22.6196289  46.5326643  43.1507635
  21.7279029  46.2501669  43.7103367  22.4080658  47.1583128  42.2836399
  23.3914518  45.3065681  42.6409101  24.4518757  45.4427147  42.4286270
  23.4027314  44.5736742  43.4476566  22.8395700  44.5730639  41.4515495
  21.6841435  44.7316742  41.1543322  23.6646485  43.7876511  40.7913876
  23.2955599  43.1900501  40.0656128  24.5880294  43.6848307  41.1874914
  22.8779626  48.8261175  43.9318705  21.9134474  49.1270304  44.6878958
  23.5275435  49.6963167  43.0846834  24.3173051  49.3792582  42.5407600
  23.3054376  51.1847305  43.1637144  23.5939765  51.5678692  44.1425180
  24.1532016  51.8710756  42.0817947  23.9998412  51.2455082  41.2024498
  25.2060080  51.8703270  42.3641157  23.5056472  53.5851288  41.6455650
  21.8355751  51.5733480  43.0451441  21.1824775  51.0497379  42.1142626
  21.2763858  52.5022364  43.8952541  21.8444347  52.9018211  44.6285772
  19.8094141  52.8536272  43.8537216  19.3864894  51.8567371  43.7294436
  19.3204749  53.5469866  45.1498890  20.0103259  54.3460274  45.4214382
  18.3078945  53.8566446  44.8912573  19.0799272  52.5718784  46.3110018
  18.6080551  51.6940308  45.8696175  20.0061321  52.2199249  46.7652941
  18.2299721  53.2846117  47.3674536  18.8347483  54.1286945  47.6989317
  17.2998846  53.6926603  46.9718075  17.8884983  52.3017740  48.5059500
  17.0675850  51.6993332  48.1170225  18.7012720  51.6219616  48.7615824
  17.4589312  53.0445385  49.7033072  16.6187859  53.5937548  49.5909834
  17.3383164  52.3743486  50.4492331  18.2276344  53.6254406  50.0062037
  19.2690694  53.7123394  42.6836967  18.0662787  53.7237406  42.3125601
  20.1878500  54.4251585  42.1178341  21.0914040  54.4393826  42.5689316
  20.0101042  55.2551937  40.8430147  19.0093124  55.6831551  40.9010553
  20.9261727  56.5188646  40.7655287  21.9265795  56.0887814  40.8136559
  20.8924627  57.2528648  39.3887901  20.9995317  56.5772867  38.5401273
  19.9569476  57.8081226  39.3209314  21.6604757  58.0027962  39.1994286
  20.7345963  57.3774290  42.0494890  20.6402755  56.7301893  42.9214334
  21.5057492  58.1385612  42.1682405  19.4883049  58.2407141  42.1415949
  19.5271778  58.6252403  43.1607771  19.5485663  59.1428566  41.5328121
  18.5707843  57.7081537  41.8913221  20.1014256  54.4387150  39.5867753
  19.1640246  54.4312954  38.8001037  21.1443210  53.6913013  39.3287635
  21.8983388  53.6491060  39.9994183  21.3572955  52.9413080  37.9829526
  20.3944468  53.0403233  37.4817252  22.5118136  53.7058020  37.1973276
  22.3418903  54.7702599  37.3590827  22.3894501  53.4746122  36.1391783
  24.1814613  53.1884241  37.6694417  21.5185165  51.4425898  38.0317307
  21.3460279  50.6963444  37.0183969  21.7655396  50.8846951  39.2299509
  21.8172908  51.5352345  40.0008059  21.9158411  49.4892311  39.5534372
  21.9708157  49.3661642  40.6350756  20.6395578  48.6270380  39.3626642
  19.7954953  49.0243292  39.9264169  20.4609585  48.5211134  38.2926250
  20.7923698  47.6188087  39.7476530  23.1865096  48.8582802  38.9483714
  23.2938576  47.6941872  38.5766053  24.2061853  49.7022915  39.0315723
  24.0696096  50.6843042  39.2241907  25.6179142  49.2853498  38.9917922
  25.8272576  48.8422155  38.0181861  26.5875483  50.4957628  39.1294789
  26.6586804  51.1185646  38.2377601  26.2458658  51.2036276  39.8846507
  27.9374862  50.0185728  39.4338894  28.6133599  50.6945848  39.5222354
  25.8321285  48.2441711  40.0538158  25.2367616  48.3208036  41.1363983
  26.7487407  47.2450447  39.8413992  27.1807361  47.2765255  38.9289856
  27.1104908  46.1608458  40.7486343  26.1926508  46.1085033  41.3342381
  27.4067783  44.7669744  40.1714563  26.5288925  44.4513798  39.6077037
  28.1465697  44.9275112  39.3872094  27.7118897  43.7751102  41.2488413
  26.7504621  42.9859161  41.9126368  27.3990130  42.3237944  42.8531027
  26.9837332  41.6395903  43.5782242  28.6718178  42.7053213  42.9016113
  29.2756176  42.3548508  43.6314726  28.9652252  43.5315466  41.8557072
  29.8547435  44.1126537  41.6621304  28.1657815  46.7472363  41.7072868
  29.3933415  46.6828537  41.3999033  27.7646041  47.2007036  42.8967857
  26.7777705  47.0283031  43.0253887  28.6046934  47.8939104  43.9251375
  29.3408966  48.4824896  43.3777046  27.8508854  48.8836384  44.8310280
  27.1524906  48.2577038  45.3865004  28.8312793  49.5434093  45.8727074
  29.2274475  48.7137365  46.4581919  29.6574092  50.0783062  45.4042006
  28.4026480  50.3308296  46.4926577  27.0680857  49.9243307  44.0065622
  26.1572742  49.5330334  43.5533428  26.7639041  50.6664085  44.7447300
  27.9076433  50.6362391  42.9653215  27.3833370  51.5199471  42.6016378
  28.8946319  50.9153175  43.3342028  28.0066061  49.9404955  42.1321058
  29.3452358  46.7944098  44.6640491  30.5321169  46.9050312  44.8636532
  28.6559200  45.7120943  45.1902628  27.6512623  45.6846714  45.0901937
  29.3845606  44.6599340  45.8176136  29.9469757  44.2231560  44.9923801
  30.0788832  45.0996637  46.5336227  28.5747004  43.6512995  46.5952349
  27.5817299  43.0910921  46.1381912  28.8599634  43.4682178  47.8988171
  29.5994377  43.9909554  48.3460569  28.1428051  42.6052952  48.8559389
  27.1868634  42.3091459  48.4239960  28.9162755  41.2634993  48.9441872
  29.9567556  41.5463543  49.1038704  28.6016917  40.7107353  49.8293924
  28.7090588  40.4990911  47.6269817  27.6573229  39.7299147  47.3427677
  26.8661785  39.4791412  48.0338573  27.8017831  39.2951798  46.0374117
  27.1449971  38.6543965  45.6153536  28.9321136  39.8064566  45.3820324
  29.5521998  39.6429229  44.1378355  29.0397096  39.0948248  43.3610821
  30.7915616  40.1634741  43.8852835  31.2717128  39.9264431  42.9473734
  31.4590383  40.9036922  44.8713350  32.4543881  41.2696552  44.6670008
  30.7799482  41.1770058  46.0556841  31.3436627  41.7343187  46.7891932
  29.5499158  40.5566263  46.3894224  27.9332066  43.2402706  50.2661800
  28.8851380  43.8407564  50.7637167  26.8147707  42.9027176  50.8758688
  26.2340999  42.2264194  50.4009581  26.5389705  43.0423546  52.3421955
  27.2582960  43.7665510  52.7245712  25.1108003  43.4883213  52.4790573
  24.9650264  44.3772602  51.8653488  24.4467616  42.7403402  52.0458460
  24.7427678  43.7589073  53.9121675  24.8960471  42.8987503  54.5638847
  25.5393410  44.3618679  54.3480682  23.3270359  44.2709112  54.1958952
  23.2047105  45.2551222  53.7437153  22.5562406  43.6321640  53.7646437
  23.0959606  44.3664885  55.6968164  23.2969213  43.3551455  56.0502338
  23.7156582  45.1193380  56.1839437  21.6761684  44.6836710  56.0035849
  21.0461164  44.0788841  55.4962683  21.5516162  44.5032024  56.9894981
  21.4308524  45.6551933  55.8768368  26.7593718  41.6889048  53.1361723
  26.1041451  40.6820154  52.9659843  27.8238201  41.6354656  53.9727592
  28.3551097  42.4602318  54.2127514  28.2816482  40.4471827  54.5665979
  27.9553342  39.5671988  54.0122986  29.8221302  40.4701424  54.7029018
  30.0768232  41.4713526  55.0504780  30.1507926  39.7425365  55.4449701
  30.4953837  40.3062677  53.3894873  30.8882618  41.3092470  52.5056314
  30.7163882  42.3480272  52.7460432  31.5867639  40.9334373  51.3433027
  31.7784238  41.7646217  50.6808853  31.8483400  39.6226859  51.0518026
  32.3044801  39.4444537  50.0892162  31.4635563  38.5595512  51.9607353
  31.6857457  37.5360417  51.6971684  30.8169103  38.9701533  53.1491137
  30.7749391  38.1828332  53.8871956  27.7316785  40.4737473  56.0070705
  27.7364945  41.4862347  56.7029238  27.1812177  39.3746352  56.4814806
  27.3731589  38.5270333  55.9668684  26.4067101  39.2810869  57.7588081
  26.7465615  40.0967836  58.3969688  24.9200726  39.5434284  57.6178598
  24.4662070  39.6535325  58.6027384  24.6279502  40.7985306  56.8383551
  25.1648235  41.6486311  57.2592974  24.9650931  40.6522322  55.8121824
  23.5690260  41.0567236  56.8275023  24.3582010  38.4809661  56.8167305
  24.2855453  37.6701331  57.3255253  26.7415047  37.9902959  58.5464668
  26.8760252  36.8885589  57.9860401  27.0457149  38.1923318  59.7727537
  26.8658447  39.1082764  60.1584959  27.3035693  37.1787691  60.7173729
  28.1690812  36.5954757  60.4030991  27.6032925  37.7511883  62.0808792
  27.5220871  36.9995475  62.8660822  28.5942936  38.2050848  62.0800495
  26.8317819  38.4751463  62.3430967  26.1627007  36.1389613  60.6954384
  24.9943590  36.5176630  60.8117008  26.4760542  34.8286295  60.7976007
  27.4443722  34.5557141  60.7082701  25.5407453  33.7422276  60.8885813
  24.6156693  34.0118384  60.3790236  26.0440898  32.4077368  60.1299810
  25.2998710  31.6369891  60.3304434  26.2224269  32.7801514  58.6497545
  26.0405970  31.8705630  58.0773115  25.4070854  33.4700942  58.4322691
  27.1467471  33.3200264  58.4441757  27.3128867  31.9730997  60.5772209
  28.0202031  32.3617148  60.0573301  25.0856924  33.4316802  62.3105526
  24.3913174  32.4362397  62.5166941  25.4768825  34.1888905  63.3399343
  26.1886358  34.8724747  63.1249475  25.2241325  33.9246416  64.7773552
  24.1834617  33.6467195  64.9443102  26.0981679  32.8030729  65.3892231
  25.9945607  32.7689075  66.4737463  25.8086514  31.8571377  64.9315262
  27.6183295  32.9602265  65.0992632  27.8916764  32.7293468  64.0696621
  27.8892446  33.9952707  65.3075600  28.3944011  32.0409894  66.0563421
  28.0753565  32.2210407  67.0829391  28.0790091  31.0079265  65.9100342
  29.8854041  32.2036767  65.9415150  30.2597332  32.1049833  64.9225760
  30.1460934  33.2004237  66.2973785  30.6124663  31.1895275  66.8033361
  30.5995846  30.2363634  66.4695501  31.6018915  31.3630128  66.9084024
  30.3357077  31.2310243  67.7737904  25.4028249  35.2134371  65.5865002
  26.1706018  36.1535668  65.1774931  24.7363472  35.3199601  66.7373085
  24.1250682  34.5457935  66.9543457  24.8989820  36.4285851  67.6765680
  24.7073007  37.3694539  67.1606827  23.8102865  36.3421416  68.6739588
  22.9214573  36.0741687  68.1027555  23.9745164  35.4279661  69.2444086
  23.5190868  37.5091124  69.6100664  24.3090582  37.4773002  70.3604221
  23.6252975  38.4678936  69.1025591  22.1097207  37.3706269  70.2485704
  21.3795328  37.5099635  69.4513798  22.1508408  36.3612413  70.6578922
  21.7682266  38.3240485  71.4148140  22.4151683  38.0122328  72.2347832
  22.1555877  39.2473507  70.9840441  20.3681254  38.3820772  71.7960835
  19.9861848  37.4725389  72.0128107  20.3748798  38.9753056  72.6134777
  19.7838581  38.8207412  71.0987234  26.2411666  36.4791822  68.4123707
  26.7794657  37.5343871  68.6667728  26.8315196  35.3446388  68.6063385
  26.3589334  34.4743633  68.4078789  28.0073667  35.1183534  69.4006300
  28.0415654  35.8739448  70.1854944  27.8499317  33.7155604  70.0408792
  26.8484116  33.6466956  70.4655170  27.9742217  32.9412818  69.2838192
  28.7910438  33.4040952  71.2121058  29.3014526  34.3738055  71.8811178
  28.9182234  32.2302461  71.5898180  29.3543100  35.2556992  68.6063051
  30.0759721  34.2649269  68.4268665  29.6165156  36.4578867  68.0430317
  28.8690639  37.1356106  68.0889940  30.7694030  36.8491793  67.2189283
  31.6669250  36.6777110  67.8131962  30.8667326  36.1317182  65.8110237
  31.8763494  36.2281609  65.4116774  30.9024882  35.0515461  65.9526110
  29.7136569  36.3031101  64.8868990  28.8162136  36.1778831  65.4927158
  29.5991778  37.3005366  64.4624758  29.7484827  35.0749326  63.5448647
  30.8347750  35.8679390  62.2781038  31.2692332  35.0751257  61.6691780
  30.3637624  36.5252185  61.5471935  31.6206336  36.4176559  62.7961206
  30.6170821  38.3549213  66.9351959  29.4976854  38.9098692  67.1085262
  31.6358757  38.9958572  66.3434744  32.4882722  38.4697580  66.2140894
  31.7501497  40.4203796  66.0752964  30.8405614  40.6876516  65.5374098
  31.7790246  41.2149715  67.4371767  30.9283710  41.0149622  68.0887032
  32.7898431  41.1263084  67.8352785  31.7560029  42.6202440  67.0825958
  32.6900196  42.7883530  66.9378424  32.9873347  40.6712627  65.1842117
  33.9379525  39.9309063  65.2813196  32.9250431  41.6549015  64.2532206
  34.0570998  41.9350529  63.3350182  34.5057869  41.0129404  62.9655790
  34.7905827  42.5041151  63.9062214  33.4359956  42.7420282  62.2329187
  33.0699086  42.0162821  61.5067101  34.1995955  43.3712864  61.7756987
  32.2906423  43.5143566  62.8235722  31.6482925  43.7309361  61.9700050
  32.7105689  44.3795347  63.3366299  31.7682862  42.5403357  63.8633871
  31.3697076  43.1200027  64.6959972  30.5816078  41.6892147  63.3099413
  30.7535958  40.8139038  62.4707508  29.3919563  42.0103550  63.7449360
  29.3122315  42.7473974  64.4308805  28.1453753  41.4512777  63.2006598
  28.0551124  40.3696203  63.3006001  26.8955612  41.9122744  63.9199305
  26.9174910  42.9792309  64.1417789  26.0089707  41.6991997  63.3227253
  26.7010641  41.2568855  65.2215433  27.6572800  41.2860155  65.7439423
  25.9003901  41.7900562  65.7341385  26.3495040  39.8147345  65.0546074
  25.2770114  39.4423079  64.5707226  27.1390700  38.9275074  65.5726767
  26.8655610  37.9640937  65.4417944  27.9631495  39.1561723  66.1099911
  27.9144645  41.6808510  61.6601229  27.2643518  40.7992792  61.0930729
  28.3454561  42.8014231  60.9804678  28.7031269  43.6169720  61.4569664
  28.0396175  42.9903221  59.4742727  28.3492374  42.1142673  58.9043856
  26.5105963  43.0760145  59.3459988  26.2976766  43.4311438  58.3377075
  25.9798217  42.1472788  59.5553541  25.8473253  44.1047955  60.2791262
  26.1422229  43.9258289  61.3131046  26.1862278  45.0919104  59.9647284
  24.3175316  44.0891838  60.0639486  24.0840149  44.3841219  59.0409184
  23.9527822  43.0802488  60.2565670  23.5915470  45.0637484  61.0546350
  23.6798263  44.7401953  62.0917559  24.0884757  46.0318565  60.9919500
  22.0959735  45.2158070  60.8296013  21.6113997  45.6898737  61.5782976
  21.9977903  45.8525515  60.0517702  21.5604687  44.3609953  60.7782841
  28.6151147  44.2138624  58.8852596  28.7430549  45.2694035  59.5169210
  28.9403152  44.2024279  57.6261330  28.7569571  43.2919693  57.2292137
  29.7809768  45.1372719  56.8141699  29.6734858  46.1921549  57.0666933
  31.2781620  44.7323465  57.0283079  31.9120765  45.3153801  56.3602304
  31.5647554  45.1005268  58.0134058  31.7659593  43.2912111  56.7991209
  31.7928720  42.3685837  57.8866243  31.4392233  42.6059914  58.8790798
  32.3633099  41.0645056  57.6507235  32.6011300  40.3770924  58.4490395
  32.8758287  40.6523561  56.4272594  33.3886409  39.7024155  56.3950253
  32.8781366  41.5711594  55.3907204  33.2806849  41.3962460  54.4039249
  32.3425126  42.8883553  55.5699968  32.4850059  43.6184597  54.7870255
  29.5515585  45.0094414  55.3000450  28.9892697  44.0044451  54.8077965
  29.9975586  46.0255480  54.6017265  30.3853202  46.8211937  55.0882292
  29.8727274  46.1496830  53.1304169  29.2341805  45.3180456  52.8325176
  29.1876125  47.4663401  52.7326202  29.8244214  48.3424425  52.8551769
  28.9075804  47.5117683  51.6801834  27.8885770  47.8858376  53.3341980
  27.7369237  48.3606720  54.5782137  28.6046886  48.4195757  55.2184629
  26.4402652  48.4242344  54.8915529  26.2008214  48.6618900  55.8435488
  25.5994797  48.1104612  53.8565397  24.2294168  48.0815935  53.6626863
  23.5898900  48.5023785  54.4244909  23.7251925  47.5286341  52.4731207
  22.6818275  47.4965668  52.1960640  24.5651722  47.0161724  51.5168047
  24.1456580  46.7211246  50.5663538  25.9159327  47.0864201  51.7309761
  26.4995980  46.7574644  50.8839083  26.5208030  47.6256847  52.8701401
  31.2127161  45.9796047  52.4912882  32.1855879  46.6184568  52.8625965
  31.2932158  45.0738811  51.4981413  30.4212475  44.5948935  51.3239527
  32.4278474  44.9105358  50.6083727  33.3122468  45.3678036  51.0520458
  32.5680685  43.8403606  50.4561853  32.0618176  45.5837107  49.2873621
  31.2878680  45.0093126  48.5454082  32.6665688  46.7484665  49.0272045
  33.3663154  47.0641279  49.6835709  32.3944664  47.5482464  47.8793049
  31.5168905  47.1741199  47.3520565  32.2642708  49.0320587  48.2287216
  33.2403946  49.4015884  48.5429335  32.1220064  49.6207571  47.3224688
  31.3230586  49.4330597  49.4001913  31.6996431  48.9105749  50.2795696
  31.5046549  50.9371805  49.6849442  32.5698876  51.1630821  49.7333622
  31.0776377  51.4476490  48.8217020  30.9807324  51.2293196  50.5950308
  29.8052263  49.0658426  49.4456720  29.3638110  49.5002985  50.3426123
  29.2747617  49.4260788  48.5642338  29.7469091  47.9861641  49.5834970
  33.6263490  47.4160528  46.9860029  34.7149563  47.6846266  47.3971891
  33.3985186  46.9833803  45.7910776  32.4721766  46.7222548  45.4848051
  34.5995021  46.7347479  44.8707390  35.4586864  46.3399935  45.4130220
  34.3727612  45.6671095  43.8051701  34.2319584  44.7069883  44.3016052
  33.1591535  45.8996868  42.8318071  32.3163557  46.2630701  43.4198093
  33.3123708  46.5698862  41.9859600  32.9048967  44.9506140  42.3598814
  35.5877590  45.5063677  43.0032158  36.3587952  45.4552937  43.5728645
  35.1020241  48.0406570  44.2903471  34.3542671  48.7542963  43.6676884
  36.4589572  48.2239676  44.2618132  37.0588970  47.5615788  44.7323608
  37.0049691  49.4264984  43.6474133  36.7551088  50.2871895  44.2678070
  38.5269952  49.4723845  43.7619591  38.8431120  49.2671585  44.7847271
  38.8822651  48.7108707  43.0677128  39.2225099  50.7660198  43.3104229
  38.8232636  51.1516142  42.3723316  39.0590620  51.4476824  44.1451216
  40.7702971  50.5972672  43.0568075  41.2108183  51.5862989  42.9309130
  41.2629509  50.1108837  43.8987255  40.9896898  49.7179985  41.9028521
  41.1859369  48.7633944  42.1680260  40.6258059  49.9408722  40.6785965
  40.2471542  51.0926056  40.1914930  40.2476406  51.8982124  40.8006763
  39.9513078  51.1592484  39.2280984  40.5034065  48.9436150  39.7798276
  40.7005978  47.9801750  40.0100613  40.2990532  49.1742611  38.8179851
  36.5941405  49.8117447  42.2112370  36.3587928  50.9701920  41.9922495
  36.4740205  48.8666725  41.3360548  36.7118025  47.9422760  41.6662836
  35.9232998  48.9971542  39.9277544  36.6632342  49.5046377  39.3088388
  35.5953574  47.6328945  39.4560862  34.8478436  47.1780109  40.1060104
  35.2246237  47.6555252  38.4313154  36.7715621  46.8600225  39.5049357
  37.3792505  47.0787525  38.7946725  34.6349597  49.7579575  39.8475623
  34.2166162  50.2151155  38.7560558  33.8389611  49.8149300  40.9276438
  34.1320252  49.4058371  41.8033504  32.4961138  50.4226971  40.9893560
  31.9135427  50.3406048  40.0717640  31.6111636  49.6762514  42.0164633
  30.6624889  50.1980305  42.1424341  31.5072346  48.6023855  41.8611956
  32.1067095  49.8898745  42.9635096  32.5949979  51.9077015  41.4182663
  31.5276265  52.5577211  41.3376808  33.7373447  52.4429846  41.8542147
  34.4925714  51.8120813  41.6268539  33.9004993  53.6627245  42.7147579
  32.8892136  54.0249729  42.8996325  34.6935511  53.3124208  43.9955044
  35.7538652  53.1787872  43.7810802  34.6525502  54.1798306  44.6543074
  34.1031265  52.1275043  44.8295307  34.0171504  51.2521839  44.1856909
  35.1068473  51.7831469  46.0135794  36.1473346  51.7771959  45.6888485
  34.9324322  52.4149752  46.8844843  34.8352623  50.7880020  46.3657665
  32.5957704  52.3563337  45.2837420  32.0123625  52.6438856  44.4090700
  32.1699786  51.4174843  45.6378126  32.6088238  53.1402349  46.0409927
  34.4661307  54.7691441  41.8801117  35.2451348  54.4926071  40.9857655
  34.1330457  55.9852505  42.2881651  33.3802223  56.0687733  42.9562855
  34.8207903  57.2578335  42.0385838  35.7636285  57.0562553  41.5301323
  34.0400124  58.1612492  41.0618162  32.9939055  57.9646492  41.2965870
  34.2887473  59.6808434  41.0928583  35.3540015  59.9036980  41.0322571
  33.6962581  60.1530075  40.3092003  33.9587045  60.0297594  42.0713425
  34.2418766  57.8544044  39.5734787  34.2118335  56.7770958  39.4103765
  33.4581566  58.3700657  39.0185237  35.6634092  58.2180500  38.9677000
  35.8877468  57.5340033  38.1492496  35.6369019  59.1417503  38.3896160
  36.4633751  58.1168890  39.7011328  35.0305915  58.0250835  43.3748674
  34.0229201  58.4580612  44.0283203  36.2631369  58.4066439  43.7285137
  37.4457574  57.9374743  43.0268431  37.5371218  58.4083700  42.0480585
  37.4786806  56.8483543  43.0557299  38.6351347  58.5523272  43.8237667
  38.8950634  59.4870710  43.3269882  39.5525074  57.9735088  43.9310503
  38.0739784  58.9990902  45.2447605  38.5509515  59.9096870  45.6072664
  38.0600619  58.2249641  46.0119820  36.6023850  59.2109966  44.8900652
  36.0250950  59.0272665  45.7962036  36.4057183  60.7503748  44.6243048
  36.8394017  61.3273335  43.6129045  35.6582808  61.4160872  45.5671835
  35.4341769  60.9075642  46.4105558  35.2094889  62.8441906  45.5326700
  35.5598569  63.2018375  44.5644617  33.6328769  62.9528284  45.6988192
  33.2752442  63.8595581  45.2109241  32.7763700  61.8087816  45.1235485
  32.7450967  60.9409809  45.7823706  31.7488337  62.1721792  45.1090574
  33.1874228  61.4745426  44.1709566  33.2660484  62.9300785  47.0480680
  34.0867472  62.7990103  47.5285721  35.8920145  63.6121321  46.5790892
  35.8325815  63.1648064  47.7844477  36.5300512  64.6288347  46.2540197
  24.8197699  54.4161892  39.7479630  30.7065797  36.1062646  45.7065392
  29.7362494  36.5435481  46.8087912  30.4955840  37.2639370  48.0518961
  31.6131425  36.4564776  48.5100126  32.1791196  35.5871415  47.6952314
  31.9584155  35.4793477  46.3736677  28.8879371  34.3935275  42.9155207
  28.8624001  33.4014702  43.9140606  29.6626258  33.8261986  45.0987816
  29.9957061  35.2207065  44.7296238  29.6270418  35.5304480  43.4657526
  27.7615047  32.8527045  41.4263868  27.7315569  31.8465328  42.4223280
  28.3511353  32.1486878  43.6696863  28.3203006  34.1195130  41.6381407
  29.9756527  36.5720534  42.8206587  28.2525253  31.2364101  44.7078943
  32.6559925  34.7861099  45.7598591  31.9242096  36.4715719  49.6838999
  31.0034370  37.1039248  45.3557825  32.9052091  34.9803257  48.0573654
  27.4167132  32.6382780  40.4191446  27.3580027  30.8364105  42.2826767
  28.4088635  34.8006201  40.7969236  30.6060243  33.2660747  45.0882959
  29.2389560  33.7112164  46.1043358  28.6406612  31.4385867  45.6197071
  27.6550078  30.4292130  44.5881653  29.2839837  35.6217027  47.1974325
  28.9736843  37.2898984  46.5502596  29.8486710  37.6287866  48.8604593
  30.9237337  38.1727266  47.6089764  69.5034122  47.6501703  38.4804177
  25.3310847  64.2472792  37.9177523  54.3684530  28.1628585  53.1142855
  36.3706398  54.7633696  60.6937265  53.2778454  50.0138712  20.9300995
  24.5446229  26.4691186  41.9371414  31.3285780  64.4336748  53.1646013
  37.6242781  50.3843260  20.8701777  82.1764653  64.0960010  12.8139816
  82.6663774  63.9847596  13.6287437  81.5830033  63.3454640  12.7869735
  57.7251228  16.1399091  18.8207660  58.4218582  16.0667241  19.4730316
  57.5416644  15.2362645  18.5638557  71.9287675  44.0452878  10.7959304
  72.5742620  44.5990752  11.2351261  72.2064155  43.1508404  10.9936844
  29.2616883  58.6083599  27.4365841  29.9521103  59.1193791  27.0142017
  29.1186085  57.8668769  26.8483959  71.3574069  32.4832203  25.3488002
  71.5491670  31.7111065  24.8165355  72.1190970  32.5747021  25.9212433
  70.1474524  30.9308076  58.0739403  71.0070467  30.9135938  57.6531839
  69.5763397  31.3566446  57.4346256  18.7052663  26.9270099  43.3204399
  19.1779264  26.8417228  42.4924598  18.7050565  27.8671468  43.5003696
  85.4024976  59.6041580  40.2843605  85.6861680  58.6999972  40.4194675
  85.8933108  59.8969658  39.5165001  23.1634982  26.5908349  33.6680732
  22.2418340  26.8326629  33.5770641  23.2449611  26.2943900  34.5745597
  52.0406311  61.2849887   7.3039089  51.8704813  61.4423449   6.3751875
  51.2367290  60.8800037   7.6294265  59.8399591  48.2103252  43.8001871
  59.3446255  47.4182415  44.0087032  60.4930162  48.2748127  44.4970274
  80.9040492  30.8554860  59.1604267  81.7175334  30.3947373  59.3658004
  80.2967351  30.1637741  58.8978706  79.9952691  73.1980403   8.3214937
  80.3650563  72.3978503   7.9484163  80.1981872  73.1429418   9.2553173
  64.3013137  52.9522248  17.0327221  65.2404612  52.7674313  17.0419727
  64.1760629  53.5914298  17.7341209  47.9124051  75.1175888  38.6370025
  47.5865870  74.6596177  39.4118152  48.8062160  74.7936948  38.5255275
  19.0938130  68.7529524  32.7862011  19.2569867  69.0728815  31.8989215
  18.2451382  68.3138116  32.7301632  18.3930436  47.8574814  18.5480629
  17.9609623  47.0203640  18.3784423  17.7093354  48.5126068  18.4081112
  78.2315915  68.3450516  34.8633228  78.0006736  68.1655248  33.9519058
  78.6287921  67.5316270  35.1744590  23.5391410  11.4219964   7.1656500
  23.9594396  12.1555722   6.7168174  23.7028392  10.6685889   6.5983616
  31.8105078  63.0649662  68.8581944  31.8665457  63.8990641  69.3244267
  32.2299790  62.4345970  69.4437838  13.1341298  17.6708806  51.8466983
  13.0063899  16.7569030  51.5926204  13.6554464  17.6260388  52.6482235
  42.3765739   9.4557727   7.7860199  42.4141868   9.2414344   8.7181554
  43.2534440   9.7790015   7.5790105   5.1065361  81.3790798  58.1095123
   5.3663057  80.9676170  58.9338017   4.6524712  82.1791840  58.3738708
   0.4620972  72.0149548   7.2692524   0.3910771  71.3204821   7.9241548
   0.0218907  72.7657803   7.6676403  75.2144712  39.6669629  15.7994590
  75.3997653  39.9134424  16.7056308  76.0767835  39.5890668  15.3913246
   5.4969080   5.2931559  45.6711231   5.4106053   5.2663148  44.7181926
   6.2965353   5.7962573  45.8251224  41.9624074   7.3927081  39.3853698
  42.3882755   8.1068290  39.8595939  42.0214685   7.6478446  38.4646927
  83.7991994  72.1021207  44.9984584  84.1210025  71.2028058  44.9359451
  83.0401795  72.1259530  44.4157539  13.2018271  53.6431547  15.1846729
  13.5163870  53.3884581  14.3172489  13.0286684  52.8136082  15.6297527
  21.3759836   0.3381885  58.9594589  21.2242301   0.1602090  59.8876415
  20.9155591  -0.3655135  58.5022483  56.9522095  45.5771017  57.9701519
  57.4045801  46.2237501  58.5118580  56.1992836  45.3083134  58.4965420
  75.9985994   1.1963141  23.5718380  75.7865106   1.5677751  24.4281421
  75.1782666   1.2427438  23.0807815  75.8742221   5.4476893  27.6672207
  76.6289886   5.1592076  28.1803833  75.1187690   5.0761044  28.1226860
  25.9216252  52.6541634   8.5191093  25.9058609  52.0299001   7.7936588
  26.4798012  53.3673759   8.2092653  42.3606475   8.9073909  23.6262355
  42.2855075   9.1732276  22.7097641  41.8698963   9.5721448  24.1094432
  33.5358842   0.7805837   5.1968847  33.7830099   1.3429130   5.9310136
  33.6834987   1.3211453   4.4208465  22.5462945  19.2466987  14.0672527
  23.2486137  18.9351094  14.6381221  22.2928413  20.0917066  14.4386898
  81.4983504  53.2323285  35.5680404  81.2083142  52.3917182  35.9222828
  81.3513320  53.1584223  34.6250950  17.8600963   3.2087386  21.7406498
  17.6883109   2.2749007  21.6195331  17.0946010   3.5335792  22.2147022
  74.5484924  27.8987169  68.2767677  73.5957813  27.8220177  68.2249117
  74.7977591  27.3099351  68.9891100  27.8403416  66.6896422  34.4263492
  27.3860016  65.8958276  34.1441093  27.6835385  67.3186167  33.7220512
  81.9915813  56.8957956   5.9144626  82.8068727  56.4682396   5.6522976
  81.3859981  56.7186113   5.1946674  35.9974845  11.1025727  28.1074749
  35.9161886  12.0562995  28.1021438  36.7216285  10.9205640  27.5085483
  54.6894901  37.4690850   2.9474817  55.5745357  37.1157210   2.8576933
  54.2551201  36.8745308   3.5590873  35.2764924   1.9875968  56.8760906
  35.5759366   1.4635575  56.1331592  35.0311168   1.3433850  57.5401817
   2.3252955  77.3065074  39.6468006   2.4642649  76.5275891  40.1855026
   2.6372805  77.0552524  38.7774501  83.5607760  54.8847242  43.4753833
  83.8340085  53.9771207  43.3418499  82.7821200  54.9835201  42.9275070
  24.6637383  68.9456280  20.1174389  25.5475178  69.3072923  20.1835666
  24.7367230  68.2535441  19.4602333  58.8147020  52.4145460  58.5565281
  58.9528561  51.6393423  58.0122805  57.9182196  52.6874781  58.3614492
   6.0303154  71.0541351  53.2077919   5.7282534  71.8954165  52.8653942
   6.7755595  71.2763436  53.7658821  21.1176284  16.4705432   5.0467334
  20.5570014  17.1968759   5.3194366  21.0062440  15.8116258   5.7320486
  46.6377640  55.3231812  64.4098711  47.3321724  55.5655432  65.0224829
  45.8344603  55.6452513  64.8187780   1.8156329  76.2345322   1.0396991
   1.0902920  75.9224065   1.5807090   2.5185624  75.6034787   1.1942802
  41.3534832  31.9877720  62.3351526  41.8918657  31.3367295  61.8851280
  40.6382275  31.4818716  62.7207756  13.4472164   6.6608537   9.9607978
  14.0825113   7.0005858  10.5910431  12.6096328   7.0280421  10.2433811
  30.0829013   8.7001861  18.4286247  30.2453454   7.8026355  18.1383739
  29.7787603   9.1546262  17.6429973  16.6405757  17.6861155  51.1230026
  16.0369094  17.1530307  50.6056724  17.3949798  17.1163619  51.2729679
   1.7497190   5.2018226  18.8626037   1.7671140   4.2572034  18.7089000
   1.1454996   5.5408633  18.2021461   6.6820231  62.1429117   2.6067339
   7.3140231  61.5513046   2.1983085   6.4372483  62.7506860   1.9089351
  47.9775000  24.3741846  55.9480476  47.7137899  24.3823647  55.0279284
  48.8723755  24.7139025  55.9437561   0.6348117  25.8982909  20.0798927
   0.5192383  26.7948306  19.7650943  -0.2110879  25.6685651  20.4644809
  41.2094307   8.0119812  67.2664690  41.9023752   7.3732406  67.0989418
  41.6547966   8.8590461  67.2475052  34.5586243  80.3607448  31.8977390
  34.2529621  80.0255354  31.0548626  34.0646973  81.1704333  32.0268474
  71.6091102  24.0092524  43.9749561  72.4214499  23.5034152  43.9533649
  71.7005103  24.6397646  43.2605873  59.0732527  37.2803617  57.1845770
  59.8366499  36.9413996  56.7170668  59.1971016  36.9895267  58.0880737
  70.7019472  26.5384030  63.6280584  71.2709856  26.5653253  62.8588295
  69.9994040  25.9353089  63.3852816  28.3265449  51.9366594   6.0716125
  28.0043603  51.2356039   6.6381427  27.6085545  52.5689455   6.0410472
  63.9027541  52.4238761  21.7568145  62.9628485  52.4030514  21.9367347
  64.0829509  53.3360680  21.5295158   0.9236756  78.8532408  26.9726024
   0.4794207  78.3627541  27.6641880   0.9064093  79.7615273  27.2741829
   4.4694384   5.1297915  16.9774376   4.0182837   4.2883218  16.9094406
   5.1329120   4.9918902  17.6534687  59.5229530  23.7228489  67.0458412
  59.9544239  23.0417013  67.5616884  60.2304316  24.1273403  66.5437508
  74.8580192  11.6172421  10.2130542  75.6834374  12.0972979  10.2798687
  75.0830351  10.7190288  10.4555641  34.5319700  29.2714024  68.6989689
  35.1670289  29.8026371  69.1793013  35.0595093  28.5991144  68.2677364
   6.3918620  47.2741365  47.8113699   6.0752612  47.9880619  47.2579193
   5.6458676  47.0549917  48.3696699  16.0964568   3.5107434   6.4335571
  15.3207906   3.7810147   5.9421096  16.7437108   4.1925395   6.2534319
  29.1558113  71.7136939  28.0036007  29.3103733  72.3907335  28.6623607
  29.6303788  70.9491713  28.3299766  59.8125117  66.8469866   7.7769504
  60.1150268  66.6872890   8.6709390  59.3748014  67.6971324   7.8204904
  65.8632469  69.2277098  68.0130100  65.6743765  69.8665667  68.7003469
  65.9818411  68.4009123  68.4805298  34.3236431  11.4781535  10.9859787
  34.6733220  12.1426499  10.3923355  34.5610793  10.6448329  10.5792461
  66.3637241  19.4904817  27.5369392  65.7749256  18.7860597  27.8077446
  66.5744003  19.9519122  28.3486782   6.2826117  19.0837872  21.3510929
   5.7047590  19.8312247  21.5048919   6.9714673  19.1741288  22.0095382
  78.4782355  62.3351152  28.3662353  78.0853456  62.0171698  29.1791187
  78.3595889  61.6160949  27.7456222  74.5225096  30.0401258  50.5273056
  74.6275616  30.7911229  49.9431849  73.6623812  29.6830964  50.3060818
  50.3662380  27.8948272  20.6056629  50.7967265  27.7535499  21.4488445
  50.7075103  28.7353957  20.3003631  11.4371386  52.8310426   3.3084760
  11.5192643  53.7846740   3.3171449  11.7536965  52.5712355   2.4433075
  24.6619924  11.3267196  31.9764553  24.8018869  11.4627755  31.0393654
  24.7588285  10.3822768  32.0984398  60.7389530  13.5434306  15.8794914
  60.9854301  12.9188216  15.1973282  60.1042827  13.0713380  16.4185176
  32.9726728   1.5340293  54.0722595  32.7973827   1.9298995  54.9259506
  32.8548225   2.2497046  53.4476314  68.6616230  20.7796073  64.0724564
  68.3261728  21.1086488  63.2385254  68.7759447  19.8399043  63.9306068
  71.5194600  53.8132687   3.9251266  72.0172875  53.1299706   4.3740163
  70.8835357  54.1124125   4.5750127  30.1831277   7.5520194  31.6163002
  29.9703010   8.3783973  31.1826645  29.6919521   7.5789798  32.4374233
  13.2096234  73.0616839  26.8070732  14.0700617  72.8598412  27.1746860
  12.7772608  72.2113164  26.7285095  76.0284179  52.8301962  26.8576275
  76.7847865  53.2381781  26.4360939  75.9485858  53.2834394  27.6969276
  12.1345361   8.6608136  37.8251205  11.5187200   9.2495025  37.3887191
  12.9446061   9.1666282  37.8896843  50.5891800  17.7570915  56.6171122
  49.9996090  18.1903255  57.2343206  50.8825970  16.9709814  57.0777321
  84.3658250  78.8051303  13.8475357  85.0711434  78.1652101  13.9437614
  83.5920947  78.2798870  13.6433445  61.7164373   8.7454182  12.1816599
  62.1386671   8.1597060  11.5532565  61.6056681   9.5681840  11.7051959
  80.6513082   3.4836448  19.8513256  79.8012362   3.3812678  20.2792583
  81.2695466   3.6030782  20.5722557  78.5072558  69.4664534  28.8381992
  77.7532523  69.8954089  29.2428146  79.1931193  69.5090611  29.5045410
  66.8276024  14.1207194  65.6227875  66.1924410  13.4046304  65.6183863
  67.6516724  13.7115598  65.3587341  85.3021035  44.6847053  70.8286667
  85.4691801  44.2070694  70.0161505  86.1709389  44.8347564  71.2012768
   4.4402447  59.0026315  10.7307945   4.7504940  58.2759710  10.1904808
   4.5044604  59.7691520  10.1610981  77.6283942  12.6153577   7.5328527
  76.6903327  12.4697602   7.6556335  77.7411257  12.6631177   6.5835176
  22.4174592  16.3832688  44.0940094  22.8945730  15.8153212  44.6990156
  21.9650743  15.7794344  43.5049772  73.5876172  75.0802787  16.1924396
  74.0443032  74.2523678  16.3415466  73.6860698  75.2425297  15.2542434
   6.3524762  35.8456262   6.2625776   6.9082489  35.5056633   6.9638382
   6.8247357  36.6096695   5.9317623  80.6713861  57.2632583  24.0160213
  80.9085935  56.7132802  23.2693706  80.3207629  56.6508694  24.6627651
  64.2716932  21.0722303  43.5994291  63.6070728  21.5858006  43.1403446
  64.2675638  21.4182496  44.4918871  46.8136501  17.3201764  58.5968637
  47.1745491  18.1893396  58.4221077  47.5088787  16.7155588  58.3373785
  76.8816083  60.1746972  10.7988010  76.9754594  59.4855388  11.4564357
  76.3128179  59.7922857  10.1306186  54.1233253  33.1563687  58.4255552
  54.1987848  32.7441263  59.2861319  54.6389771  33.9594817  58.4986496
  46.1088467  25.8117223  57.1945095  46.8639374  26.3269114  57.4784994
  46.4724159  25.1703978  56.5839720  41.7138806  63.2843216  13.8252578
  41.4651432  62.6440771  13.1585918  42.3445073  63.8548716  13.3859287
  70.6331914  56.6719099   4.0904365  71.5144580  56.5283246   4.4353853
  70.7497733  56.7028947   3.1408678  54.6935504  25.1797517   7.7687488
  54.7620528  24.9144872   6.8515955  53.8018482  25.5169924   7.8545795
  72.5771236   3.2300198  43.5297966  72.5234747   4.1819957  43.6140299
  73.2772446   3.0849612  42.8933859  58.2810307   9.2807353  66.6746140
  58.8639641   8.6423153  66.2637138  57.6580715   8.7508851  67.1720219
   5.9603126  66.9263334  39.3144870   6.3762862  66.1094279  39.5899224
   5.4035575  67.1725340  40.0531626   2.4894514  52.7912124   8.1285034
   2.4583760  52.4528189   7.2336565   2.7979699  52.0525547   8.6533199
  79.7166579  35.6917460  19.3078457  80.1690381  36.2975563  18.7208400
  80.3927558  35.0704505  19.5782505  16.0379591  51.9941516   6.3287101
  16.1065331  51.5705390   7.1843277  15.4348126  52.7237959   6.4703451
  25.9067924  68.5254545  60.2777624  26.3680894  67.7841933  59.8853731
  25.1805694  68.6997314  59.6790457  81.7776680   3.5197571  64.2777014
  82.4592113   4.1900879  64.2289305  81.4846039   3.5419917  65.1886654
  43.4882927  25.3571677  53.4873772  43.2540512  24.4596863  53.2509661
  44.2526913  25.5555892  52.9464912  37.4055910  34.4836736  63.5492229
  36.8991590  35.0887513  64.0911055  36.7504787  33.9024973  63.1628370
  63.4328120  60.4381807  36.6451011  62.9354947  59.6347244  36.4922462
  63.1610172  60.7259496  37.5166259  69.3407195  46.7001535  19.4463955
  70.0952380  46.2351842  19.0848194  69.7154563  47.4735792  19.8678432
  11.2608812   1.1407772  41.2904644  10.3159902   1.1594082  41.1385870
  11.6436574   1.1029894  40.4139423  63.0827516  33.9039965  13.7016426
  62.7537101  33.4555175  14.4806419  64.0255158  33.9795138  13.8490329
  14.9391992  58.7060971  68.4838152  14.5787436  59.5505948  68.7542343
  14.1717870  58.1496687  68.3507776   6.3713351  48.2968547  28.5381256
   7.1121540  48.0232711  29.0790306   6.6712799  49.0980025  28.1086765
  84.1223717  10.4904401  54.4934082  83.4756088  10.3600419  55.1869011
  83.8266373   9.9242204  53.7805510  37.8849316  28.3691454  67.3799181
  37.7275395  27.4830294  67.7058887  38.1484294  28.2456207  66.4680290
  24.1163976  80.3380577  53.3929014  24.8724753  79.9303077  52.9706240
  23.7280852  80.8863555  52.7111292  38.3590341   1.7562111  58.3368444
  37.6045918   2.0934714  58.8198614  38.0084491   1.0292628  57.8221893
   3.7874499  47.3113395   2.0662008   4.1928521  47.8826435   1.4139019
   4.2978421  47.4573000   2.8627096   5.0800497  65.7713444  69.0587711
   4.6318681  65.3495820  69.7919035   5.0883419  66.7011387  69.2860270
  53.5657835  20.5648685  58.5412550  53.2109499  20.7151484  57.6650476
  53.0180073  19.8695135  58.9054728  40.3574133  11.8149376  59.2000675
  39.4179535  11.9137728  59.3545961  40.5322504  10.8895421  59.3712521
  14.8857409  76.5457763  54.5308971  14.3097836  77.0129896  55.1360559
  14.9325377  77.1112601  53.7600088  24.3558741  16.4394009  63.6994267
  25.2167654  16.8573582  63.6791849  24.4170856  15.7336152  63.0557299
  69.1886943  22.2271665  28.3390651  69.2626184  21.7050941  27.5401912
  69.6150630  23.0565985  28.1234584  63.5848236  62.7918243  64.7841883
  63.0116940  63.2097197  64.1414452  63.5668612  63.3798790  65.5392361
  57.7409322  77.0025266  42.9756689  58.0525643  76.6921915  42.1254921
  56.8778855  76.6007872  43.0756187  78.6322355  31.9960237  54.9053383
  79.1137743  32.1722841  54.0970802  77.7220964  32.2013593  54.6915293
  82.1386242  37.1419859  51.3726377  81.7699337  36.2626410  51.2886381
  83.0430794  37.0521641  51.0724354   4.4218858   6.3932336   4.3423877
   4.0453728   6.9743121   5.0033126   3.9067872   6.5622199   3.5534940
  82.6983915  16.9352496  35.9441696  81.8134843  17.2768939  36.0724483
  82.5718246  16.0034049  35.7656322  85.0247186  41.0522241  18.2983051
  85.9208482  40.7901164  18.0873905  84.8806899  40.7211273  19.1847931
  54.0317839  70.1545937  13.3109508  53.9210289  71.0067614  12.8893219
  53.1464594  69.8983462  13.5693489  23.4835759  40.2580751   3.1402908
  24.1891423  39.7922180   2.6915298  23.3319512  41.0366642   2.6045309
  19.7004261  42.7402391  27.7687202  19.6884480  43.6722554  27.9865108
  19.5717707  42.2966819  28.6071334  57.4072409   5.0464267  60.7046509
  57.9843330   5.7446897  61.0138845  57.9813004   4.2866486  60.6075668
  37.1378365  70.5120523   7.7336250  36.2865677  70.0754316   7.7030454
  36.9278279  71.4381679   7.8537737  14.1554442  59.0487833  21.5608440
  13.4037819  59.1618236  20.9790741  14.6849623  58.3719500  21.1392532
  76.2363863  38.8918376  56.1961317  75.8912325  39.4368744  56.9032621
  76.3507223  39.4956923  55.4622936  17.9627838  75.7340677   5.8717857
  17.1047345  75.5364283   6.2471758  18.5373631  75.0491460   6.2138019
  65.5032866  66.0341437  36.5063224  65.2451389  66.4978536  37.3029266
  64.6828716  65.6904610  36.1527191   8.5614402  73.9405997  61.8538046
   8.2297904  73.6017634  62.6853275   8.9553697  73.1805874  61.4255142
  38.8121670  62.0367058  25.3623806  39.5054143  61.8923982  24.7183166
  39.2114931  62.6053055  26.0207592  78.4071343  75.7091005   7.3968397
  78.4309714  74.9006327   6.8849407  78.3768647  75.4152830   8.3073269
  84.9395888  67.7496036   1.7150245  85.8151429  67.6092799   1.3545547
  84.4172853  68.0426319   0.9683262  78.0847400  77.9762967  59.5271621
  78.0292457  77.0256050  59.6237980  77.7516931  78.3211000  60.3556762
  61.8963528   2.2338344  65.4867744  61.3317156   1.7002174  64.9276066
  61.5629387   2.0884705  66.3721752  75.1068544   3.6670569  67.0314837
  74.9618912   4.6117562  66.9789505  74.2946529   3.3202711  67.4006701
  76.9727223  77.3431666   2.2803245  77.6013463  76.6404374   2.1152912
  77.2587960  78.0586751   1.7124878  38.2569965   7.7810634  13.5019241
  39.1457351   7.6818765  13.8433014  38.0202993   6.9067157  13.1925235
  13.2759759  18.4406281  57.5177240  13.4389589  17.6996970  56.9340372
  12.3692415  18.3263779  57.8023434  70.2945709  24.0803289  46.5509796
  70.7285881  23.2498670  46.7464018  70.7266092  24.3953633  45.7570457
  72.3769420  55.5038341  25.5896507  72.0958989  55.8902820  24.7602497
  71.5784162  55.1303835  25.9626518  73.7701409  51.6659244  16.8065010
  74.4054978  51.2748845  17.4062000  73.6027711  50.9834661  16.1565242
  74.3260329  50.8485188  30.7667575  74.4923060  50.6048961  29.8561321
  73.6197179  51.4926417  30.7172237  48.3509159  28.5161185  65.2288914
  48.8649797  28.4060121  64.4289875  48.5876226  29.3870616  65.5477381
  26.5875527  40.9982806   0.4433571  26.5450441  41.3039895  -0.4627146
  26.1843892  41.7014320   0.9525428  23.3810504   0.3551686   1.3195453
  23.7121185  -0.5252587   1.1421428  23.0015500   0.6403411   0.4883466
  80.0981038  68.4194429   7.6500164  80.6560843  68.0190618   8.3167873
  79.2529624  68.5367330   8.0838524  58.2177973  -0.1887291  54.2265654
  57.9780388   0.6990472  54.4922686  58.8456440  -0.0643883  53.5148191
  46.6138974  51.2663587  13.4417377  46.9165364  50.4991664  12.9558788
  47.0731297  51.2154444  14.2800460  53.4528940  69.3975933  10.2423702
  53.5805052  68.8633640  11.0263000  54.2788117  69.8698791  10.1373230
  84.2524338  47.2428894  69.8024654  85.1540375  46.9264412  69.8589945
  84.1773987  47.8804255  70.5124998  37.0674649  23.1046672  22.0155559
  36.5553704  23.7888296  21.5843902  37.8930416  23.5316749  22.2442947
  77.1683645  29.3705678  51.0362530  77.2014141  28.4149170  50.9930134
  76.2350321  29.5756960  51.0914087   1.4470003  15.2770495  47.0761871
   0.5268094  15.4967475  46.9305134   1.6491983  14.6314383  46.3990402
  60.4023457  26.1349463  62.4909163  59.5316696  26.5314460  62.4602890
  60.2959204  25.3663278  63.0513906   7.9648390  48.6258008  15.3586803
   8.7856760  48.4682079  14.8921810   8.1997481  48.5635163  16.2845169
   6.2534425  35.3729987  23.3659577   5.7453534  34.7271347  23.8568020
   5.9032533  35.3273273  22.4762893  68.2596445  48.7735033  46.2699795
  68.4234715  49.2273951  47.0966434  67.3059607  48.7127781  46.2149858
  45.4797363   8.6717224  44.3906212  46.2182713   9.2798549  44.4217300
  45.8543348   7.8569204  44.0559530  30.2924299   3.8171449  65.7552862
  29.8673224   4.6161526  65.4436731  31.2029219   4.0725100  65.9036875
   1.5514603  27.1410675   6.7473207   2.3390522  26.5984996   6.7078720
   1.3889113  27.3937352   5.8384929  25.1139712  16.0307968  59.9943304
  25.0512528  16.3246441  59.0855122  25.8532214  16.5210223  60.3540802
  53.5505438  45.4903269  69.2946959  54.0157080  44.6539736  69.2755556
  53.3863068  45.6941700  68.3739853  26.7640820  21.4687999   9.3215500
  27.3889294  21.5843828   8.6057077  26.2379685  20.7129438   9.0605388
  48.0932903  22.5079393  61.0670042  47.8368282  23.2947421  61.5480423
  48.0054235  22.7513409  60.1454496   5.3329190   9.2272437  28.0290733
   5.3871187   8.3429110  28.3913551   5.4000553   9.8027432  28.7909923
  69.6910851  32.4666186  22.8199134  69.2503493  33.0151762  23.4688125
  70.3147834  31.9482871  23.3284126  73.1197303  30.2177866  44.0881191
  72.5076716  30.9032841  44.3559108  72.7136605  29.4040842  44.3868290
   2.6207676  74.4818004  53.0862556   2.5416508  73.6283238  53.5123382
   3.4019699  74.8731502  53.4771476  26.4826686  81.0689572  68.7148285
  26.3063151  80.4230207  68.0308008  26.0815389  81.8757049  68.3915901
  54.7449493  14.2157376  57.2546959  54.1419649  14.2488229  57.9973555
  55.2230501  13.3946502  57.3707533   5.9746018  71.7802246  50.0786625
   5.8605852  70.9093030  50.4591022   5.4850426  71.7485221  49.2567478
  85.8703702  77.8246816  18.9286934  86.5713685  77.5367291  19.5134292
  85.4068130  77.0201500  18.6961494   5.7692089  75.2460225  19.6458088
   5.6740799  75.4567035  18.7169395   5.2231636  74.4701369  19.7725616
  78.3961766  39.0712339  25.2685581  78.3137458  38.4420379  25.9851776
  78.8584226  38.5918990  24.5809494   0.3241291  58.7809940  26.2444149
  -0.1226244  57.9346891  26.2647186   1.0684862  58.6448856  25.6582008
  13.5013421  21.3639844  18.7262951  12.8354963  21.2546409  19.4052063
  14.3292364  21.1832822  19.1714512   8.8741532  81.1772140  36.6337524
   8.8304558  82.1086295  36.4174495   9.2165842  81.1546500  37.5273166
  64.1174143  50.6683995  61.9827400  63.8462704  50.2556832  62.8027282
  65.0700348  50.5755599  61.9714199  67.2110844  32.5343037  50.3887796
  66.9147253  31.9163823  51.0570431  67.3945665  33.3399343  50.8720207
  36.0381269  14.1343117  70.9404945  36.1740112  13.2218552  71.1958170
  36.2809038  14.1627610  70.0150347   8.8438835  76.4714344  36.6984783
   8.1945887  76.1670907  37.3325382   8.7132683  75.9105332  35.9339176
  51.2465572  28.6977148  60.3894615  52.1281290  29.0701151  60.3701019
  50.7695627  29.2437434  61.0144138  17.2875118  58.9222097  67.3123407
  17.7383304  59.3455648  68.0429316  16.3948441  58.7844467  67.6291943
  71.2236500  32.1598196  64.0419579  71.7402411  32.6238990  64.7007418
  70.7602835  32.8516960  63.5699129  57.7533882  80.3583653  12.4492679
  57.6583021  79.4125803  12.3366485  57.4935000  80.5188783  13.3564220
  20.0964012  33.6161317  24.4691406  19.9973765  34.3263181  25.1032196
  19.3094197  33.6678656  23.9267288   6.3518522  38.8382220  32.4409795
   6.9967553  38.4878826  33.0554676   5.7612703  38.1047106  32.2695065
  53.7279766  44.2224695   6.9905553  53.2877987  43.6465658   6.3654075
  53.6426991  45.0972523   6.6114555  66.1726856  26.1248493  62.5587940
  65.6419134  25.5108976  62.0512772  66.6659832  26.6153264  61.9012833
  80.9125798  62.1424158  30.1102672  81.6979211  61.7698319  29.7094474
  80.8459085  63.0205901  29.7353016  78.8976424  40.2219094   8.7643037
  79.3774598  40.6055491   8.0302559  78.4658330  39.4528340   8.3924232
  78.2750877   9.7676194  31.9527469  78.8786682   9.3881715  32.5914512
  78.8178428   9.9402631  31.1834465  36.4990449   0.1397171  67.0413160
  37.0523190   0.5666829  67.6953983  35.9128952  -0.4192103  67.5514698
  24.4757119  59.1972454   9.8212944  25.2831498  59.1552253   9.3089424
  24.7329560  59.6226080  10.6392894  28.1538811  79.6519192  10.5904136
  27.6022854  78.9421399  10.9193264  28.3667508  79.3938835   9.6935688
   5.1397696  33.9030101   4.5983205   5.5494061  34.5355000   5.1885639
   5.6635800  33.9477737   3.7984119  68.9793164  70.7325835  34.3382788
  68.5501058  71.5533025  34.5800161  68.4433324  70.3825517  33.6266398
  58.6656826  49.3262907  16.3543163  58.6439412  49.4946982  17.2963367
  59.5216363  48.9256986  16.2023197  68.0476683  47.9827614  26.3345371
  67.6160877  47.5947710  27.0957409  68.0108374  47.3001380  25.6645332
  87.0223420  70.9801753  43.6418758  87.4975770  70.4926045  42.9690776
  86.2510674  70.4441245  43.8263069  74.5759773  36.8161488  61.5154743
  75.4621744  36.9150734  61.1674833  74.0087318  37.1695113  60.8302021
  51.2799015  53.7730415   0.1323591  52.1685162  54.1013129   0.2695928
  51.3146916  52.8605242   0.4192958  70.5795901  26.9774814   4.6847854
  71.5012401  27.2265883   4.6159683  70.5579083  26.3327117   5.3919159
   3.5007372  69.9555142  46.1121116   2.8905764  70.6637676  45.9064041
   3.1579628  69.1985281  45.6370292  17.2021618  41.4312076  22.8184734
  17.9200545  41.0535566  22.3102985  16.7943945  42.0618150  22.2249256
  73.6950152  77.2442801   8.1976543  73.3963006  78.0901273   8.5316406
  74.6306842  77.3669703   8.0373417  76.1766904  72.4556072  24.0189491
  75.5491488  72.9181965  24.5743213  76.1240333  71.5439733  24.3059765
  79.8461103  43.1586981  69.4788170  80.5370522  43.6319637  69.9423409
  79.0558529  43.6760569  69.6339703  36.5216192   7.8282845   5.3412948
  37.2323593   7.2948420   4.9855981  35.7419761   7.2806180   5.2493129
  38.3870894  81.4533516  56.6787767  37.5292832  81.0287060  56.6875792
  38.6700065  81.4406894  57.5931263   2.2647753  63.4618218  29.3723999
   1.6699067  63.8713582  30.0006042   2.2013750  62.5249632  29.5581756
  53.1940222  16.2880278  53.5244417  53.7977505  16.8281353  53.0145121
  52.3954487  16.8124044  53.5839796  26.9487896  35.6351359   5.1531301
  26.1965504  35.4099108   4.6057258  27.0831433  34.8642899   5.7044683
   8.5711422  49.6331920  35.5504261   8.0192271  50.3832753  35.3290783
   9.4158783  50.0180306  35.7839809  78.6225217  40.0254657  37.2406612
  79.2101663  39.6925281  36.5623890  78.6530822  39.3625964  37.9305206
  21.9020065  16.6124881  12.6614032  21.8384679  17.4218190  13.1685386
  21.1839422  16.0692799  12.9862819  11.6845901  75.9820486  63.1662560
  11.5691525  75.2194239  63.7331009  12.2016770  75.6566913  62.4293756
  47.3403794  79.6315112  66.2623978  48.2035882  79.8515026  66.6126966
  46.7343480  80.1874380  66.7521954  60.0897496  81.7266019  34.3557010
  60.6331103  81.7515262  35.1433311  60.0274199  80.7967957  34.1370426
  79.6391480  50.7744296   5.3105627  80.1312392  50.4844137   6.0786567
  78.9760917  51.3689990   5.6613765  18.1949320  41.5103986  10.6584583
  18.7386361  42.2935377  10.7439552  18.8200131  40.7857237  10.6397377
  84.9786887  81.5253641  66.0872602  85.8595690  81.5236861  65.7127237
  85.0938592  81.1781614  66.9718027   3.8658371  59.0230782  14.1816650
   4.0930262  58.1259926  14.4263111   4.6794310  59.3904908  13.8362632
  45.2553225   6.7525560  23.9165235  45.0895166   7.2694683  23.1281447
  44.4072390   6.7109394  24.3583989  10.4148283  69.1599114  23.7856422
  10.7638111  70.0099929  24.0536056  10.1838532  69.2755731  22.8639541
  28.5602554  12.7389443  34.0990482  28.8755878  13.2143605  33.3304248
  29.3363269  12.2953237  34.4413219   6.8207589  55.3704210   5.0657974
   6.6004124  54.4605525   4.8662506   7.4620476  55.3117712   5.7739959
  85.5159324  20.7501729  18.6561714  85.4152148  19.8149975  18.8337551
  84.9768346  20.9061463  17.8807579  43.6081870   2.0213664  23.7333046
  43.8087734   2.7868140  24.2718921  43.9948924   1.2860358  24.2086731
  55.0003093  81.7404063  19.3466602  55.8928912  81.7138131  19.0019546
  55.0864809  82.1603806  20.2024780  35.5303693  36.8693972  64.2632866
  35.4255199  37.6993346  63.7980556  35.0540733  36.9932079  65.0842905
  34.2339802  34.9432945  62.8389215  34.6355915  35.6959605  63.2730103
  34.7636223  34.8094010  62.0529270  81.5677922  30.2046462  31.3915001
  82.3827451  29.7484405  31.1818443  81.0271352  30.1012583  30.6084095
  77.2415250  36.4353521  19.7388969  76.7831033  35.7027747  20.1504932
  78.1296819  36.1100127  19.5920406  64.5448256  10.8843124  66.7190170
  65.0988817  10.6204152  65.9844303  63.9516687  10.1444721  66.8495131
  22.9157486  73.3622010   5.4741274  22.5677052  72.7655752   6.1367975
  23.6067143  72.8615745   5.0403391  71.1508369  32.5836968  46.8782949
  70.8371019  33.3634305  47.3363495  70.7241631  31.8540764  47.3275566
  11.3216677  52.0102056   0.8036314  10.8100071  52.4951072   0.1560960
  12.1620598  51.8505903   0.3741060  53.4154981  59.9011918  11.0731159
  53.0856269  59.0026350  11.0765586  53.9805882  59.9459310  10.3018127
  82.1637433  54.9615760  12.5187145  81.8938153  55.2206047  13.3997760
  82.6554196  55.7133670  12.1881137  17.4787178  43.5788159  20.4673706
  18.4047642  43.7620582  20.3089748  17.2210589  43.0056568  19.7453342
  82.4769974   9.1874802  56.1997795  82.6173592   8.2569081  56.3746119
  81.5405655   9.3202722  56.3470554  19.9664917  37.7494653  19.0839992
  20.1688757  36.8373995  19.2923484  19.1444674  37.7068223  18.5954414
  72.7898210  74.0847547  28.1043563  72.1841424  73.9090832  28.8244472
  72.8747933  75.0380667  28.0900131  20.9198752  44.3244602   1.2022958
  20.2592507  44.0241589   0.5780969  20.5259791  45.0918396   1.6172777
  70.1405709  37.6386924   7.9541050  69.3326610  38.0969025   8.1855188
  70.4644292  38.1000777   7.1804939  61.2861904   1.5404666   9.7334514
  61.7757591   0.9773648  10.3330074  60.4118904   1.1522162   9.7003303
  28.3745423  71.1824210  13.0372844  28.2890549  70.4302628  12.4514709
  27.9808369  70.8913668  13.8597999  68.4706347  54.8429139  19.7340904
  69.1766255  55.1265486  20.3149257  67.8580397  55.5783542  19.7248493
  25.0811997  70.3685625  46.7567573  25.1666966  71.3128932  46.6257702
  25.8749237  70.0001176  46.3688312  72.2640562  18.9486611  69.3868065
  72.6909685  18.2042348  69.8108482  72.0091200  19.5221233  70.1095676
  16.6973126  30.9717417  69.9675894  16.4044023  30.0869346  70.1856518
  17.2671080  30.8548665  69.2073870  76.5470927  62.5417836  11.7851005
  76.9312041  61.6706737  11.6858230  75.6861346  62.4723418  11.3725982
  79.4314521  52.7515181  24.3334900  79.9589866  52.1593841  24.8695026
  80.0033753  52.9868837  23.6029087  68.8828438  69.3813546  14.3611942
  69.3818181  69.0153201  13.6309372  67.9727762  69.1591008  14.1646991
   4.9454060  63.3789952   6.6315065   5.6771746  62.7649410   6.6921459
   4.3987313  63.0312903   5.9268890  12.7793319  44.9236865  68.5941648
  13.3100564  45.7071991  68.7379408  11.8793208  45.2474899  68.5572481
  23.6153634   7.0790494   3.4810577  23.2963165   6.7442811   4.3191324
  23.3338912   6.4265931   2.8397260  15.2039083   4.6540940  12.2102962
  14.2687543   4.5764935  12.0213543  15.5087121   3.7499202  12.2864185
  83.2005416   0.7472814  43.9518867  82.6716076  -0.0467908  44.0287624
  84.0255056   0.5284369  44.3852172   7.5964830  27.3000646  46.9545603
   6.8229959  27.0943928  47.4795914   8.2842920  27.4706745  47.5980186
   9.4599715  74.9745233   3.0715261  10.1555148  74.3433650   3.2561527
   9.5620480  75.1783069   2.1418605  84.1300099  52.7285488   0.9756504
  83.7327998  51.8765564   1.1561094  84.8939603  52.5270172   0.4352794
   5.3759566  68.4135302   8.0822645   4.8442498  67.6192530   8.0308996
   5.7570448  68.5035451   7.2088228  55.5047973   2.4022639   9.9253688
  55.1434406   3.2803977   9.8047863  56.3404640   2.5460494  10.3694664
  61.1611557  38.4586692  64.4202042  61.5326786  39.3408060  64.4141006
  60.9900141  38.2644773  63.4986687  13.0447283  76.9933231   7.4152694
  12.3786488  77.3474415   6.8260608  13.4896317  77.7651794   7.7653156
  75.8708184  79.2478545  47.8761135  76.2075227  79.4956763  48.7371860
  74.9463504  79.0514787  48.0278717  69.9248552  45.3512192  57.2312880
  69.6646070  46.1790562  56.8273258  69.4712067  44.6817636  56.7191696
  19.5268956  78.6968358  30.8015667  19.8488655  78.3534797  31.6350399
  19.2396155  79.5871313  31.0042415  48.9765453  67.2654533  66.8121243
  48.1176519  67.6587820  66.6577816  48.7934923  66.4923954  67.3460817
  81.9629765   5.1923555  42.0861292  81.9164658   4.9180633  43.0020046
  81.0641289   5.4337966  41.8624735  81.1063385  46.3734770  64.9616575
  81.4748764  46.0982275  65.8010960  80.3788185  45.7701683  64.8101187
  53.7070465  35.4033422  67.3655033  52.9941130  34.8498726  67.0467043
  53.3332777  35.8676100  68.1144905  62.5592011  73.5622437  27.3712955
  62.9455941  74.1498502  28.0206428  62.8435891  73.9162524  26.5286575
   9.9051378  26.7903447  58.1317616  10.1258848  27.6850653  58.3905602
   8.9618871  26.8134451  57.9705906  76.9434255  41.0415874  18.3187233
  77.6036065  40.4688416  18.7090526  77.4430459  41.6371305  17.7602039
   3.0937662  76.1763890  56.5586982   3.2747021  77.1160968  56.5797268
   3.1221047  75.9064205  57.4766002  73.9949983  65.6623061  25.4048858
  73.8092893  65.6914933  26.3434444  74.5855515  64.9162395  25.3006683
  51.3519612  64.8113449  11.7793022  51.5562668  63.8768061  11.7456947
  50.9731331  65.0046857  10.9217773  81.3650227  23.7368274  53.1568384
  81.3575649  23.1845522  52.3750639  81.2108421  23.1295967  53.8805342
  21.5889826  44.0026467  25.9853969  21.0437146  44.6495344  26.4331184
  21.1917248  43.1603240  26.2065540  58.1039429  44.5826387  65.2978659
  59.0520048  44.4644022  65.3564548  57.7744579  43.7336493  65.0031042
  66.9247437  72.9566765  67.4609423  66.9233799  72.5865889  68.3437014
  66.0197926  73.2326317  67.3155260  57.3039532  41.7358637  55.4176044
  57.3669910  40.8083916  55.1894569  56.3651752  41.8952227  55.5152750
  11.8425074  67.1815689   5.3681789  10.8914748  67.2706683   5.4300962
  11.9887009  66.7560490   4.5233141  86.1732667  69.1560681  20.3402458
  86.6964238  68.5037311  19.8744236  86.8122428  69.7961719  20.6536327
  83.9766782  39.4364853   0.2732072  84.2638534  39.9226840  -0.4996933
  83.0207675  39.4595142   0.2291380   4.2557135  68.8766296  12.7206932
   4.9523678  68.6417230  12.1077285   4.6943894  69.3967231  13.3939682
  56.4164591  38.7100077  61.3789845  55.8311462  38.5586286  60.6368732
  55.8798265  39.1836238  62.0145512  78.5089397  60.7566118  68.1133509
  78.9556980  59.9157095  68.0157757  79.1882706  61.4096689  67.9452419
  41.8157356  79.1004785  16.9501339  42.3929971  78.7423284  16.2758003
  40.9329467  78.8876636  16.6474376  85.7137203  51.5299845  66.7282534
  85.7998180  50.8184671  67.3627329  84.9626541  51.2809944  66.1896086
   0.5757864  33.2934726   9.7022377   0.1581701  34.1112912   9.9724231
   0.3529008  33.2054913   8.7755142  54.9715503   9.2471326  47.3751865
  54.4605811  10.0088799  47.6488433  55.0418170   8.7098325  48.1642376
   0.2159014  49.8898824  26.0750423   0.9917536  50.3727503  26.3598667
  -0.5151806  50.4779472  26.2646042  12.4001726  18.9473498  14.9081646
  11.7893585  18.2144654  14.8305832  12.8208478  19.0004027  14.0500007
  59.3136454  24.2175221  57.6526880  58.9105463  23.3840847  57.4095297
  59.7952175  24.0249658  58.4571981  73.2520962  44.6721363  46.1889362
  73.2147408  43.8568020  45.6888723  73.7633371  45.2666330  45.6399012
  68.9460707  38.1817102  58.6970043  68.4829235  37.7089381  59.3885326
  69.8239470  38.3242750  59.0508986  76.2497991  43.3482762  12.9246841
  76.0068839  43.3910446  13.8495575  75.6012004  42.7630153  12.5335060
  55.6711674  53.3150721  60.3688812  56.1243248  53.2123947  59.5320225
  55.7373095  52.4551868  60.7841587  80.5312061  43.3751965  57.4886179
  79.7966146  43.3212662  56.8773079  81.2415409  42.9055214  57.0515013
  11.2775317  74.7572668  21.5303455  11.5761128  75.6324275  21.7776809
  10.6276884  74.5291408  22.1950946  10.0039670  26.8650508  49.4739199
   9.4961545  27.6648092  49.6108341   9.3999574  26.1567163  49.6967793
  26.1318436  57.2559102  23.9289604  25.2719345  57.6457532  24.0865169
  26.1606636  57.1137972  22.9828010  50.6913328  46.6413021  46.9429111
  50.5227327  47.5689268  47.1081972  51.6301727  46.5970945  46.7616415
   5.0045863  61.3435848   9.3753181   5.8889094  61.3187964   9.0098320
   4.8382321  62.2722323   9.5370994  24.4612487  -0.0679433  23.2941280
  24.8479875  -0.2370107  24.1532360  25.1582130   0.3614200  22.7980171
  61.1659336  57.3736334  68.5836411  61.4282084  56.5324545  68.2096577
  60.5707216  57.1434212  69.2970514   1.8294897  64.2845614  44.1623912
   1.2730303  63.5090335  44.0907131   1.2294283  65.0213798  44.0472446
  79.8371887  70.4372454  35.4977465  80.3770828  70.2284431  36.2600780
  79.2721176  69.6725082  35.3877425  81.1940043  66.7494185  18.0242477
  80.4623311  66.2141426  18.3314453  80.8879989  67.1212466  17.1970020
   9.6483412  54.6910210   1.1736045   8.8972035  55.1325937   1.5698896
  10.3888836  54.9320801   1.7301307  53.2032379   1.0782826  19.2801128
  52.8397830   1.6144574  19.9848495  52.7262576   0.2504600  19.3386303
  46.4078474  31.6669941  60.4782248  45.4596758  31.7839122  60.4188013
  46.5191555  30.7725716  60.8004808  33.4552272  21.9876159  11.9595371
  33.2104476  21.3878978  11.2548004  32.6440128  22.4477494  12.1750484
  33.5290661  43.8488315  38.1903396  33.8878479  43.7843166  39.0754066
  34.0597859  44.5225562  37.7652870  43.5699876  17.3947442   5.5799137
  43.0405124  16.8796456   6.1886488  44.4698175  17.1164430   5.7504736
  68.7711859  36.9922185  31.3419580  69.2738152  36.9364023  30.5292606
  69.3955326  37.3235369  31.9874430  29.8542157  60.9599622  31.5796695
  30.2594605  60.1009233  31.4610706  28.9170494  60.7759293  31.6435371
  77.7071422  64.7743996  30.8022056  77.9244273  64.0513428  30.2138076
  76.9234984  65.1681097  30.4186378  63.7928565  13.7147296  14.2893348
  64.3458923  13.7741340  15.0683437  63.6877235  14.6212495  14.0005432
  29.4297536  15.3976834  62.5043235  28.8671096  14.6453393  62.3209034
  29.5154365  15.8437455  61.6617618  82.9243272  79.3376739   9.6392856
  83.6999314  79.0196784   9.1771732  83.1859725  80.1897390   9.9882160
  69.0454292  41.4844990  66.8559599  68.5847855  41.6342402  66.0303593
  69.0097857  40.5362415  66.9815493   6.6809938  14.8056126  51.9800472
   6.3781736  15.6871510  51.7622852   6.7284963  14.3537438  51.1375570
  49.6132882  15.9185374  29.1463791  48.8618835  16.4843047  29.3239341
  49.4922622  15.1694549  29.7298656  82.6928084  57.4730583  46.0058246
  83.3611386  57.6285048  45.3384338  83.1635850  57.0454295  46.7211757
  84.3480819  34.8799886  19.4348369  84.7329371  34.0182878  19.5947967
  83.5660213  34.6999063  18.9131199  54.6697855  50.2785873  69.8174572
  55.0380993  50.9147644  70.4305267  53.9767456  49.8420763  70.3128195
   7.3006423  15.4958690  15.0048385   7.6886137  16.0090220  15.7136284
   6.9833096  14.6998752  15.4313694   9.6847859  66.8495925  36.9833599
  10.2245274  67.5023087  36.5374122  10.2078429  66.5821631  37.7390895
  62.8818553  62.0275147   2.5977646  63.2739966  62.8243072   2.2405849
  62.5752776  61.5461810   1.8292843  13.4828088  37.9013538  64.3285990
  13.1780240  36.9961381  64.3912554  13.2305047  38.1786060  63.4478569
  41.8162855  33.3735812  25.6120716  41.7989953  32.7567780  26.3438450
  41.4968284  32.8677571  24.8648677  19.2947522  69.8774131  12.7865539
  20.0250473  70.4235299  12.4955974  19.5411864  69.5977838  13.6682068
  46.1073446  74.7820473  68.8387442  45.3277445  74.3109512  68.5446024
  45.7683039  75.4791594  69.4002771  81.4840221  38.5430431  40.9602308
  80.9846020  37.8346705  41.3664579  81.1176300  39.3421602  41.3389158
  78.1042045  60.1311524  26.6537605  77.7939313  59.2405029  26.8171821
  79.0280860  60.0251027  26.4269767   1.1622658  66.9319518  11.2124191
   1.4276209  67.3484500  10.3924499   1.9658413  66.5379746  11.5519462
  46.1370738  31.7305053   7.1678243  45.3106101  31.4581740   7.5666128
  46.7921670  31.1486638   7.5532327  28.3495744   3.6983359  13.8673816
  27.9388698   4.5255816  13.6159454  28.6179002   3.8307679  14.7766052
  40.9256252  32.3801721   7.1649633  40.7097801  31.4641726   7.3398481
  41.7162069  32.5424302   7.6796327  53.2032728  27.3447061  58.3286715
  52.9853964  27.7031422  59.1890717  53.0170536  28.0578589  57.7179623
  84.5677948  56.5086746  62.6071358  83.7244606  56.7149448  62.2040606
  85.1922894  57.0820665  62.1627617  77.1126264  74.2535170   5.3392778
  77.4828904  73.5730393   4.7770630  76.2227242  74.3785723   5.0096212
  51.2844419  18.2256639  53.8253403  51.1474705  19.1705072  53.7564754
  50.7175589  17.9534316  54.5469761  52.2994900  79.7268677  67.2347164
  52.8383446  79.6784115  68.0243492  51.4110518  79.8729706  67.5596285
  86.2345123   8.7256199  62.2450686  86.7797756   8.1943256  61.6648579
  85.9601307   9.4661856  61.7042255  83.6513560  76.9293983   6.9686971
  84.2221778  76.7693003   6.2171875  83.2442039  76.0812767   7.1451841
  71.9959307  52.9485226  47.9302883  71.6855907  53.7213898  47.4584913
  71.2070417  52.4283838  48.0830717  74.1300910  77.0659383   2.3902403
  75.0513261  76.9649895   2.1507249  73.7652486  77.6284488   1.7070852
   7.6720038  74.5852383  12.4709354   8.4602871  74.9127324  12.0378242
   7.0218315  74.5245703  11.7710624  17.4489870  67.2447379  20.0251613
  16.5618458  67.3322065  20.3738151  17.8628197  68.0880459  20.2090297
  32.1390565  20.4403937  35.2008281  32.2168668  20.1850808  34.2815910
  32.9373248  20.1068938  35.6104313  19.1383410  43.6826181  68.5034990
  18.8307357  44.1136551  67.7061176  20.0458956  43.4455585  68.3127642
  83.3849662  68.4434779  45.7722030  83.0882257  68.2275207  44.8881565
  82.8607266  69.2045362  46.0215889  48.4821549  79.1425951  22.6738487
  47.6305714  78.7072237  22.7125011  49.0843335  78.4641941  22.3682533
  85.5202579  41.3840485  60.8008480  85.1673031  42.1708059  60.3853130
  85.2014160  41.4257908  61.7024231  69.0171807  53.5856278   9.3023239
  68.6685246  54.4385059   9.0429626  69.9519198  53.7403675   9.4385467
  28.6678693  56.6045713  69.5171452  28.1301877  56.8559837  68.7661982
  29.5517442  56.5170479  69.1602850  56.1651841  75.7096703   9.5642887
  55.6700650  74.8913153   9.5271526  57.0800057  75.4400213   9.4828926
  63.8762372  54.9837966  29.9947487  64.0865009  55.1211389  29.0710865
  63.6724251  54.0506764  30.0578151  11.9028337  66.9259543  61.0180330
  11.4156014  67.6331742  61.4407301  11.2272651  66.3330503  60.6889391
  30.4344597  81.1432393  12.2285591  29.7220459  81.7780097  12.3044525
  30.1128140  80.4961403  11.6008316  50.2919277   8.8157905  12.4132763
  50.9641298   9.4932330  12.3394619  49.4993051   9.2910207  12.6625476
  35.9431060   2.6709855  21.5719162  36.4184173   2.1011985  20.9672294
  36.4728530   2.6691783  22.3691593   4.2627755  44.7425498   5.1940952
   4.7595110  44.7789844   6.0115038   3.5565129  45.3773128   5.3145204
   2.2209826  44.6208133  28.9399658   2.9602423  45.0494428  28.5086856
   2.1471634  43.7727882  28.5022007   5.4897497  54.3067122  70.0506735
   4.7963426  53.6808157  69.8416853   6.2197778  54.0527630  69.4860601
  27.3381265  10.5735076  12.9792724  26.6132148  11.1941970  13.0532776
  26.9875892   9.8579896  12.4488102  46.1988678  74.0644987  20.1706634
  45.9561482  74.9815686  20.0429664  46.5594616  73.7924345  19.3267570
   2.7327154  38.1609583  50.1246309   2.4639604  37.6107073  50.8603144
   3.5837076  37.8103828  49.8616648  37.0657810   9.8223174  14.8407398
  37.3611863   9.1113913  14.2719207  37.1268113   9.4622338  15.7255207
  59.0159686   4.3731130   4.2340646  59.1901859   5.2236140   4.6372114
  59.2106613   3.7373031   4.9225937  47.0348724   5.4907954   1.8732725
  47.2089752   5.0251544   1.0552869  46.0833486   5.4553950   1.9711719
  45.8520651  37.4199009  70.6231976  45.8807659  37.7849984  69.7388268
  45.5746412  36.5122795  70.4987335  87.3214245  47.6325560  63.1879091
  86.8082905  47.6844120  62.3815393  86.7254829  47.9394722  63.8711929
  69.5587540  72.0592165  69.1917992  70.1040602  71.3395500  68.8740635
  69.4269991  72.6165724  68.4248400  12.3779962  36.5076828  42.2191334
  12.6487729  37.3142171  41.7804861  11.8051050  36.8010879  42.9276085
   0.8720389  80.1134403  19.4251381   0.6130972  80.1523097  18.5044513
   1.6910591  79.6180208  19.4228874  24.0550652  50.2102085  32.3818241
  23.5846463  50.3826346  33.1974350  24.2976418  51.0774298  32.0573078
  85.4560852  44.2983389  49.5597649  85.3407001  43.7943459  48.7542152
  85.7464218  43.6543512  50.2056885  74.9971581  17.9981446  38.6075544
  74.4618940  18.3764994  37.9100037  75.1102018  18.7110841  39.2361784
  67.3178864  35.2871513  50.8348370  67.1368313  35.6517982  49.9685335
  67.6349878  36.0313964  51.3464785  60.9433842  10.1147604  57.3601532
  60.7763767  10.8942127  56.8302536  60.5508614   9.3978429  56.8619728
  16.1444696   3.5162318   8.9376197  16.3414367   3.6773932   8.0148731
  16.8753513   2.9821933   9.2488132  73.7502807  46.4519484  18.2364879
  74.1382306  46.7263241  19.0674148  74.4891971  46.4098789  17.6294742
  59.9390650  15.7095504  49.8232937  59.1867399  15.1319814  49.9523449
  59.8119259  16.0766208  48.9484596  39.1366315  27.9351449  61.3979340
  40.0142193  27.7396226  61.0695362  38.6018610  28.0310607  60.6098652
  15.0421467  71.5859302  28.3486782  15.1727047  71.7929633  29.2740570
  14.8234120  70.6540950  28.3402668  73.3975267  17.8030920  51.9767523
  73.5550117  17.8537333  52.9195499  74.0586185  17.1896005  51.6561031
  36.6495450  12.3280013  36.3315998  36.7693361  12.4782765  35.3938900
  36.9890006  11.4450610  36.4779506  35.2451172  27.9191740  25.8377586
  35.8040657  28.6001857  25.4635559  34.7734299  28.3584972  26.5453849
  42.9877701  78.1872232  10.9652076  42.5838318  77.3619492  10.6969009
  43.8115921  77.9276784  11.3777290  49.7563362  54.8114014  64.3495083
  49.8478794  53.8602400  64.4055748  48.9799404  55.0085974  64.8734856
  56.5278380  77.5337227   5.2561889  56.8917840  76.8050940   4.7533212
  57.1522801  78.2479747   5.1291166  83.1439002   8.0864156   7.4864517
  83.5642990   8.1605637   6.6297184  83.8712295   8.0213416   8.1053196
  65.7096022  54.8831733   3.9202772  66.3248604  54.4740994   3.3117185
  65.9334724  54.5112176   4.7733675  16.0887089  73.5107739   0.6635271
  15.6182900  72.6847537   0.7759033  16.5588894  73.6327632   1.4883171
  82.3347276  77.6488717  32.9075370  81.7910378  77.7633102  33.6869846
  83.0164807  77.0343359  33.1791816  41.4581251  75.3127480  69.7508478
  41.5573645  74.3611860  69.7810078  40.6724072  75.4881477  70.2686453
  44.0789922  25.3221715   6.3972126  43.2766040  25.0033296   5.9839950
  44.1361459  24.8333657   7.2182069  29.8474058  45.3438056  35.8042751
  29.7808488  44.4560874  35.4524837  30.1119169  45.2209437  36.7159591
  80.6619549  56.9752884  43.4797668  80.6276798  56.0816002  43.8209009
  81.5608120  57.2602081  43.6444521   7.4679652  80.3056081  18.3828197
   6.5513077  80.5295976  18.5434566   7.4721566  79.3511589  18.3104263
  46.9550426  68.1141503  55.1553679  47.1317536  69.0073223  54.8599863
  46.1279208  67.8815801  54.7334528  56.2380903  72.4008449  45.2797351
  56.9516223  72.8854950  44.8647438  56.2680500  72.6698573  46.1978660
  37.3902019  28.9472306   3.4043918  37.7233966  28.0862248   3.1516538
  37.5007089  29.4861901   2.6211010  47.3458179   4.5636380   8.9416824
  46.6610654   4.1095126   8.4506450  47.6807721   5.2218450   8.3327518
  48.4201717  76.9792604  68.9618540  47.5485706  76.8648767  68.5830927
  48.9341021  77.3830795  68.2625389  41.4311441  26.0256827  22.6233802
  41.5787538  26.8422568  22.1462474  41.6755470  25.3385222  22.0034538
  53.4854015   6.0701287   3.4120355  53.1614860   5.6715787   4.2197929
  54.3237861   6.4614213   3.6574731  29.7103532  27.4996913   5.6766401
  30.1207479  26.8923152   6.2921987  30.2666887  28.2782185   5.7014690
  79.7787046  68.7612152  56.2537336  80.1822281  69.5686245  55.9351492
  79.7735929  68.1798029  55.4933643  29.7724088  19.1653502  27.3198257
  29.0769704  18.7706340  27.8459392  29.7279867  20.0990594  27.5258575
  30.0386175  13.4373248  17.3007904  30.8011468  14.0157950  17.2885070
  30.3820403  12.5827659  17.0399700  53.9944592  76.0824449  14.8204075
  54.9056759  76.2764056  14.6006427  53.5031166  76.8346174  14.4901786
  70.1841529   1.8280566  39.7423969  69.9145206   2.6668036  40.1166092
  71.0691341   1.9859231  39.4135795  25.7215443  48.5122152  16.4611183
  26.2408390  49.3160547  16.4812790  25.9693089  48.0469127  17.2600780
  77.3008823  31.7966437  60.9598827  78.1762695  31.6836810  61.3302469
  77.0548820  32.6912689  61.1951685  10.3098758  52.9576838   5.8242832
  10.5472668  52.8431762   4.9040828  11.0370429  53.4545768   6.1991869
  66.4423164  15.8680022  19.6206222  66.7654689  16.7600310  19.7474609
  66.3246520  15.5275214  20.5074440  78.4436369  77.0839930  53.1364346
  79.2141771  77.6159954  53.3351088  78.5695601  76.8099213  52.2279978
  10.7788465  47.4080515  32.2875071  11.3608167  46.8534660  32.8071094
  11.3504312  48.0891418  31.9330454   0.7275865  50.7280159  60.3037024
   0.5757139  49.8368931  60.6184483   0.3760621  51.2892962  60.9948063
  60.7837525  59.7507258  31.8358646  61.6017285  59.4262667  32.2125183
  60.1018849  59.4112475  32.4155555  21.1620315  17.5393641   2.4747882
  21.7491706  17.0849574   3.0789600  20.3264793  17.0806516   2.5623212
  60.7498312  60.5868101  64.2361689  60.3247833  61.4433479  64.1924858
  60.8159304  60.3997087  65.1725721   2.0792005  65.5975723  41.3288879
   1.9103334  65.2580500  42.2077703   1.5280721  66.3774490  41.2634182
  28.7495550  43.6268390  21.8948589  28.1980737  44.3656028  21.6373191
  29.2011293  43.9284003  22.6831279  66.8450626   3.0607474   0.6755815
  66.1840042   2.6189387   1.2085281  67.1909889   3.7483943   1.2445388
  42.4890169   8.1533540  16.9222580  42.0164379   7.3841966  16.6039882
  42.7929910   7.9035819  17.7948700   5.7992360  77.5995398  59.9210691
   6.2280652  77.9646587  59.1471052   6.2962625  76.8055868  60.1181269
  61.4660185  63.7457092  17.8821979  60.6115931  63.6804469  18.3087288
  61.3208240  64.3380936  17.1444831  86.2637615  57.1561193  70.8860922
  87.0831203  57.2395706  71.3738680  85.8958054  58.0397654  70.8829880
   7.1994772  80.8873947   3.4897648   7.1451798  81.7259438   3.9481483
   7.6366368  80.3034838   4.1095768  44.7067388  10.8902228  37.9020630
  44.8607524  11.5143836  38.6112438  44.2055353  11.3840020  37.2530494
  71.8723386  47.3570581  16.4681564  71.1992829  46.6771378  16.4375625
  72.5742000  46.9757356  16.9956241  80.6710037  16.1443246   7.0430647
  79.9791225  16.7374814   6.7503200  80.9118732  16.4673055   7.9113374
  20.7935222  29.5547784  17.3756633  20.2126821  30.1059449  17.9001365
  21.5460094  30.1143992  17.1837936  58.9378532  37.6785243   6.8577085
  58.8103279  36.8195928   6.4549575  58.2330974  37.7481187   7.5016866
  29.4393578  71.7991598  45.5563484  29.0319004  72.5068219  45.0569282
  29.1651764  71.9551046  46.4600788  68.1055244  11.2849820   8.6162696
  67.2828945  11.4634478   9.0719638  68.7819274  11.6298592   9.1991649
  39.9766382  13.9319623  14.3031250  39.6703895  13.1678451  14.7915683
  39.1782888  14.4137443  14.0868984  82.0049842  21.4995730   7.1716438
  81.1791786  21.9039739   7.4375997  81.8645557  21.2458098   6.2594400
  39.4236692  24.7966206  12.9939972  39.7186168  23.9537728  12.6492534
  38.6597808  24.5822823  13.5295044  57.7549251  20.8271897  21.4866100
  57.4917587  21.2746537  20.6823955  58.3662971  20.1507581  21.1952625
  65.2332576  15.5727113  56.5901600  66.0257038  15.5853761  57.1269165
  64.5775874  16.0257256  57.1203457  59.1148456  13.4270251  47.1409546
  59.5186027  12.6666558  46.7225681  59.8540290  13.9548266  47.4430500
  33.4201279   0.9882002  70.1331377  32.8800812   0.5949240  70.8186483
  32.9621640   0.7803946  69.3186951   1.4632699  66.1389112  53.8560200
   0.9308050  66.8881655  54.1231203   1.0310457  65.8061647  53.0694532
  77.9303630  10.7070792   4.8923145  78.7121471  11.1507619   4.5633779
  77.2490104  10.9175456   4.2538057  37.6495576  17.8899312  69.6601486
  37.8537226  17.6658547  70.5680799  36.9803667  18.5711408  69.7262383
  75.6802988  18.7373567  70.1619577  76.0225058  19.6146369  69.9901819
  75.4270554  18.4061050  69.3003464  62.4619763  23.4901841  47.7018295
  62.1342080  23.0378182  48.4791122  63.0680006  22.8676219  47.3001037
  33.5243225   2.3243824  60.9857321  33.2826161   3.2227427  60.7604361
  33.2435131   1.8047327  60.2325106  33.5240436  25.3542042  61.2887573
  32.9965043  24.6286201  61.6226196  34.2690110  24.9317980  60.8611774
  44.9710512  24.9769974  59.9378967  44.8563576  25.7919240  60.4267406
  45.4499865  25.2354312  59.1504526  12.2781172  69.3740399  12.0341812
  13.0173006  68.7671049  11.9958625  11.6583147  68.9590557  12.6340709
  86.9668239  40.5164965   7.7227388  86.8320363  41.4539459   7.5839840
  86.4698737  40.0965685   7.0206485  85.9913199  32.9344584  32.4132190
  85.4348462  33.2703568  33.1158863  85.8757394  33.5588218  31.6969524
  82.6142209  23.1831987  32.0726715  82.3613494  24.0380271  32.4213157
  82.9531711  23.3721490  31.1976562  66.6935539  15.2614021  50.7225895
  67.3706579  15.2644455  50.0460148  66.8164492  16.0886717  51.1881590
  38.2311637  81.6400841  59.4610834  37.7913672  82.4013310  59.8396444
  37.9794461  80.9113697  60.0283957  64.4095945  12.3978877  61.0096884
  65.1588678  12.4186313  60.4143810  64.2100191  11.4672422  61.1111832
  42.6684380  34.9212527  70.1969957  41.8841505  34.4234467  69.9660921
  42.3956347  35.4707980  70.9317160  40.0510254  50.6336351   8.1848560
  40.1380005  50.8907975   9.1027485  40.6944313  49.9342884   8.0700575
  68.4491825  24.9887443  63.5466433  68.0801487  24.7489476  64.3966722
  67.6981354  25.2915883  63.0363035  38.5089382   1.7706073   5.9975515
  37.7801402   1.6136277   5.3971801  38.5188373   2.7199948   6.1191641
   8.9713469  42.8665969  17.5324951   8.6853733  43.5919567  16.9772468
   9.8403969  43.1268864  17.8378425   2.7941313  53.2339080   2.4466024
   2.9334917  53.5070844   1.5398584   1.8490925  53.0970223   2.5129495
  33.7625146   5.9572560  55.7756948  33.8599896   6.8417710  56.1283493
  34.0211725   6.0356587  54.8574495  80.0742620  56.0985942   4.1836391
  79.3181270  56.6853281   4.1990600  80.1924460  55.8844812   3.2582079
  63.9160115  64.7318144  57.2249937  64.6715505  64.7436590  56.6374063
  64.2805058  64.9291070  58.0878115  71.8664687  15.8997424   8.2901798
  70.9513515  16.1541255   8.1715427  72.1574920  16.4007695   9.0520893
  50.0359780  71.7762764  68.1586027  49.1122109  72.0270355  68.1554413
  50.4573590  72.4214877  68.7263823  57.2413308  70.4452772  56.6777611
  57.0022065  70.9585078  55.9059763  57.9448373  70.9465106  57.0901632
  78.9003381  21.0449047  64.7115326  78.8305125  20.1086874  64.8982286
  79.2182526  21.0862131  63.8096142  85.1172917  48.6636306  33.8234840
  85.7963365  47.9939057  33.9047275  85.4119723  49.2169769  33.1001506
  54.5499802  29.8968053  69.4266987  53.9999294  30.0747108  70.1896048
  54.3408632  28.9943051  69.1858768  36.8272120  74.9700446  59.0922308
  37.0702226  74.5304741  58.2773972  36.6328723  75.8699293  58.8301802
  54.0179959  56.3004322   4.8326955  54.8051300  56.8217857   4.6751152
  54.1877213  55.8553811   5.6629692  34.2116887  77.0564194  61.5430641
  34.5743234  76.8245537  60.6880999  33.7669761  76.2617977  61.8380928
  39.5532090  72.4326767  61.5009403  39.0680749  73.2574983  61.5243196
  38.8993985  71.7770560  61.2581921  31.1127526  81.4418323  66.2540245
  31.8340260  81.5870955  66.8663168  31.1230618  82.2113745  65.6848764
  62.9004574  23.2021332  66.6002560  62.5134325  24.0559721  66.4068556
  63.6392975  23.1316090  65.9957981  23.5405388  41.1097418  19.6142612
  23.5422078  42.0375370  19.8496853  24.4108715  40.9541465  19.2474590
  63.2807500  67.3376961  51.9286108  63.7654168  66.6922290  51.4141130
  63.9279897  68.0105372  52.1397972  35.2543243   3.2537377  13.0818878
  35.3795560   2.4186004  12.6312194  34.6342643   3.0564464  13.7839065
  56.0943811  45.8636876   4.6030460  56.9397657  45.4910942   4.8535095
  55.9172051  45.4952090   3.7375627  72.5812619  58.9137121   0.3117023
  73.4900754  58.6256905   0.2260528  72.4132388  59.4165166  -0.4852833
  74.6071243   8.2509869  21.8570113  74.6717739   8.8806921  22.5750113
  73.6716318   8.2090431  21.6587210  36.4379365  79.6589446  63.1708860
  37.2926576  80.0763194  63.0637407  35.9894807  80.1957673  63.8242912
  29.6899278  77.7631743  47.3845148  29.9907929  77.1776525  46.6896200
  30.0122840  77.3623295  48.1917572  10.3142721  77.7420483  59.2489004
  11.0788114  77.1683277  59.2994690   9.8627717  77.6135139  60.0830841
  83.9754670  32.6129295  26.8466983  84.5178073  31.8847747  26.5435634
  84.5761292  33.1682249  27.3437820  67.7223843  52.2272594  23.1582580
  67.5486320  53.1517203  23.3354984  67.8012984  52.1767362  22.2056518
   1.1710444  52.8379388  18.1784473   1.0006323  53.1523569  19.0663276
   0.3363266  52.9445858  17.7222667  46.1123228  13.8449252  69.7704268
  46.1085176  14.7962439  69.6645546  46.9446230  13.6554646  70.2035666
  45.5230504  47.7592494   7.1584640  46.2929922  47.6903452   7.7229772
  45.1563507  48.6206980   7.3576341  44.9549818   6.8199193  64.8001289
  44.5010614   7.0220852  65.6182432  44.6190977   7.4621224  64.1748381
   4.0908184  66.3459690   6.6106878   4.2327347  65.4071029   6.4897619
   3.4230223  66.5725787   5.9634386  11.7378671  58.8850493  42.6905012
  12.6455600  59.1850562  42.7387047  11.3633067  59.3720574  41.9564962
  42.1959209   3.2490265  35.8311248  43.0603456   2.8382039  35.8462286
  41.9873285   3.4020585  36.7527008  81.0439151  19.0408118  11.2295662
  81.1136668  19.9950679  11.2571369  81.9331973  18.7410005  11.0411106
   0.7769201  35.2127385  60.8006382   0.1608178  35.1044369  61.5251541
   1.5786645  35.5331683  61.2138700  53.2960224   4.7706467  38.5548735
  52.6854420   4.9049324  39.2797112  54.1385365   4.6068597  38.9786339
  74.4312477   7.8412145  63.4526491  74.0470886   7.3881513  62.7020597
  73.8531923   7.6251501  64.1843653  24.5281465  74.9893684  49.9526262
  24.7317035  75.7435180  50.5058479  23.5778434  74.8945589  50.0171185
  71.1308575  15.6833887  64.2159367  70.2163410  15.8428454  64.4493246
  71.5694380  16.5178204  64.3820763  65.4167461  50.8494997  67.8776741
  65.2982378  51.3713264  68.6713266  66.2635756  50.4197550  67.9978132
  31.6123715  64.5806439  16.9447837  30.6767502  64.4353588  16.8042884
  31.7358342  65.5165656  16.7865501  82.9249477  16.8004239  60.0065804
  83.2440662  17.4059021  60.6757545  82.2122669  17.2728801  59.5763540
  13.6120358  41.8021830   9.0367256  14.2792740  41.6038481   9.6937500
  12.8284207  41.3480638   9.3464981  11.1204472  17.7122434  29.6245132
  11.4922753  17.2799356  28.8556991  11.4182988  17.1829756  30.3643737
  36.7805481  18.6662197  54.5611000  37.4060345  19.0217054  53.9297295
  36.0703611  18.3158803  54.0233898  45.6445701  69.9095793  70.0982666
  46.3981635  70.3128941  70.5291510  45.2340133  70.6258173  69.6138287
  53.6431456  31.4286661  63.2351446  53.8009691  31.2528944  62.3075533
  53.6418486  32.3835874  63.3011341  68.6715889  18.5815489  56.9888592
  67.9419088  19.1841388  56.8450212  69.0660906  18.4722662  56.1236095
  70.4245853  35.0809240  35.4308224  69.8047447  34.4270205  35.1076531
  70.5079222  34.8907328  36.3652277  27.3896146  25.4112220  67.0395756
  26.7915773  24.6661162  67.0978880  28.2455611  25.0499368  67.2699165
  61.6814286  71.8425329  66.6948891  60.9462506  71.2884481  66.9570637
  61.3536221  72.3352809  65.9425783  29.4440213  28.4567805  10.8457695
  28.9864674  27.8037889  10.3161655  29.0609780  28.3684297  11.7185341
  55.3792334   7.3899412  69.9984646  54.4833279   7.0953637  69.8347235
  55.5836058   7.0602357  70.8735418  64.7489548  22.0095325  47.1331453
  65.1720667  22.6241231  46.5335751  65.3649902  21.9219923  47.8605175
  62.4197531  42.8080463  69.7020960  61.7245817  42.4238682  70.2363014
  62.1242905  42.6850462  68.7999868  78.0184793   6.0587054  51.9006538
  77.7291870   5.1462686  51.9000530  77.3029566   6.5365511  52.3200846
  46.8923950   8.6538410  48.0597258  46.0140705   8.9778107  47.8601694
  46.8908024   7.7491879  47.7469444  80.1541942  32.9370375  31.0150371
  80.7769244  33.0241592  30.2933441  80.5572122  32.2985561  31.6033874
  68.4701306  75.3887041  33.4040070  68.0723912  75.9982635  32.7823400
  69.3584592  75.2551312  33.0734587  55.0966311  25.4288769  60.6448984
  54.3827486  25.1200891  60.0869989  55.8674288  24.9557996  60.3313732
  70.3336096  39.3754339  41.6782427  69.4130230  39.3828440  41.9403458
  70.3111172  39.4316673  40.7229614  45.5602598  22.8517795  64.7892332
  45.5915976  22.4242115  63.9334059  45.2964401  23.7517738  64.5978165
  38.6899701  35.4581697   1.2373863  38.3059540  36.1292048   1.8017278
  38.1389275  35.4594125   0.4547058  25.6570489  61.0201211  54.8359013
  25.5288608  60.9207578  53.8925457  26.6063745  60.9858842  54.9535370
  71.5170336  16.7925465  55.2665758  71.2720060  16.1365914  54.6139526
  72.3091555  17.1975553  54.9133921  35.0091457  28.4474301  48.7247562
  34.7655463  28.5756445  47.8079939  35.9542346  28.2972431  48.7027025
  44.4877609   9.4888747  18.7338863  45.3658946   9.1947949  18.4917675
  44.0463813   9.6388019  17.8978668  65.6741333  46.2200451  70.1578569
  64.9353504  45.7042551  70.4809475  66.3226080  45.5685234  69.8909712
  82.7972405  35.2539857  10.2235637  82.2644036  34.8637004   9.5307480
  83.3160346  34.5259191  10.5656181  78.3723593  38.5859370  39.4896054
  77.8498840  37.8006935  39.3263745  77.9793787  38.9771891  40.2698135
  32.5383416  52.9654737   5.0729643  32.3800984  52.1668346   4.5696102
  33.4909573  53.0587442   5.0809656   8.2640162  55.1349326  17.9883609
   8.2068291  55.1204176  18.9437423   7.5142231  54.6169026  17.6956401
  63.6291283  57.9054220  23.5540996  63.2970589  57.4972887  22.7544819
  64.2618888  58.5545452  23.2467209  24.7657871  19.3487000  60.9223127
  25.1561451  18.6457026  61.4415884  24.1444635  19.7690082  61.5168953
  61.6613770  25.2677226  65.8133936  61.5872431  26.2140489  65.9366941
  61.6078901  25.1447582  64.8656321  15.5341718  22.9524803  43.0933046
  15.9920118  23.4945560  43.7357759  15.2890107  23.5618448  42.3970270
   3.1758005  71.9967337  54.8857927   3.4536893  71.1043079  55.0921488
   3.8505680  72.5535591  55.2742052  28.6278064  59.4149203  54.0131378
  28.3907325  59.8327203  54.8410702  28.0935342  58.6212463  53.9837551
  80.8294392  37.7523208  38.1896281  81.4111137  38.5124755  38.1973028
  80.4065037  37.7656817  39.0482187  83.8219398  68.1093772  12.4353729
  84.2765420  68.9097865  12.1728645  84.4856351  67.4231608  12.3657642
  64.7964954  22.9600644  64.5115709  65.4563046  23.4238195  65.0271463
  64.9622393  23.2330728  63.6092281  37.1125579  18.6316752  62.3994684
  37.6535559  19.3038225  62.8139210  37.1301484  18.8508677  61.4678669
  67.0704222  17.5817347  59.0554047  66.5932178  18.2489383  59.5487070
  67.6498365  18.0792093  58.4783173  57.5982952  36.1746502  48.1989956
  57.9616165  35.4604983  48.7226582  56.7809916  36.4041495  48.6412334
  34.0819365  75.6811900  43.1075001  34.1285569  75.8828760  42.1729517
  33.4606559  74.9553014  43.1651688  10.7041485  71.3972170  61.9806242
  11.6214282  71.1381180  61.8929243  10.7051665  72.0480932  62.6824760
  14.1639325  10.3139436  55.9778309  13.5512922  10.2959263  56.7130709
  14.5290277   9.4295901  55.9485626   1.1415288   3.0147520  66.5436268
   1.4868734   3.6557633  65.9222746   0.1991556   3.1816331  66.5609884
   1.6129491  22.2078943  40.7992172   2.2690198  22.5670528  41.3965607
   0.9933374  21.7528605  41.3695288  56.6180897   3.1219140  52.9630566
  57.2384310   3.6754313  52.4886894  57.0833778   2.8698334  53.7606764
   0.1431177  27.2847009  56.0220671  -0.1463511  28.1800938  56.1973333
   1.0032937  27.3864770  55.6146717   7.9412117  72.6478847   0.6249796
   8.8645783  72.6983722   0.3778301   7.4725762  72.5990565  -0.2082219
   4.5954702   1.8222037  39.9827218   5.3830049   1.4169721  39.6196675
   4.0330598   1.9752172  39.2234373  26.8047222   8.9051736  10.5647312
  27.1226581   9.2972148   9.7514377  26.7598184   7.9676116  10.3771244
  21.2858970  78.9360191  68.1630039  22.2397906  78.9977519  68.2130861
  21.0954864  78.9254237  67.2249937  29.5692959  41.8421479   5.4690347
  29.1667214  41.1602184   6.0067497  29.0775814  41.8212697   4.6480547
  64.9541109  57.5855096   3.9191518  64.2596190  57.6329418   3.2621418
  65.2579587  56.6785999   3.8814388  82.2399712  47.9525757  68.0664825
  82.9602432  47.8469038  68.6879873  82.0040703  47.0585251  67.8189802
   6.5707586  26.9072652  66.4799976   7.3792932  26.5836000  66.8771791
   6.8614480  27.5594854  65.8425426  64.3571901  12.0396531  18.5098708
  64.7763062  11.2905431  18.0863070  64.8411989  12.1540642  19.3277192
  44.8571157  28.7621784  53.4831047  45.6667852  28.7305903  53.9926863
  45.0604916  28.2821989  52.6803064   9.9945059  40.6469083  16.0711799
   9.7823420  41.3130384  16.7250000  10.2092018  39.8677355  16.5840374
  70.8370549  68.3343751  63.2221746  70.8883817  68.6946244  62.3368359
  71.5074403  67.6514263  63.2420921  72.4307013  39.5712280  45.1728535
  73.3813572  39.5760202  45.2844906  72.1977901  38.6432958  45.1424408
  86.4879935  47.3096056   9.1354213  87.1522897  47.9982247   9.1081272
  85.7777923  47.6824905   9.6577297  71.3210964  40.9958220  70.6471539
  72.0636606  40.7087708  70.1157141  70.6458139  40.3354788  70.4916811
  22.4058476  67.4027117  16.8918644  22.0519104  68.2884772  16.8119751
  21.8632498  66.9875415  17.5622783  66.5632629   7.5041938  44.4709873
  66.7428160   7.5166965  43.5308599  65.6124687   7.5947094  44.5344639
   0.8717194  48.7236650  23.7653766   0.3962460  47.9022522  23.8896213
   0.5863324  49.2778464  24.4917808  27.9675045  39.8578386   7.2649227
  27.9939118  39.3136081   8.0519090  27.5206032  39.3164548   6.6142164
   7.0839300  75.0687154   7.3263918   7.5672379  75.6362493   6.7259346
   7.7614441  74.5647629   7.7772127   0.6270692  33.2793474  56.5048122
   0.3621862  33.9599562  57.1235561  -0.1697638  32.7715492  56.3517427
  18.8057509  34.4180252   8.6129652  18.0558672  34.0795870   9.1022144
  19.0612641  33.6971821   8.0373512   0.5630675  58.7266989  16.2818275
   0.3194847  57.8279407  16.0601745   0.3348437  58.8154240  17.2071777
   4.8572054  52.7011271  14.9114071   4.8278847  52.2885998  14.0481601
   3.9384785  52.7969201  15.1624141  34.5170552  77.5337974  25.0062609
  35.2594764  77.7117760  24.4288826  33.8060719  78.0693148  24.6541905
   7.6045361  63.3989175   4.8499046   6.9625750  64.1088875   4.8419939
   7.3454705  62.8336437   4.1221796  70.8137894  62.8478432  66.5425062
  71.3063717  62.0629311  66.7822981  71.3789034  63.3041048  65.9190416
  75.6426661  45.2927889   4.6630750  76.1615413  45.1981478   3.8643013
  75.4741614  44.3943574   4.9470840  17.5448027  68.5842331   2.5564323
  17.8978005  68.1825407   3.3503280  17.3123637  69.4742020   2.8213106
  46.4456511   0.0997340  48.4941149  47.1647882   0.5588691  48.9280128
  46.0654354   0.7519936  47.9057026  75.1134062  37.1513128  68.8999462
  75.0273180  36.7572069  68.0319023  76.0230017  36.9867969  69.1485405
  66.0899019  26.3663936  57.8040504  65.7718372  26.0294461  58.6416292
  65.3341532  26.3073754  57.2195959  72.8862667  47.7042150  58.3070326
  73.1318903  47.0448589  57.6580715  72.2902918  47.2464085  58.8998747
  76.7420721  47.3917675  69.5151329  76.3949394  48.2237625  69.8368645
  76.3006830  47.2562933  68.6766481   5.4364338  40.3444021  23.3732544
   4.8366967  40.9506427  22.9384838   4.9166861  39.9572370  24.0776668
  78.8459635  50.9917307  60.6214476  79.6032953  50.6342363  61.0849953
  78.7245226  50.4064035  59.8738670  27.1744188  27.8644193  18.5985122
  26.9688638  28.7943232  18.6947094  26.4725669  27.5198520  18.0463253
  74.8716777  51.3901575  20.7514892  74.1912883  50.8902098  20.3005348
  74.8892253  51.0263939  21.6366993  58.2042503  17.3536706  62.0185566
  57.5529718  16.8600118  61.5201902  58.7527514  16.6832459  62.4258757
  34.7056920  74.6586849  56.8210506  35.6484944  74.5331610  56.7133474
  34.3465621  74.5424683  55.9414196   2.0539656  56.6727992  11.0215030
   1.8785229  57.1481164  10.2093921   1.6914263  57.2314091  11.7090736
  25.7590301  75.9688039  70.0097656  26.6326911  75.7237287  69.7049952
  25.4265792  75.1819606  70.4417229  43.5605819  76.5519286  36.2527013
  44.4179112  76.1293979  36.2008834  42.9447038  75.8810194  35.9580636
  65.1557589   1.4959739  20.1852942  64.9698305   2.1550679  19.5165205
  64.3146849   1.3504089  20.6184721  68.4339809  61.3113403  52.1740055
  67.7527666  60.6389332  52.1668911  68.4020472  61.6752863  53.0587387
  27.7324810  46.3851269   9.1167675  27.2025528  46.6484632   8.3643900
  27.6228466  47.0965518   9.7477089  59.7030544  11.7932928  30.1141024
  59.5991755  12.7343178  30.2552176  59.3476915  11.6417658  29.2383242
  81.9965076  11.9328499  18.8943505  81.7787266  11.3972080  19.6571708
  81.1565018  12.2874475  18.6029899  13.3558843  10.6955242  58.6692429
  14.2852876  10.4672170  58.6514997  12.9862211  10.1414382  59.3566847
  48.5331011  13.5615063  65.9978485  49.0031958  13.3932447  65.1811886
  49.2208481  13.6328006  66.6597795   9.7010991  10.5077541  49.7747564
   9.0139196   9.8414898  49.7645998  10.1654527  10.3855443  48.9467049
  27.4138012  52.2474881  12.6124797  27.1120205  52.0599444  11.7236648
  28.1946888  51.7044337  12.7198730  81.8622916  34.6633501   5.6695781
  81.3731616  33.8440760   5.7455717  82.2975724  34.6044262   4.8191152
  15.9516945  34.7391303  28.6991249  15.8758202  34.6247758  29.6464382
  15.0902262  34.4975115  28.3589492  86.0329533   8.7222219  44.1870403
  85.6375027   7.8613460  44.0501499  85.3381157   9.3427098  43.9669991
   9.9259755  37.6148701  43.4789991   9.7447202  38.4425449  43.0336523
   9.6424100  37.7613401  44.3814230  37.6313376  12.3945606  59.9304867
  37.1896672  12.7322745  59.1513109  37.6209879  13.1261373  60.5476713
  67.0888710  10.2921593  62.0888853  66.1695385  10.0419855  61.9968271
  67.5726557   9.4750255  61.9685793  33.2456246  80.5907591   3.2977281
  34.0487137  80.7357104   2.7974592  33.0996075  79.6460779   3.2478700
  32.0729882  82.2507077  22.3293662  32.8734500  81.7563306  22.1530628
  31.3760573  81.5950596  22.3040128  17.6643505  68.4952434  11.1123691
  16.7550173  68.7939151  11.1242710  18.0404225  68.8403590  11.9221244
  49.5205695  72.3150439  53.8498068  50.2041347  72.9476841  54.0705729
  49.0557725  72.7119375  53.1131458  54.1164160  46.6889668  48.7522840
  54.0241718  47.5175095  49.2226458  53.2544518  46.2781906  48.8194084
  86.9124311  39.4270320   3.4272705  86.3833898  39.5101629   4.2206417
  86.5241187  40.0509958   2.8139864   6.0935766  78.8207225  67.5898218
   6.4882118  79.1868607  66.7983437   5.1854975  79.1225014  67.5663137
  49.4160645  67.1447165  17.6724849  48.4879821  67.1228273  17.4392067
  49.4540494  66.7454703  18.5416160  67.1024568  70.8421750  20.9940124
  67.2725541  71.5541275  21.6107965  67.3480660  71.2004263  20.1410413
  81.3559723  34.2416096  50.6537390  82.1049595  33.8210154  50.2314186
  80.6999874  34.3146157  49.9604940   4.8905561  38.6960840  57.3136044
   5.6200025  38.1000853  57.1435165   5.2320001  39.3142223  57.9597902
  63.2709837   0.3990917  40.4318142  62.4134588   0.2831476  40.0226164
  63.0961609   0.9321132  41.2074137  63.2156699  46.9767685   9.5445095
  63.9853185  47.2661866   9.0545021  63.3580106  46.0403796   9.6828876
  85.5847352  39.4458074  25.3432594  85.3130000  40.0614461  24.6625362
  86.0579770  39.9839495  25.9778343  19.5515353  65.4962308  33.6656165
  19.4348390  66.1260064  34.3769503  19.1532189  64.6894558  33.9922452
  36.3065856  73.0818518   8.3031641  35.9999954  73.1898697   7.4028526
  37.2370558  73.3036383   8.2675634  60.7518332  54.1456910  10.5252109
  60.0386351  54.3876143  11.1160217  60.6838410  53.1943126  10.4446636
  86.2670359  78.5750235  42.7275848  85.9464178  78.5647027  43.6294317
  86.6364512  77.7020354  42.5947142  77.4794245  25.5351901  66.3028622
  78.3140802  25.4676199  65.8391619  77.3142290  26.4761186  66.3628197
  82.2213595  46.9302441  14.0139900  82.2813552  47.7922578  13.6022125
  83.0533736  46.5060879  13.8040481  81.8476200  26.3188601  50.5107784
  82.6041698  26.2704897  51.0951805  81.4428139  27.1625018  50.7123613
  64.0604162  18.6810791  66.2879038  63.9894629  18.8036311  67.2345686
  65.0022364  18.6750746  66.1170912  63.2373381   3.6361486  54.9981356
  63.3519268   4.2576736  54.2792416  63.2266235   4.1801456  55.7856512
  65.4994256  43.7890430  41.5099287  64.7957475  43.1589813  41.6651440
  66.0839993  43.6849899  42.2607088  32.6036508  69.3493934  62.4034643
  31.6718013  69.2828221  62.1949911  32.6302440  69.4371541  63.3562613
  62.7353811  13.5265863  45.0473070  62.2451591  14.3128574  44.8071146
  63.5988045  13.6531794  44.6539879  73.8856602  20.8821058  12.8182459
  74.7433329  20.9736323  13.2332790  73.6132812  21.7803526  12.6306427
  46.0713434  35.2032542  67.9647160  46.2733841  34.2835283  67.7929211
  45.9483528  35.2483940  68.9129066  74.3708801  22.3004007  59.2663002
  74.7336674  22.8757334  59.9398088  73.5099077  22.0513916  59.6023846
  51.5139866  18.4156048  67.8172874  50.8511353  17.9023314  68.2792473
  51.1095524  19.2745066  67.6950026  65.4207945  39.4484282  65.0356627
  64.6483088  38.8886809  64.9570656  65.5474663  39.5507455  65.9789133
  77.4048233  25.5276203  33.6819720  77.5930738  25.5222750  34.6204638
  78.2661343  25.5088782  33.2648087  65.1097012  32.9125524  48.5271072
  65.7820129  32.6030946  49.1341209  64.5335579  33.4560370  49.0646124
  53.3698320  39.4525337  51.2858057  52.6456594  40.0115347  51.0041618
  54.1425180  39.8329544  50.8681059  46.1120637   7.0883716  38.4352050
  45.5595859   7.0189631  39.2137848  45.4961952   7.0752585  37.7025638
  67.2915316  44.3928003  64.7435808  66.3368416  44.3368530  64.7028208
  67.5012922  44.2399740  65.6649256  18.5059163  43.2719088  58.7161732
  18.2234571  43.3076286  57.8022909  17.8041265  42.8009415  59.1655254
  38.6956191  46.5384483  63.3110285  38.1125188  47.2777081  63.1386518
  39.4825387  46.7300558  62.8008556   6.4550016  60.7851219  59.3832016
   6.6935823  60.1360607  58.7213612   5.9818647  60.2857447  60.0487804
   2.9985044  46.5494013  54.3129063   3.5550973  45.7837296  54.1708136
   2.9753396  46.6554976  55.2639246   4.6375177   2.4586701  62.8276205
   4.3884275   1.6746932  63.3170748   5.1070974   2.9987532  63.4632635
  12.6368323  70.3547271   8.4896694  12.2086850  69.5007523   8.4292589
  13.4528056  70.1808985   8.9589248  73.5311365  34.1972232  44.8795319
  73.1846142  33.3707261  44.5432901  73.4409237  34.1258454  45.8297920
  78.5913086  42.5635672  20.1153588  78.8867760  42.2247267  19.2703032
  78.2040358  41.8065071  20.5548048  10.2401159  11.0612512  40.9569502
  10.6262014  10.2678978  40.5857897   9.3185327  11.0212958  40.7013893
  63.6285489  74.1228707   6.9990860  63.5216086  74.3403013   6.0730634
  64.1743439  74.8270829   7.3489795  52.0194149  56.5398121  64.2052078
  51.6216087  57.2902584  63.7638330  51.4340258  55.8084249  64.0086985
  60.8584595  23.6138082  33.7659216  59.9266481  23.5736179  33.5506344
  60.8900356  24.0638208  34.6101522  66.3322789  80.0488685  57.4080992
  65.7281262  79.3443210  57.1739101  66.9859845  80.0461311  56.7088938
  79.2088120  60.6047626   1.0843454  78.9510053  60.3471823   1.9694553
  79.6995585  59.8541077   0.7498108  64.9425220  27.1117282  37.2363806
  65.3723717  27.4951935  36.4719105  64.0958691  26.8088222  36.9082761
  67.8151662  70.6162841  57.3278284  67.3191220  69.8288746  57.5517845
  67.6594789  71.2135990  58.0594063  31.5000191  54.2018731   9.3902622
  31.2002507  54.3337198  10.2897010  32.4010220  54.5250018   9.3882976
  47.4302530  23.0288625  58.2985687  47.7206039  23.4928441  57.5132990
  46.4745283  23.0600524  58.2555771  67.6210976  17.0269072  42.4573326
  67.1051264  17.6295054  42.9929399  66.9795656  16.4095521  42.1058464
  81.7539310  32.0794725  53.4173536  81.8042469  31.7048860  52.5379324
  81.7244434  33.0253386  53.2734728  47.2891124   0.5353749  19.6667896
  48.2105716   0.6819928  19.4531379  47.2270473   0.7257522  20.6028114
  56.0855713  45.9785937  13.0275951  55.7484951  45.1859455  13.4451137
  55.3101101  46.4061584  12.6641689  81.8450546  28.9274263  48.4747458
  81.3491440  29.6991014  48.7482834  82.6766300  29.2778802  48.1555367
   7.2602556  29.9981022  22.0046020   7.4207494  29.3806124  21.2910366
   7.4268720  30.8582306  21.6190481  53.5522223  -0.1000583  47.0919514
  54.2756844  -0.2022835  47.7103233  53.0580711   0.6497812  47.4232864
  14.2721780   2.5885499  17.1241890  13.6189111   2.4260152  16.4437042
  14.2880281   1.7815030  17.6386390  66.9050568  77.5041635  19.8929630
  66.5093558  78.1331976  19.2896591  66.4716404  77.6699884  20.7301460
  57.7068758  43.4337091  51.6008854  56.9052315  43.4465599  52.1237993
  57.9413509  44.3561649  51.4992476  14.0297308  49.3967201  13.1825481
  13.9493647  49.6544601  14.1008793  13.6465779  48.5203411  13.1453262
  38.4061375  76.8469866   3.9983020  37.8072491  76.6881473   4.7279201
  38.8352719  77.6743277   4.2164407  70.6817818  28.7099981  27.3064947
  70.5072260  28.5710096  26.3756633  70.0804377  29.4098663  27.5610566
  82.9379177  62.5619507  62.1315002  82.5039577  62.0102930  61.4806652
  82.3146629  63.2685328  62.3004103  48.9655622  15.5357612  10.4477916
  49.7195514  14.9982131  10.2053581  49.1980060  15.9038365  11.3002716
   9.6776732  27.4792111   4.1104828   9.6173056  26.5979588   4.4792448
   8.7781652  27.8062594   4.1230999  59.9238284  31.2652123   4.7733627
  59.9299606  32.1965039   4.9944673  58.9973148  31.0247958   4.7747884
  48.3372974  69.8173904  52.8414106  48.7776661  70.5522966  53.2682800
  47.4044514  69.9918795  52.9662704   4.2530629  12.6509237  70.9063339
   3.7481305  12.4981225  71.7050409   3.6169431  12.5511897  70.1980734
  65.5436325  24.6883249  27.4819493  65.1151943  25.3499508  28.0250192
  65.6123352  23.9205313  28.0494046  53.2677323  73.7374557  58.6424875
  52.6182420  73.6165328  57.9498339  52.9202420  74.4534398  59.1743231
  59.0902376  79.4656229  53.4086847  59.9427462  79.1444445  53.1149054
  59.2890644  80.0110435  54.1697454  34.4867023   9.5792592   6.9427047
  34.4933923   9.3753684   6.0074936  35.3450664   9.9688304   7.1090589
  15.8534524  46.5490675  30.0238514  15.2334020  46.9978762  30.5985999
  15.6360147  45.6213427  30.1148248  52.5013431   0.5162824  27.5476013
  52.2263034   1.1497462  26.8847976  53.3785041   0.2484811  27.2735630
  74.3151760  51.4186811   2.4111433  74.5016813  51.9205999   3.2045704
  74.5531559  50.5190563   2.6353526   1.3434408  70.4202461  67.3068857
   0.4080007  70.2242708  67.2541380   1.6721628  69.8369217  67.9909277
   2.6391408  47.9044771  61.7067146   2.0367906  48.3523512  62.3006964
   3.2148740  47.4022007  62.2833204  62.1379995  61.4482546  68.6628342
  61.5777063  62.2192001  68.5737038  61.6916132  60.7681417  68.1584406
  66.6453791  29.2588663  49.0517712  66.2453699  28.7847352  49.7807598
  65.9081554  29.5061088  48.4935570  79.4406223  46.4112902  71.3628054
  79.6488237  46.8934155  70.5625343  78.6121273  45.9726048  71.1694574
  59.7170448  41.5486574  65.5759335  59.2981386  40.7072067  65.7567883
  59.2727041  41.8740606  64.7930479  73.2019036  66.6925557  14.0407692
  73.6496394  66.9411095  13.2320820  72.4623626  66.1585458  13.7506900
   7.8376291  51.4552259  19.0113306   7.4926565  51.7843771  18.1813395
   7.3326299  50.6602287  19.1821694  68.4934473  40.3728294  45.4635572
  69.3335533  40.7962513  45.6401014  68.6434126  39.4493985  45.6660891
  47.8814831  79.9013122  28.0838714  47.7137986  80.6919725  27.5710617
  48.2787552  80.2210005  28.8939319  46.9556952  36.3567472  59.1563082
  46.6652679  36.4846468  60.0593710  47.8943777  36.5428472  59.1779613
  84.2704487  55.9112072  59.2997837  83.5679817  56.3347864  59.7930908
  84.2111683  56.2920475  58.4236097  10.3759858  47.2889423  69.7125673
  11.3274667  47.3864079  69.7501373  10.0444410  47.9315138  70.3397942
  44.1129160  25.1067734  64.4299746  43.4511375  25.3544259  65.0756979
  44.6340227  25.8998775  64.3048143   3.4979668  79.6070917  34.6287857
   2.8710690  79.8157747  35.3213821   3.4985009  80.3807433  34.0651451
  55.8615780   0.9004732  41.3030577  56.6808939   1.1981422  41.6984653
  56.1300707   0.2408855  40.6634569  10.7378712  45.1376520  25.8596740
  10.0182000  45.3554489  26.4520202  11.3999977  45.8073695  26.0308490
  65.7958126  43.7043858  47.0865440  66.1944628  44.3254137  46.4769268
  66.0633135  44.0132236  47.9521656   6.1215487  66.6109307  19.2688594
   6.1531058  66.1569365  18.4267650   6.0032263  65.9128674  19.9130188
   7.9148671  24.8777914  38.0617809   8.3528325  24.0992522  38.4057164
   6.9912526  24.7476959  38.2768393   3.9641753  37.2669538   2.5990568
   3.3127966  36.8866266   3.1883703   3.4857598  37.9408558   2.1161447
  12.6074448  62.3152073  10.3173004  13.0978814  61.8547733  10.9982525
  11.7830029  62.5581010  10.7386337  77.1089458  18.8276076  52.8443766
  76.6717577  19.1218889  53.6434364  76.4015770  18.7274468  52.2073269
   3.0493638  27.1497869  48.0016088   2.1176622  26.9453812  48.0815649
   3.4549615  26.7163420  48.7525034  81.6194630  19.4288206  28.5257292
  82.4278927  19.1257715  28.1124020  81.2634182  20.0718355  27.9125476
  17.2624000  10.8691609  17.0012127  17.5910552   9.9729026  16.9309078
  16.9829687  11.0921491  16.1132846  56.5382942  24.1926063  19.1540084
  56.7883190  24.6058095  18.3275829  56.5753826  23.2533992  18.9730487
   3.3529415  73.7356003   3.9129768   4.2429819  73.4400208   4.1045318
   3.2709828  73.6489423   2.9632364  14.2189875  58.8670464  15.2544056
  14.9282399  59.4960936  15.1221405  14.3803254  58.5037728  16.1251770
  28.5028210  75.0937493   4.0821968  29.2692223  74.8363884   3.5697303
  28.8377800  75.7359894   4.7079502  24.6685598  29.2601991  59.0060043
  24.2609880  29.0402341  59.8436975  25.2564905  29.9876595  59.2093992
  60.6256294  54.7605753  67.6625633  60.4390287  54.1142082  68.3434582
  60.6825495  54.2488241  66.8556547  49.6224165  39.5274615  65.1075220
  49.1816807  40.0831890  65.7502890  49.9134731  40.1336575  64.4263124
  84.9717410   8.1366456  14.8196827  85.8482250   8.4728396  15.0067077
  85.0483211   7.7370894  13.9532409   9.7907064  38.6385012  33.9212751
   9.2300031  39.3854022  34.1310120  10.6058595  39.0311933  33.6089587
   8.9156428  43.9402034   5.2616058   8.3984652  43.4344539   5.8884845
   9.7455683  43.4673907   5.1991306  70.3555568   5.5151952   6.6409002
  70.1195701   6.1171830   7.3467003  69.9488624   5.8905852   5.8599268
  64.9574947  48.4677982  41.0880804  64.0576601  48.5413313  40.7700777
  65.2821350  47.6541758  40.7022572  58.5929187  17.4888194  25.5707775
  57.9316505  17.0958484  25.0010906  58.7289604  18.3652318  25.2107463
  71.9423907  75.6034191   5.7865606  72.2152179  75.7213529   6.6964470
  71.0804646  76.0170539   5.7394300  80.6078679  44.7358890  19.6513534
  81.5166337  44.4506736  19.5563340  80.1590116  43.9820333  20.0340533
  15.8123913  77.0024903   3.7942587  15.4058256  77.0478709   4.6596323
  15.7199993  77.8867300   3.4395538  50.7205852  35.8800376   9.3220554
  50.7870134  35.7848132   8.3719192  51.6168292  36.0561145   9.6083580
  74.4308424  10.5514276  69.7820902  75.1752758  11.1414337  69.9001646
  74.8020601   9.6746951  69.8809433  82.2019100  38.9835310  53.2453346
  81.4321327  38.8276911  53.7925005  82.1222591  38.3486271  52.5334501
  48.0949879   4.5083383  43.4569359  48.7690258   4.4554654  44.1345119
  48.2589722   3.7500462  42.8962803  63.2819255  21.1481774  15.7496868
  64.0780338  20.6646598  15.5291210  62.8555187  20.6144107  16.4201389
  84.6493810  54.8839159  22.7063785  84.8120635  55.7720836  23.0240665
  83.8407701  54.9553259  22.1991478  56.7355108  27.8694057  60.8627081
  56.2311268  28.2053304  61.6036415  56.3361502  27.0221281  60.6655645
   4.1351214  81.7277987  40.6743656   4.9047413  81.5184911  41.2036167
   3.5530749  80.9768351  40.7905899  60.2525377  32.3408556  57.4784613
  59.7840214  33.1096053  57.1532726  61.1764193  32.5435019  57.3314428
  65.4920197  48.0154228  60.7393265  66.1642838  48.4498024  61.2643099
  64.7764015  48.6495304  60.6943369  80.1403754  75.8901556  16.9491802
  80.6283372  76.3545640  17.6292167  80.7316392  75.1937802  16.6633545
  79.3754292  68.6475611  44.2836475  80.1306057  68.6642075  44.8715782
  79.7550011  68.5699749  43.4083557  76.3907814  23.2484770  64.9048710
  76.6790438  24.1427159  65.0878239  76.9129467  22.9783249  64.1494942
   4.6125409  49.0462112  64.7556734   5.4610917  49.4751358  64.6451378
   3.9787862  49.6778774  64.4157028  76.1769724  12.2331583  22.4621677
  76.9400883  11.7039204  22.6940918  76.5377474  12.9713964  21.9711733
  73.7376540  36.9509487   4.1173969  73.0938809  36.6112180   4.7389875
  73.9748376  36.1945962   3.5808311   1.9458714  51.6668411  22.5443302
   2.2257891  51.0202326  23.1922374   1.6586485  51.1457570  21.7945324
  46.6040078  56.6830082   8.1612764  47.4379769  56.9891842   7.8049265
  46.0123577  57.4287053   8.0606924  55.1651382  14.4854617  65.0909567
  54.9577999  13.8320911  65.7590485  54.3124962  14.8039627  64.7946644
  75.4278072  15.9580291  13.2355438  75.0788482  15.6490672  12.3994861
  76.2129100  15.4291785  13.3774982   7.1826687  77.6170047  20.1679168
   6.5682450  77.5028451  20.8929573   6.6712418  77.4100049  19.3857227
  54.7385922  62.9564245  13.1950794  54.6029034  63.8637360  13.4682308
  53.9435139  62.7301224  12.7125106   3.5777369  73.7786491   1.3924919
   4.1351214  74.4026025   0.9274755   3.4809389  73.0451043   0.7852255
  84.4293022  42.9153919  34.4529438  84.8880386  43.1167173  35.2685761
  84.6961021  43.6096764  33.8504314  61.8279903  56.1497457  57.6175724
  61.6878217  56.4409323  58.5185753  61.4106172  55.2893253  57.5762687
  61.4891863  33.6006904  68.7444305  62.0020676  33.8720465  69.5057106
  61.8248415  34.1368532  68.0260324  64.4048452  56.5981007  58.9299107
  63.7287235  55.9369850  58.7815285  65.2027512  56.0934401  59.0877199
  39.6385463   4.1801036   0.1448522  39.0012630   3.9506066   0.8211885
  39.8934825   3.3409560  -0.2386488  12.7839467  73.6555672  67.9227543
  13.5171220  73.1289625  67.6043749  12.2977826  73.0657196  68.4989119
  65.8298683  16.4023376  23.7904477  65.1354456  15.8176780  24.0940690
  65.5009079  17.2817791  23.9764619  77.2816133  52.8998375  65.9351254
  76.7687273  53.4222269  65.3184509  76.7233324  52.1483231  66.1346006
  87.3191112  50.2380557  10.7240139  87.0305007  50.3112735  11.6337238
  86.5515035  50.4856368  10.2085338   5.7553139  69.7871216  17.5498424
   5.3041449  70.4997619  18.0024181   6.6824713  69.9330481  17.7377735
  69.4296312  42.7315140  64.0459108  68.7372780  43.3859968  63.9535427
  69.6418667  42.4789238  63.1473637  67.2883797  44.1536188  54.0946579
  67.7993107  43.9435482  54.8763561  66.3837624  44.1975069  54.4044447
  84.7219467  20.2502608  69.9058342  85.1335335  21.0804749  70.1457834
  85.4526234  19.6830237  69.6596813  10.5836198  30.9952760  46.5437460
  10.5858323  30.6517911  45.6503010  11.5077493  31.1397481  46.7470932
   6.1750696  16.3683045  36.6547513   6.3768957  17.1492410  36.1393547
   6.5811155  15.6497931  36.1698818  49.9313838  80.8435326  46.7254400
  49.5688445  81.7133178  46.5573025  49.4480950  80.5259582  47.4882078
   0.1366899  55.7348490  30.2131319   0.9506700  55.2379417  30.1310110
   0.3367135  56.5876627  29.8272181  46.9603672  68.1490858   4.3647943
  47.5897160  68.4331615   3.7018762  46.1918202  68.7002333   4.2171798
  69.3371948   9.1818631  10.4990135  68.5297569   8.7026847  10.6852184
  69.5094379   9.6804488  11.2977443  68.9631271  51.0768843  34.2663240
  68.9570665  50.1603937  34.5424414  68.0381632  51.3055944  34.1748452
  73.2805913  53.9071210   1.7531095  72.6517003  54.0839274   2.4527298
  73.6624187  53.0599423   1.9827400  12.9524228  33.0560446  70.4007816
  13.5634420  32.7379179  69.7361898  12.0967481  32.7405071  70.1100922
  50.0568247   9.1517383  52.9636860  49.3943882   9.4945163  53.5636139
  49.5591736   8.8539940  52.2021580  64.2573071  38.3384752  58.2344723
  64.7059774  38.7534428  57.4977732  63.7401581  39.0418744  58.6269236
  85.3347015   3.4623778  54.5885420  85.9838009   4.1657066  54.5733261
  85.0465107   3.4221125  55.5004406  79.3880558  37.8984427  51.8509150
  79.1001987  36.9982719  52.0027828  80.3357697  37.8305054  51.7349434
  50.5882788  26.0461235  56.2135983  51.4478016  25.9879255  56.6308069
  50.6821060  26.7470908  55.5685616  56.4980936  18.6560166  63.9395237
  57.0381689  18.4686661  63.1717682  56.0802650  19.4937265  63.7397957
  53.5413456  39.6753860  56.7587519  52.8432465  40.2817011  57.0062923
  53.3712530  39.4774079  55.8378267  47.1779966  76.2360525  51.9602156
  46.2514067  76.0372925  52.0949554  47.3110533  77.0720768  52.4069691
  74.9353647  44.8132849  57.5321293  74.8075151  44.9723434  58.4673214
  74.7608423  45.6590509  57.1192741  75.5086756  77.9138994  60.9971905
  75.7380629  77.2521877  60.3446960  74.5521593  77.8971910  61.0292244
  53.6120408  51.7627020  19.3659816  54.2014688  52.4517127  19.6726928
  53.3180445  52.0641263  18.5063682  85.1668072  58.9666700  58.6378622
  84.2429924  58.7278700  58.5619783  85.1618671  59.9205399  58.7175083
  53.1870174  78.0888081  60.4076481  52.8508139  77.6545572  59.6236658
  54.1380978  78.0062294  60.3379583  80.3042984  64.6783352  59.6644020
  80.3248596  64.8381329  58.7208557  79.5818472  65.2192879  59.9832487
  78.3383369  13.1604266  55.2848911  78.8159561  13.0955732  56.1118746
  79.0217829  13.1932855  54.6155214  86.2735176  65.3451824  55.9380054
  86.3192558  66.2909126  56.0784769  85.7406425  65.2457142  55.1490927
  82.4255753  21.7115402  70.4838467  83.2892036  21.2998343  70.4541826
  82.0819283  21.4852643  71.3481045   3.3223340  23.2683492  56.4514256
   3.1316469  24.0739655  56.9318914   4.2778871  23.2122803  56.4475250
  74.4552787  28.7604440   9.1624675  74.1949352  28.9360679   8.2582555
  74.9732669  27.9571689   9.1108642  26.8468984  33.6919129   7.0203767
  26.2359937  33.8654483   7.7365575  27.6948007  33.5808480   7.4504409
  80.3660202  58.8125992  60.3697300  80.1534748  57.9898739  59.9290705
  79.8570490  58.7887335  61.1800480  62.6382049  12.6940740   3.8835703
  62.9169734  13.5229457   3.4943424  61.6985591  12.6503146   3.7064253
  15.7465401  76.7263134  13.5837589  15.8800116  77.2677119  14.3617664
  15.6165495  75.8421429  13.9266525  81.2763405  59.4316721  67.8889751
  81.7662239  58.6093569  67.8821516  81.6163254  59.9192381  67.1386909
  26.8250749  60.7030630  64.4357252  26.3994691  60.2183390  63.7285233
  26.9126222  60.0654411  65.1442480  74.3326759  31.5673590  63.6057377
  73.5030031  31.3096786  63.2038927  74.6023560  32.3466611  63.1197405
  32.5456753  56.9134052  29.3089233  32.1956578  56.0225232  29.3158374
  33.2570973  56.8962069  29.9490867  40.1696148  81.3415368  12.0555816
  40.4729405  81.5061982  12.9483925  39.6188679  80.5621655  12.1296440
  73.8368273  42.2705746  65.1569223  73.0774689  42.3339081  65.7362270
  74.4422674  42.9369402  65.4819298  82.7896388  24.4530070  19.6121345
  82.2176250  23.9529002  20.1943145  83.6254295  24.4962657  20.0766883
  16.0548112  26.7808008  51.1470604  16.2853238  26.0623956  51.7361212
  15.1521203  26.9997954  51.3781881  78.0248642  56.6624641  47.9624701
  77.1519184  56.3535118  47.7201033  77.9756689  56.8016100  48.9082241
   0.4891775  71.2696505  52.3397207   0.5990407  72.2204685  52.3501587
   1.3796422  70.9264517  52.2654819  63.9015087  34.6754420  21.8105446
  63.6292632  34.2286647  21.0089813  63.0885967  35.0190509  22.1811424
  23.2698247  57.4530506  68.9238071  23.9978120  57.4718332  69.5450306
  22.5532338  57.8929472  69.3812037  65.4524612  76.2696695  64.2358875
  66.3834047  76.0581589  64.3054819  65.0047588  75.4949617  64.5759106
  80.8029311  56.2023421   8.4438215  81.1039060  56.8998607   9.0261589
  81.0705989  56.4875396   7.5701795  29.8087499  51.9537115  70.3662157
  29.3684575  52.3380136  71.1242962  29.8528097  51.0181332  70.5636597
  78.8115454  81.3506985  64.8668337  78.7122917  81.9957829  65.5670071
  79.0303850  80.5366802  65.3203964  29.4558754  46.4747538   0.8877216
  28.8161412  46.6097649   1.5868269  30.2625599  46.2356343   1.3441406
  57.7776051  37.5574684  68.7487793  58.5435724  37.5680971  69.3227291
  57.3481750  38.3982015  68.9068699  13.2281294  72.2037633   2.6472173
  13.3463612  72.2992642   3.5922752  12.5622263  72.8535350   2.4222742
   6.5360162  37.5331450  42.7320147   7.1393010  38.1168485  43.1919861
   5.6660650  37.8672099  42.9506636  86.7708683  54.5786667  59.1114521
  86.2546921  53.7761164  59.0358829  86.1509228  55.2326584  59.4342566
   8.3532140  36.0024500  41.1707067   7.6636121  36.3362646  41.7445040
   8.9825818  36.7210531  41.1094856  39.8630842   4.7540677  13.3238063
  39.2772277   4.5298016  14.0467964  40.7208951   4.8607839  13.7349163
  20.7090171   2.1816934  11.5198551  20.6563981   1.7279017  12.3610054
  21.2382587   1.6047490  10.9691558  61.2744220   9.6603692   8.2345949
  60.5026039   9.9675477   8.7101684  61.2266811  10.1046193   7.3880754
  58.1531286  61.7838335  21.7389131  57.6006079  61.0022116  21.7346358
  57.6589203  62.4236965  22.2513270  52.2833331  11.2478364   1.0863100
  51.4483627  11.0777772   1.5223537  52.9125675  10.6952632   1.5499387
  86.2644713  79.9251326   5.7070718  85.9640735  80.5918963   5.0894819
  86.4110129  80.4032906   6.5232359  44.1971572   8.0075992  36.6132198
  43.9186605   8.3294022  35.7558284  44.1974433   8.7846482  37.1721779
  52.9121097   6.5661157  11.7016063  53.5863384   6.0259450  12.1137558
  52.1459087   5.9947217  11.6498695  67.8125270  20.8135951  16.7146240
  67.4402698  20.4572022  15.9079967  68.6365493  20.3399003  16.8278442
  68.7240839  44.4725180  41.2192202  68.4357071  44.8735666  40.3993225
  68.0048609  43.8918591  41.4677811  83.2083416  70.0434303  55.1818085
  83.9124680  70.6498384  54.9522448  83.2267761  69.3820906  54.4900513
  44.4999917  18.4765447  28.1316982  44.1323694  17.6963914  28.5469661
  44.4467815  19.1542066  28.8056217  83.3836269  63.2661819  43.6825037
  83.4182262  63.6424685  42.8030491  82.6936913  62.6045370  43.6329508
  75.6957054  36.9973397  23.0667877  75.1654339  36.2249947  23.2630610
  75.2102900  37.4526167  22.3788023  45.2783903   3.4382689  18.0870090
  45.3818067   3.1033624  18.9777313  45.8728155   4.1871941  18.0421959
  39.4275513  56.0716863   8.2664333  39.7071591  56.0423990   9.1814170
  38.8131276  56.8046041   8.2270895  34.0012383  34.7976804  66.6188908
  34.6912813  34.2068601  66.9205523  34.3510890  35.6746531  66.7762232
  53.7352616  73.2690049  35.1093292  53.9649255  73.2067390  34.1821766
  54.5382554  73.0287827  35.5716419  68.8401461  47.8292704  56.7990303
  68.0902529  48.0392647  56.2424374  68.4519148  47.5046301  57.6115084
  62.1638448  74.6217937  58.4055519  62.8854043  74.1760964  58.8493156
  61.6817052  75.0561900  59.1091681  61.5863800  10.7319021  47.3515987
  61.5773392  10.4951763  46.4241743  61.0948515  10.0324225  47.7821350
  75.7690716  14.3105912  65.0910711  74.8500395  14.4648170  64.8723793
  76.2459707  14.9899888  64.6144009  26.4466420  40.8212256   3.8202034
  26.7465344  40.0505099   4.3021713  25.5588284  40.9752007   4.1431556
  65.0550556  44.7675323  55.5984545  65.2535200  45.0181150  56.5007067
  64.6089458  45.5303669  55.2306223  73.8098001  39.8167944  60.3381824
  74.5177650  39.5922160  60.9419870  73.0341721  39.8883224  60.8945227
   4.8642210  63.5024912  44.9749851   4.0371661  63.6704512  44.5233250
   4.9391417  62.5483544  44.9905729  74.8624420  56.9424009  37.7770305
  75.4760885  57.2869205  38.4258604  75.0232935  57.4672461  36.9928765
  61.7688329  80.4591334  38.8644552  60.9570081  80.9574006  38.7700534
  62.0356709  80.2636076  37.9662395  11.7897794   6.9514513  49.9573278
  11.9544313   6.5791565  50.8236551  12.4015710   7.6846683  49.8915052
  55.2206087   9.7318274  38.3946180  55.0768948   8.8413316  38.7149239
  54.5312881  10.2499640  38.8100767   4.3271024  72.3884977  47.8809881
   4.0954978  71.5580924  47.4650335   4.7537977  72.8926195  47.1881485
  57.2222096  80.8476589  46.2189245  57.7943379  80.5970600  45.4935932
  56.4519174  80.2879697  46.1207771  86.1820984  12.9526758  29.3480492
  86.4072609  13.8019300  29.7279215  85.3289223  13.0926549  28.9372826
  59.7120953  19.3103492  32.0165825  60.1756430  18.7229156  31.4196944
  59.9566555  19.0056992  32.8904319   7.9932680  54.0305157  14.5539985
   7.8173724  53.4634133  13.8031994   7.4496642  53.6735399  15.2563511
  32.7824631  72.9901655   7.2933803  32.6598587  72.2996481   7.9448305
  32.3517933  73.7563308   7.6725135  79.2671156  13.7980449  69.5091534
  79.1690159  14.7216356  69.2776680  78.6185980  13.3457148  68.9696598
  75.4170418   1.6833934  52.9325676  76.3014507   1.8792740  52.6232433
  75.1778793   0.8754952  52.4783278  79.2653656  59.1186714  42.5355721
  79.6214294  58.2872534  42.8489304  78.6915588  59.4149685  43.2421017
  83.6260319  19.6816969  46.4312840  82.6800823  19.5516598  46.4983320
  83.8738823  20.0735044  47.2687149  61.5953296  65.1579268  14.9851547
  61.4685934  64.4224532  14.3857799  60.7375567  65.2878530  15.3895984
  41.4011383   2.3496293  48.8218403  42.1373940   2.7766335  49.2598200
  41.1680412   2.9451531  48.1096268  38.9446774  64.6738584   6.3398967
  39.0394059  64.1255219   7.1187292  38.2592430  65.3009708   6.5704141
  29.9388883  21.1102772  58.5027552  30.8723638  20.9027576  58.4605265
  29.5847413  20.4919481  59.1418791  81.7714746  68.1084640  34.5187116
  82.1510655  67.3077209  34.8805857  82.3919923  68.7969656  34.7577596
  64.2610645  23.4681702  36.2034464  63.6448956  24.1941810  36.1060905
  64.8376989  23.7376499  36.9183612   8.8986585   0.6038027  51.0255289
   8.7101648   1.0117473  50.1803732   8.7734983   1.3061401  51.6637182
  48.1042916  79.3164725  58.3267832  47.8566129  79.0085156  57.4549723
  48.7855250  78.7072624  58.6114120   4.2878148  38.1170058  44.3373489
   4.2672441  38.4523249  45.2336550   4.0012452  38.8547564  43.7989855
  76.2162971   8.1235623  43.4216833  75.9515190   7.3050100  43.8413191
  75.4234362   8.6598438  43.4211588   6.2239542  66.1180337   1.7427288
   6.1931649  67.0134099   1.4057050   6.9688120  65.7185085   1.2935100
  68.1268787   8.3132041  57.5275993  68.3325815   7.4722195  57.1193552
  67.4973488   8.7206286  56.9326830  34.4828453  35.6222923   0.1969848
  34.4846478  36.2619801   0.9090410  33.7078133  35.8417232  -0.3201451
   5.2541525  69.1689916  48.0734873   4.7445352  69.5335491  47.3498726
   5.4882080  68.2879396  47.7816057   8.4866235   2.1122295  60.0969505
   8.0980680   1.6881725  59.3318176   9.4277284   1.9675566  59.9988461
   5.4347799  26.7709160  49.9018621   4.8810289  26.0640049  50.2333212
   6.3282487  26.4425492  50.0025320  76.3025713   5.3087825  25.0094604
  76.2583303   5.3664804  25.9638953  75.6830454   4.6153179  24.7824621
  57.2212267  12.1106279  34.1402912  56.5781498  11.9605136  33.4473610
  58.0428839  11.7757642  33.7811518  65.4099607  26.6821837  68.2522440
  64.7663593  25.9755397  68.3038712  65.8442259  26.6734123  69.1052198
  16.9396016  15.4813182  47.1072721  16.9678686  16.3184881  47.5705004
  17.3694894  15.6561732  46.2701082  79.4339228  20.1844716  38.1894565
  79.4826603  21.1147475  38.4095550  79.8573494  20.1183462  37.3335552
  65.0489521   5.0176805  35.2081633  64.4330215   4.5968825  35.8079863
  64.6232319   5.8399904  34.9656749  50.7737214  79.0938787  42.4480438
  50.4926641  78.8770492  43.3369875  51.6817147  78.7941242  42.4040985
  86.5562820  33.8037491  26.9113851  87.0550919  33.8155842  26.0945153
  87.2124100  33.9409208  27.5946903  81.8427753  25.7356477  47.8831100
  81.8708038  25.8844280  48.8282633  81.1164188  26.2785196  47.5766277
  16.5359685  21.0362601  36.1177421  17.1486757  20.8444357  36.8276834
  15.7992265  20.4446316  36.2707949  77.2146082  17.6799262  27.6847267
  76.4268160  17.1767223  27.8906345  77.2954988  17.6193976  26.7328715
  33.8489435  24.0206313  38.0968308  33.0342195  23.7890410  37.6509356
  33.8021180  24.9707651  38.2030654  82.2809887  16.9881380  44.0446663
  82.0060635  16.4004445  43.3409166  83.0273914  16.5454304  44.4485521
  69.3767881  20.2140450  31.2472296  69.3587875  20.2584982  32.2032285
  69.8224878  21.0173774  30.9784555   0.3024671   3.5601184  26.3372111
   1.0934541   3.7775400  25.8439612   0.3401086   4.1230062  27.1104980
  64.0349627  52.0797157  55.1715183  63.4190035  51.7558193  55.8287239
  64.3574429  51.2906694  54.7360373  72.6941109  37.1862245  42.4480677
  72.8681850  36.5447569  41.7592669  72.1395350  37.8438592  42.0283175
   2.5323388  35.8354306  36.6082501   3.4259794  35.5085301  36.5044117
   2.0009134  35.0475979  36.7228770  32.9606390  14.0509784  67.4322033
  33.6157346  13.8724792  66.7575026  33.2565641  14.8624980  67.8446293
  83.8875866  26.3904977  30.6206059  83.4512234  26.0137892  31.3847446
  84.3335056  25.6496835  30.2100182  54.0077343  78.1793030   2.8920637
  54.6818581  78.3313759   3.5543762  54.2976704  77.3917969   2.4316249
  69.0889406  23.6425662  59.9978971  68.9311314  23.6668968  59.0541124
  69.2174625  24.5588994  60.2429485  76.3239717  16.5746748  45.9209728
  76.4708757  15.8502603  45.3127956  75.4498625  16.8976009  45.7021523
  62.4522543   8.4243816  63.8387918  63.3618593   8.3584899  64.1294813
  62.1830463   7.5184220  63.6871386   1.2711904  55.3332329  69.3933678
   0.5822561  54.7343636  69.6814108   1.3844392  55.9383202  70.1263571
  87.1239662  18.0088985  55.6806898  86.1854076  17.9184914  55.5158520
  87.4676132  17.1188986  55.6029797  79.6819973   5.0957638  58.1432533
  80.3583336   4.9432525  57.4833012  79.7056627   4.3142891  58.6954927
  71.9768953  27.9358792  44.7792721  72.6431274  27.2535753  44.6966219
  71.6163588  27.8134584  45.6574869  75.4858303  41.1297703  46.9985247
  75.0766611  40.4413748  46.4741898  76.1331129  41.5236044  46.4135885
  80.6234725   8.4386170  33.1071315  81.2386688   7.8100455  33.4848343
  80.4405292   8.0981124  32.2314487  83.9861472   1.6805041   5.3928457
  83.7156471   0.7660067   5.4750095  83.2506355   2.1094716   4.9555383
  16.4205358  15.0617433  17.4997962  17.0538614  15.5221081  18.0504215
  16.3887212  15.5739391  16.6917884  78.9725828   7.0678711  61.1594677
  79.5671654   6.6942596  61.8099451  79.5473146   7.5170165  60.5396461
  35.6782761  63.0910404   1.6813694  36.4391651  63.2122810   2.2493301
  35.5245438  62.1462758   1.6853557  62.2413594  81.3024456  53.0255651
  61.7931134  80.7769778  52.3628473  62.7863748  81.9078224  52.5228691
   4.9212739  62.7615213  12.8694344   5.3224656  61.9317341  12.6111174
   5.3657243  63.4192228  12.3345268  55.9488542  74.9830951  67.1793365
  55.3982312  74.2971374  66.8018293  56.8354756  74.6238960  67.1461153
   1.9011209  41.0434818  54.1850948   2.8461549  41.1918736  54.1515112
   1.7646978  40.5504704  54.9941397  47.3599536  65.4320140  68.0692387
  46.4657313  65.1239808  67.9218817  47.2802026  66.0675151  68.7805796
  61.2756618   4.7443021   8.3834396  61.0965141   4.0918124   7.7063928
  62.1320041   5.1027072   8.1500612  53.6282063  10.2134335  34.3263721
  54.3061972   9.8767060  33.7405610  53.5269833  11.1309719  34.0731764
   7.1306798  36.7393088  70.2259922   6.2641046  37.1029353  70.0441742
   7.6724527  37.0339227  69.4939327  19.6311853  72.2270107  47.5594044
  19.3708608  72.2873020  48.4785509  18.9035508  71.7736912  47.1336269
  76.5413475  11.5896618  43.6609936  76.9269753  12.4627662  43.7331963
  76.1087084  11.4485252  44.5030975  41.9425049  46.4083298  14.5685516
  41.8129959  46.3907577  15.5167900  42.7770367  45.9597011  14.4324527
   5.1773736   9.3850917  24.3916631   4.7391698   9.6304399  23.5767961
   4.6692273   9.8191291  25.0769591  74.7690821   5.7530987  31.8208885
  75.2033710   6.5995932  31.9261098  74.5700407   5.4733163  32.7143860
  16.1406610  25.6732202  39.2664099  16.9965551  25.4964375  38.8759828
  15.5341718  25.6692052  38.5258818  28.4750745  30.8669782  36.2887573
  29.0728567  30.2390671  35.8830118  27.7944944  31.0092759  35.6308913
  70.2349710  67.2386265  44.0796900  70.2060699  67.6939344  43.2382059
  70.4734659  66.3387489  43.8570404   9.0577218  15.9491539  53.0642653
   9.8640058  15.8742487  52.5538445   8.6009405  15.1216352  52.9133081
  78.3863592  54.9483633  63.1860638  78.7140894  54.0496349  63.2193041
  77.6265383  54.9479151  63.7682199   9.8554513  36.3810873  30.3931499
   9.6250150  35.4590344  30.2793431   9.1456220  36.8599391  29.9652886
  48.2623631  70.8216102  64.1281796  47.5630719  70.8098025  64.7816944
  49.0528066  70.5971022  64.6191263  50.3550094  81.8186028  35.8460937
  51.2928408  81.7999728  35.6554161  50.0383966  80.9567936  35.5753933
  57.8345766   9.7659791  19.8509441  58.3695168   8.9722169  19.8543106
  58.2200800  10.3174937  20.5317150  66.2164663   0.9228528  11.0227237
  65.9223746   0.9371531  10.1119362  66.6899149   1.7472232  11.1345039
  75.9726470  81.0096343   9.3313442  75.6932967  80.9815128  10.2464424
  76.9220107  81.1241277   9.3741451  61.6360538  64.2067178  21.2341915
  61.0317247  63.6639650  20.7278000  61.2842815  65.0935157  21.1562572
  34.2195814  66.2776001  38.7290416  34.5611321  67.1092732  39.0575157
  34.9988537  65.7458599  38.5671173  51.8154495  79.1802867  20.9357868
  51.6337007  80.0926860  21.1610160  52.4662560  79.2314656  20.2357326
  35.6249397  81.9049342  17.4240623  35.7237911  81.4564546  18.2638965
  34.8696327  82.4799283  17.5470291  69.9044512   9.1506970  42.6064335
  69.7306071   8.6171687  41.8309627  70.4873966   9.8431027  42.2950111
  69.7970956  79.5208557  37.6331363  70.5297893  79.6015866  38.2437740
  69.0295594  79.7762688  38.1448780  23.0638107  31.5625728  46.5179954
  22.8812011  32.4995816  46.4479957  23.7265809  31.3969768  45.8475052
  84.4929784  71.5515144  18.3585296  83.6474078  71.9381936  18.1310974
  84.3626111  70.6095059  18.2496582  64.0339535  73.5631593   9.8620926
  64.8848622  73.1389029   9.7516666  63.5335677  73.3010800   9.0893303
  73.0445574   8.4046233  24.7509418  73.0242394   7.6372493  24.1791473
  73.6917816   8.9848864  24.3501602  27.4708064  13.4868873  62.0372139
  26.6273673  13.1041634  62.2787986  27.6073964  13.2125104  61.1304126
  74.5251744  45.7661750  12.6576934  74.6101325  46.5955754  13.1279216
  74.6256202  45.0961299  13.3338485  14.6505531   2.8524316  34.9166046
  15.0023540   3.6959422  35.2011524  13.8728031   2.7220023  35.4591213
  85.4603284  65.4866560   7.6084314  85.4693883  64.6598132   8.0905996
  86.1012595  66.0348971   8.0610595  82.8672062  21.7887080  41.1401306
  82.5326000  20.8919013  41.1374794  83.5871945  21.7775786  40.5094753
  80.7585900  74.6155985  56.6416965  80.9154218  75.1656516  55.8741794
  81.5202706  74.7637041  57.2021804  47.2496875   1.6221059  22.1302162
  46.8425973   1.0480082  22.7790104  48.0004581   2.0034421  22.5853668
  50.3859752  73.4606274  20.3167472  49.9593871  73.8667996  21.0712467
  49.9906056  72.5909074  20.2575431  19.3435510  15.1034224  27.5517307
  20.2200540  14.7702420  27.3594700  19.4025787  15.4283727  28.4501491
   5.8963378  48.7197936  31.1417614   6.6076644  48.1467975  30.8555542
   5.5294832  49.0699733  30.3299652  52.5117724  77.9976495  51.2064777
  52.4763172  77.1273096  51.6033111  51.6635268  78.0987127  50.7746254
  17.2385507  53.8389547  13.7953792  17.6851433  53.0688007  13.4437404
  16.7067724  54.1606553  13.0674015  53.7745111  63.8674672  36.5214000
  54.1428249  64.7110827  36.7838798  53.1907528  63.6267503  37.2407852
  17.3875554  46.0141719  37.1095310  16.7144378  45.8879531  36.4407955
  17.2664674  46.9169200  37.4038540  66.8569820  79.8824175  22.5659404
  65.9039705  79.8844059  22.4765144  67.0223969  80.3622706  23.3774887
  79.2848645  13.1143392   1.1591182  80.1902376  12.8038848   1.1469446
  79.3139874  13.9556134   0.7034383  46.0464287  72.0113850  35.9359765
  45.1809216  72.4200487  35.9249949  46.0347223  71.4463568  36.7085290
  16.4889749   3.8090146  43.4787021  16.2597783   3.4265340  42.6316963
  15.9712060   3.3135140  44.1132293  13.5111984  28.1031144  13.8654361
  12.7848132  28.6666596  14.1319214  13.5067352  27.3890937  14.5029197
  74.0432971  52.7043744   5.9597097  74.8573487  52.5481554   5.4810176
  74.3001693  53.2633563   6.6930519   0.1262339  37.0037234  49.9204002
   0.2386745  37.0035613  48.9698253   0.9799178  37.2690738  50.2625118
  17.6168664  17.2670377   6.5934740  17.4770864  17.5781930   5.6991182
  17.7082475  16.3182843   6.5054594  78.4657370  36.2084639  10.6030403
  78.5270892  35.2546895  10.6557689  78.0312000  36.4658368  11.4161621
  58.8583725  69.0578158   6.3351617  59.7507613  68.8987024   6.0276590
  58.3455699  69.1696270   5.5346809  42.5694095  12.8498567  14.3496738
  41.6404377  13.0773843  14.3112693  42.9913221  13.4633506  13.7481342
  83.1850999  25.8356305  33.3593498  83.9190524  25.4013713  33.7940441
  82.6626199  26.1971577  34.0752731  68.5246430   9.9970258  18.7479530
  69.4238423  10.2936709  18.6076866  68.2755362   9.5875276  17.9194008
   7.5248917  20.0648177  23.6121975   8.4751471  20.1721204  23.6538158
   7.1908172  20.6106484  24.3240200  26.9557603  44.3454421  13.4210525
  27.2040399  43.4909785  13.7738643  27.3381503  44.9765933  14.0306888
  82.9978602  70.6503423   5.6316839  83.2639449  69.9079092   5.0892625
  83.6722796  71.3122614   5.4791866   3.3247080  48.7968768  25.2769790
   4.0422907  48.9606406  24.6650253   2.7235594  48.2291336  24.7947822
  79.2128955  19.4876254   8.4019838  78.5514651  20.0069440   8.8592039
  80.0421654  19.7512353   8.8008056  37.9741502  70.2839804  60.9320259
  38.2171822  69.4990301  61.4229631  37.1669292  70.5863953  61.3481617
  82.5372260  62.9014118  36.3554798  81.9792312  62.4993928  35.6897007
  82.5522321  62.2658236  37.0710407  64.1080569  10.9711087   5.1652132
  64.4790410  11.6254390   5.7572065  63.6048047  11.4806474   4.5301281
  55.1264073  24.6084178  26.8083606  54.9083380  23.6764968  26.8225036
  55.6723623  24.7148478  26.0293613  16.9754918  30.1973737  15.9045730
  16.4737876  29.9638522  16.6855941  17.1959480  29.3576014  15.5015693
  79.7109209   2.9802955   1.5178905  79.4812094   3.3369458   2.3759494
  78.9184462   2.5298703   1.2257658  72.1909326  67.2135957  56.1702190
  72.1295302  66.6113122  55.4287849  72.5937169  68.0017670  55.8058296
  48.1891304  76.2903054  19.4923721  48.6440712  76.2802036  20.3344856
  47.3158150  76.6251357  19.6959434  27.9977020  10.8221400  47.4807487
  27.6849969  10.0979627  48.0229793  28.9089092  10.9446586  47.7470527
  20.6866105  12.0927394  40.8896385  21.1939748  12.7132667  41.4128624
  20.1087793  11.6636432  41.5206848  20.0493415  19.7008431  18.7897144
  20.2913411  19.0436900  19.4422565  19.4003995  19.2634356  18.2385479
  35.5310186  25.2515805   4.6202264  35.5784448  26.2074674   4.6365724
  36.3008388  24.9821151   4.1192279   0.9927805  21.6893781  18.6906658
   1.4792999  20.9380973  18.3513866   0.0881275  21.3821614  18.7494217
  10.8423796  57.3872037  22.9068599  11.7716685  57.4767800  23.1181274
  10.3948202  57.9193016  23.5647331   2.3500856  19.9032987   1.0825143
   3.2337244  19.9523318   0.7178054   1.8930419  19.2782891   0.5197464
  11.9944203  40.6229258  66.5633059  12.6397133  41.2200356  66.9418430
  11.2455153  40.6716633  67.1574450  39.5092090  -0.0903022  33.7347828
  39.6894010   0.8398736  33.5986553  39.1150840  -0.1329171  34.6060405
  29.3303814  78.2678683  20.3727470  29.1575947  77.3725303  20.0816284
  28.8313141  78.8168819  19.7679744  27.5377496  35.2912438  18.7360798
  27.3033937  36.2117589  18.6179481  28.1810888  35.2969230  19.4448219
  67.5857490  65.2419193  26.3437400  68.4262913  65.2715357  25.8867489
  67.7211135  65.7726105  27.1287761  55.6426495  78.0141957   7.8437744
  55.7367747  77.1755751   8.2955347  56.0317462  77.8668650   6.9817291
  56.7005968  57.8704214  60.2650118  56.5884447  58.7874269  60.5155277
  57.6473856  57.7600908  60.1775694  60.6737130  69.6613653  32.2584663
  61.2333792  68.8904198  32.1654640  61.2397664  70.3976281  32.0266758
   2.6138290  19.8034537  10.9757839   2.5267108  20.3341735  10.1839576
   3.1294378  20.3461421  11.5723262  14.7888549   2.8605140   1.4362226
  15.3309520   2.3529017   2.0401178  14.1923078   3.3494485   2.0030580
  19.8941222  49.3484391  33.4190307  20.2917900  48.6444797  33.9314113
  20.6198111  49.9407669  33.2221733  23.2814964  25.1575768  31.3820015
  23.8924106  24.4283355  31.4879642  23.5230239  25.7746613  32.0727287
  81.0040365  44.9010337  26.2404857  81.2109457  45.6986487  25.7534252
  80.1732312  45.0943244  26.6747985  46.7011642  67.1169567  70.2573109
  47.0528460  67.2237825  71.1411333  46.4140415  67.9948282  70.0060558
  55.7639497  70.0570043  19.4322239  55.9453242  70.8271273  19.9709640
  55.0177448  70.3139646  18.8905750  84.1350644  64.2511256  14.8386036
  85.0501197  64.5236524  14.9066673  83.7220042  64.5994885  15.6287037
   2.9742392   2.8700602  16.7835937   2.0542439   2.8174127  16.5246139
   3.1173452   2.0896876  17.3191105  80.5735057  58.5248061  34.5700012
  79.9967473  59.0032001  35.1655899  80.3946727  58.9022310  33.7087284
   0.1773580   5.1234878  43.6636100   1.0668906   5.3959477  43.4383808
  -0.2220503   5.9038222  44.0480362  67.2197788   1.9848852  60.9793711
  68.1174152   1.6547518  60.9406948  67.3162263   2.9212313  61.1531162
   1.5866860  15.9081853  57.3547683   1.2292417  15.2447331  57.9449402
   1.8735083  15.4153264  56.5859638  26.1658796   1.0681689  29.2907940
  25.4124530   0.6090510  28.9195858  25.8403762   1.4382518  30.1113544
  77.3542975  15.5257762  24.0135227  77.5786422  15.0093854  24.7876297
  77.5161408  14.9361051  23.2770954  56.5492480  64.7787054  32.6203952
  56.4397877  64.0600641  33.2431350  55.8257597  64.6726568  32.0027004
   5.7514294  23.7918485  17.7571235   4.9790271  24.0032351  17.2327743
   5.7648047  22.8352750  17.7890239  30.2424177  30.6133855  28.7079178
  30.2626403  30.9362853  29.6087871  29.6637138  31.2217725  28.2483516
  75.5435937  66.8229444  15.3651939  74.6367734  66.7926462  15.0602470
  76.0122531  66.2251742  14.7827373  80.9054099   5.8603633  36.4758907
  80.6036864   6.7378247  36.7109523  81.6496836   6.0111154  35.8931671
  52.9159730  55.4932709   2.5588928  53.2594698  55.8582480   3.3743892
  51.9674271  55.4741176   2.6858745  33.7158903  28.4054006  14.2684017
  34.0838226  28.0322564  13.4673916  32.8249725  28.6590445  14.0272270
  22.8149834  72.5169929  40.5715595  23.0653897  73.0484803  41.3272319
  22.9310265  71.6133841  40.8652530  56.7259758  74.8240836  20.4735885
  56.8146437  75.0123723  19.5392929  56.0175531  75.3969415  20.7671867
  25.3051170  26.5998805  16.9635902  24.3858369  26.3782800  17.1120964
  25.2785476  27.4486411  16.5218578   3.8275631  15.2218402   7.8614460
   3.2794817  14.8848498   7.1527324   3.2622321  15.8357442   8.3302246
  16.7501815   1.4724315  33.7947593  15.9163411   1.7420352  34.1797863
  17.3925813   1.6166175  34.4895683  26.4372619  34.6133578  35.2364383
  26.7492231  34.9183715  34.3844543  25.5971082  35.0560582  35.3563915
  11.5308078   3.0688441   0.6859289  10.8983358   2.8561700  -0.0003542
  12.3721870   3.1111300   0.2314745  22.9281282  14.2531586  35.9520340
  23.1342626  13.8313901  35.1178575  23.6472106  14.0017843  36.5316582
  82.1738730  16.4729703  12.5407348  82.5655137  17.3426927  12.6209102
  81.2972008  16.5698588  12.9126106  61.0965254  20.4581308  52.3870373
  61.1514642  20.1198769  53.2807922  61.2440040  19.6925592  51.8317175
  64.6866768  55.5962141  27.4941478  64.5035213  54.8143847  26.9731651
  65.1167219  56.1953302  26.8839393  47.7077740  12.8262885  11.4423309
  48.1722825  13.3746918  10.8101020  46.8868356  12.5997694  11.0053192
  54.7179025  33.4629615   4.2942749  54.2218297  33.6464943   3.4964929
  55.5086821  33.9960887   4.2125784  27.4626335  66.4779075  12.7117096
  27.1387029  65.6982501  12.2606693  28.0760771  66.8748196  12.0933471
  31.5350103  72.9845333  57.1580124  31.6428351  73.9336777  57.2191095
  32.2901607  72.6271296  57.6251793  14.9960502  11.8919194  15.4118572
  14.2466052  11.4031756  15.0717197  14.9168809  11.8203938  16.3630996
  75.7695477  55.8804412  19.2618786  76.1532586  55.0066348  19.1880069
  74.9364131  55.7389517  19.7114406  34.3546057  17.4493420  40.3531313
  33.9730597  18.3241761  40.4260731  35.1747346  17.5040686  40.8436632
   5.5606556  33.3342600  69.4334269   5.5030221  33.6037683  68.5167599
   4.6600097  33.3816433  69.7540855  30.2643920  72.0842083   4.7996174
  30.6222897  71.1984022   4.8586641  31.0333852  72.6482566   4.7175680
  18.2723015  51.5013798  12.6894127  18.8763934  51.7989023  13.3696972
  18.7445586  50.8008821  12.2394024  64.3872564  44.3156398  10.2264820
  64.2561267  44.2364562  11.1713443  64.3310414  43.4173167   9.9007545
  46.0046595  63.3813627   3.4638725  45.2555244  63.5996850   2.9094682
  45.7603353  63.6996921   4.3328939  77.6927560  66.4903171  24.8853241
  78.0459636  66.1827095  24.0505443  77.2042125  67.2824057  24.6613727
  47.5827604  55.0746282  20.3914390  46.6353434  55.1060696  20.5242668
  47.8822284  54.3715747  20.9678589  21.0820341   3.0116114  59.8329973
  21.1456943   2.1407944  59.4407511  20.6293321   2.8674880  60.6639719
  51.9654696  75.0991614  10.1775013  52.7086370  74.4961651  10.1592479
  52.0073836  75.5047949  11.0434948  76.3601916  59.1835649  20.9772049
  75.4460280  59.3165524  20.7265125  76.8054336  58.9730247  20.1564346
  79.9242439   2.1920303  48.9259243  80.6100979   1.7624468  48.4147549
  79.1954746   2.2911577  48.3133078  51.1180559  73.2497008  70.2957630
  51.5546128  74.0994741  70.2363110  50.4915497  73.3518912  71.0121965
  68.4047899  77.7931545  63.1931210  68.9153311  78.3390571  63.7910938
  67.5445637  78.2118113  63.1619740  15.6069314  53.9561653  59.2098856
  15.4282129  53.9190292  58.2702541  15.9999430  54.8184347  59.3450451
  36.5133842  11.1738265   6.6781030  37.1604427  10.7326091   6.1277662
  37.0324310  11.6201032   7.3471771  72.1960831  27.4574447  70.8187246
  72.5084019  27.5337410  69.9171305  71.6143894  26.6973591  70.8071852
  60.5596113  38.6157107  67.9158974  60.0273609  39.0711951  67.2636127
  60.0693941  38.7092638  68.7327003  70.1306718  64.0352829  29.5882259
  69.3364995  63.6828430  29.9898658  70.3677218  63.3912213  28.9209781
   7.9206648  76.2972553  43.5736118   7.4519387  76.7186029  42.8531967
   7.9536906  76.9635423  44.2600475  75.2567189  50.5680330  27.8147064
  75.9082406  51.2690933  27.8310142  74.6231978  50.8451559  27.1528278
  41.7762852  46.9611597  71.2362623  41.6133785  46.4201164  70.4636288
  41.0838699  47.6217651  71.2163877  36.7273736  13.2924998  67.9244900
  36.5597367  12.3942709  68.2096434  37.6811790  13.3527565  67.8710365
  45.7328558  14.4262147   0.9064741  46.3497496  14.3752456   0.1763542
  45.4596710  13.5205841   1.0528799  41.6501808  26.8937588  60.0719261
  42.2330284  26.9569063  60.8285856  42.0479345  26.2215185  59.5186472
  80.0620788  76.0262378  10.2446972  79.8333447  75.3485830  10.8808551
  81.0102265  76.1253722  10.3308235  33.4374189  61.0214090  70.3216743
  33.5356379  60.0697470  70.2911472  34.3065786  61.3443947  70.5593109
  34.6477675  17.0091593  59.2526150  33.9627051  16.6806376  58.6703825
  35.1780820  17.5823176  58.6989975  58.7928169  29.0791221   8.7566791
  58.1043880  28.4178980   8.8279424  58.3552044  29.8403938   8.3756385
  77.2547191  52.0460816  16.0241352  77.6963752  51.4250739  15.4448925
  76.4444011  51.6034885  16.2765823  67.8037494  11.0685186  65.7774401
  68.1634133  11.7090445  65.1637602  68.4438675  10.3568678  65.7834005
  42.8737848  34.5279880   7.9175840  42.5183707  35.4119368   8.0100332
  42.8723042  34.1749771   8.8073097  87.2092956  46.0997237   5.0348077
  86.2624686  45.9829249   4.9566541  87.3224538  47.0361133   5.1979051
  44.4871741  67.1717985  16.6467605  43.6768096  66.7823871  16.3182865
  44.2423742  68.0645497  16.8902813  21.3648542   9.1880095  17.5639949
  21.0194572   8.6958278  16.8192230  20.6997999   9.0895093  18.2453380
  57.8971737  54.3452783  22.7816997  57.1344989  54.3969520  22.2056041
  57.6968329  54.9467857  23.4988342  52.4065583  56.9963749   7.8318534
  51.4561599  56.9000729   7.7710138  52.5995939  57.7886363   7.3305641
  23.1402111  14.6923709  66.4468098  23.7058926  13.9630580  66.7004585
  23.2894516  15.3565264  67.1197557  75.2528232  68.4799416  18.6684929
  75.6507581  69.2145737  18.2013736  75.7121509  68.4527643  19.5078407
  26.9749093  51.4821863  70.7247019  26.4759851  51.5807152  69.9137783
  27.0529819  52.3724651  71.0675526  43.7314039  81.7546494  16.1158023
  44.6260958  81.4606460  16.2870250  43.4562390  81.2509568  15.3497635
  20.3494247  15.6119597   8.1921516  20.8087285  15.0050319   7.6117120
  20.2052148  15.1121390   8.9956508  75.7431232  21.4572061  14.8560653
  75.2926134  20.6228650  14.9870239  76.4801489  21.4297927  15.4662071
  69.7847986  50.9662485  55.6106615  70.4796410  50.3083563  55.6353140
  70.1381111  51.6673708  55.0630951  19.1377854  42.0692444  62.7762127
  19.6014345  41.3518095  63.2081223  18.7785995  42.5894022  63.4949970
  48.4367841  71.1510833  26.3708625  47.7448719  70.5270584  26.1515747
  48.1033617  71.9951280  26.0664783  18.4509456   9.9334681  68.6665535
  18.5601521   9.5259619  69.5257616  18.8481474  10.7993472  68.7599087
  20.3208526   8.6177457  23.2847248  19.6930011   8.9881146  22.6643596
  19.7938140   8.3863700  24.0495334  20.9653378  28.4289479  66.7928123
  20.0271630  28.3613062  66.6153717  21.0369229  29.1320872  67.4383354
  22.6373180  10.0976909   2.7667127  22.2565301  10.5051101   3.5446869
  21.9555982  10.1728261   2.0989977  52.6710837  51.3622864  14.6295295
  53.1207221  50.5189110  14.5768676  51.7745369  51.1404379  14.8809658
  76.3744109  76.5998991  22.0319114  76.4100020  76.8024095  21.0970531
  75.9688275  75.7339032  22.0741115  74.3163477  12.9856074  25.7992397
  73.7036847  12.7205241  26.4852558  75.1165937  12.4965680  25.9907661
  69.3786281  48.0092223  34.7088180  69.7968524  47.8509052  35.5551372
  68.4515040  47.8269972  34.8619877  13.8423284   4.3489707   5.3654371
  12.9628404   4.6188796   5.6297861  13.7679990   4.1766799   4.4268070
   4.8774179   2.1689618   3.4383808   4.3395170   1.6303170   4.0186916
   5.7653292   2.0813716   3.7850366  71.6870444  74.2292936   1.9311033
  72.6362412  74.1615327   2.0344005  71.5138286  75.1706346   1.9208513
  28.4027370  12.4298490  14.7466980  28.2807430  11.8363154  14.0057026
  29.0910848  12.0203078  15.2708088  35.9232807  53.1839848  67.8136349
  36.1820912  53.6823654  67.0384789  36.7499447  52.8907013  68.1968355
  30.6453276   3.2941207  58.1664181  29.9789524   3.3755380  58.8487291
  31.1724257   4.0886962  58.2503843  16.1148389   8.6506141   7.3626695
  15.7730087   7.7572453   7.3268448  16.5047344   8.7926448   6.5000950
  35.5789447   2.8375137  70.5326033  34.9903941   2.1356167  70.2547932
  35.1585221   3.6394989  70.2222872   6.5371021  36.8489087   2.8035532
   6.5296753  35.8987248   2.6881157   5.6400164  37.0664323   3.0568395
  28.4804424   9.9127686   8.4657369  29.2678579  10.4227460   8.6558090
  28.7688526   9.2529405   7.8351198  18.3838165  75.5316210  47.7500582
  18.6180663  76.0839748  47.0042276  18.8503802  74.7102118  47.5956583
  32.4611750  51.3834782  25.8478580  31.6761076  51.9248028  25.7649742
  32.1834915  50.5133839  25.5613933  80.8352893  59.3222542  13.4025512
  79.9349063  59.2958839  13.7263523  81.3590138  58.9699061  14.1221271
  67.9313534  81.8985017  38.2655750  67.7553385  81.5567573  37.3889576
  67.9094928  81.1272986  38.8321434   1.9770773  27.3828423  14.3767772
   2.5268229  26.8236936  13.8278041   1.6696175  26.8049252  15.0751339
  80.6749044  13.5783732  14.9675022  81.4448725  13.8114417  15.4862152
  81.0321914  13.2552636  14.1403518  64.3736094  46.4452894  14.3093620
  63.6802977  46.6537996  13.6831985  64.6808570  45.5777164  14.0463958
  63.9332383  77.2797401  33.5333667  63.6442225  76.3672312  33.5277210
  63.8716023  77.5448330  34.4510589  63.7268686  42.5406456  52.2804642
  63.9489222  41.7687321  52.8011131  63.8055372  43.2727814  52.8920317
  27.4849923  25.9213460  35.2122245  28.2316144  26.4807904  35.4262481
  27.7635463  25.0419867  35.4678856  59.8697966  79.1518028  65.8630977
  59.4769686  79.6334346  65.1351200  60.6083124  79.6947916  66.1387573
  35.2791148  81.4210065   1.8170152  35.9268444  81.5327867   2.5128494
  35.7970970  81.3686021   1.0137830  64.4194459  30.8880198   4.3275056
  65.1783054  30.9661782   4.9056516  64.5992045  30.1096213   3.8002382
  76.1817782  61.0249455  37.1453033  76.3884395  60.1276954  36.8836532
  77.0083135  61.4983829  37.0508323  34.5699739  37.5086188  66.9216156
  34.1954660  37.9376817  67.6909590  35.5157876  37.5433517  67.0646620
  24.6250995  18.6503947  21.7826877  25.1548751  19.4400704  21.8921409
  23.7586244  18.8964761  22.1065651  16.1561298  47.7032852  64.8506975
  16.8062973  47.8677702  64.1677189  15.5274200  48.4193802  64.7603273
   1.3516506  17.3361457  16.6761718   1.6639980  16.4449609  16.5197788
   0.4326375  17.2283042  16.9211612  45.7871287  52.4741478  19.7854458
  44.8732977  52.6562603  19.5664058  46.0252898  53.1602676  20.4089485
  75.5613421   5.8606732   2.2783266  75.0135265   6.6418851   2.3547540
  74.9895619   5.1403010   2.5435768  34.3360221  75.9931214   1.0795389
  33.6006700  75.6668194   0.5608736  34.9850886  76.2646301   0.4305206
   0.9820088  15.2663625  29.6275745   0.9332856  15.4366458  30.5682502
   1.5718683  15.9415019  29.2921959  10.8456453   1.3504708  27.0925651
  10.1218422   1.2118686  27.7034031  11.6242250   1.0774482  27.5778518
  27.3736604  26.3623822  15.0772415  27.0554193  25.5048526  14.7951065
  26.8154558  26.5925277  15.8199821   9.3538197  25.0790704  19.3198047
   9.1167148  24.2055142  19.0084873   9.6897205  24.9350608  20.2044902
  12.9088202  52.9702635  34.0418754  13.2171479  53.7904890  34.4270931
  12.6774683  53.2003458  33.1419979  79.7450297  61.0201092  10.3052555
  78.9705651  60.5483039  10.6115947  79.7995227  60.8111103   9.3727432
  22.6594098  18.9299882   0.6385599  22.4674877  19.8534453   0.8017288
  22.2633108  18.4687674   1.3778911  81.9922727  57.6069935  10.8149944
  81.5399974  57.9154237  11.6002021  82.9202168  57.7498420  11.0013996
  68.1829374  65.7750853  10.6365142  68.7169116  66.4639838  10.2408920
  68.8051956  65.0767453  10.8398471   9.7657665  24.0655911  21.8518386
   9.9079402  24.0597833  22.7983986  10.3334483  23.3699477  21.5200935
  10.3947711  48.2931709  65.7797194  11.2511194  48.4406567  66.1811495
   9.7664690  48.5303402  66.4617872   5.3540381   8.6079848   6.6088043
   5.8270963   9.3857634   6.3129840   5.7613142   8.3837426   7.4455057
  65.9204357  76.1064537  27.9029594  65.3221195  75.7234128  28.5444675
  66.2193435  76.9196423  28.3099113  42.7018642  10.4079187  64.7037935
  42.0465374  10.8102882  64.1338158  42.9642105  11.1095583  65.2997017
   2.0846882  57.9643043   8.5856567   1.9099703  58.5532053   7.8515611
   2.6788178  57.3047908   8.2274852  23.6898422  70.9474754  43.8945627
  24.2767715  70.3352308  44.3383026  22.9105520  70.9771395  44.4495916
  68.9721029  48.5240378   5.3087555  68.0499237  48.2825191   5.2222381
  69.4061177  47.7169980   5.5854355  13.8938165  41.2358761  51.4823484
  13.2490873  40.5303001  51.5344906  13.4521341  41.9928408  51.8672562
  64.2744391  76.9315846  12.2157035  63.5152786  76.8468984  12.7925430
  64.9901097  77.1872385  12.7976738  71.3273989  40.4686988  18.0876194
  70.8519958  41.2309802  17.7572475  70.7418941  39.7302020  17.9201542
  57.4382751  65.0719769  29.0891300  57.2013228  64.1827901  29.3526302
  57.2596138  65.0988634  28.1491409  47.1333075  39.4643235  62.9365396
  46.8635607  39.2095065  63.8188887  47.5108528  40.3373003  63.0442429
  16.1237040  38.6117718   6.9980798  16.3680449  37.8197159   6.5193592
  15.5390110  38.3026301   7.6900325  20.6261640  66.9534715  10.0012241
  21.3818305  66.5517838   9.5724426  19.8732256  66.6475757   9.4955097
  80.6018918  80.3174408   9.6310936  81.4206403  79.8342236   9.5197807
  79.9239009  79.7124274   9.3302379  46.1973763   9.0157157  70.6171513
  47.0527458   9.4364733  70.7039833  45.8931255   8.9035040  71.5177488
  69.8344360  18.7562526   1.3757787  69.8075162  19.7107566   1.3092456
  69.4788896  18.5665572   2.2440134  13.8651600  57.9057105  12.4938045
  14.1510334  58.1124516  13.3836208  13.4113684  57.0670124  12.5768123
  15.7773908   2.5799525  45.9450851  14.9447091   2.9733670  46.2060485
  16.1562332   2.2567904  46.7625652  52.4635744  29.4842434  57.0196104
  52.0997429  29.2451596  56.1671448  52.5421715  30.4376745  56.9876003
  57.3937004  80.2364643  31.8706070  56.9912189  80.2438100  32.7390419
  58.1815308  80.7714613  31.9672142   4.0418204  21.8467629  25.5571876
   4.9731668  21.9985974  25.3966556   3.6612090  22.7236474  25.6065403
  35.6180560  47.9209145  17.4025093  35.4556447  48.0154778  16.4639316
  36.5653532  47.8017981  17.4708496  30.0139793  10.5948794  31.2800251
  30.3627332  11.2560571  31.8778930  30.7824071  10.2620995  30.8163295
   3.5224947  24.1333222  61.8300056   3.4541330  24.9397922  62.3410511
   3.0325517  23.4860921  62.3372364   8.2428628  37.5939608  52.4555445
   8.4937209  36.6914153  52.6523018   7.7099705  37.5271297  51.6632080
  60.0343483  69.8865588  20.6108318  60.0196927  69.1358049  20.0172172
  60.3149145  70.6196268  20.0629936  84.6728621  27.5800670  20.6393943
  84.3626843  26.6749251  20.6123100  85.4586731  27.5477469  21.1850010
  41.0706943  67.9846437  23.2589565  40.4644983  67.9555614  23.9991699
  41.5713375  67.1716745  23.3272968  12.1382602  10.8324874  24.5781646
  11.3671478  11.3543666  24.3562351  11.8441709  10.2599299  25.2866302
  83.2653891  44.1177619  19.8324810  83.7943970  44.7918380  20.2590881
  83.2651864  43.3867419  20.4504142   6.6492685   5.2358354  10.8981166
   7.3188003   5.8870137  10.6885276   5.8275135   5.7266629  10.8918415
  12.2571834  15.3392470   1.9247327  12.4777778  14.4614852   1.6131197
  11.4236387  15.2285827   2.3821054  40.1747322  50.4715824  66.3554382
  39.7897100  51.2418461  65.9374857  39.6278954  49.7422075  66.0635233
  80.4064506  63.7151750  24.6341930  80.7944577  63.5687550  25.4968868
  81.1475986  63.6814483  24.0293823  69.4840799   2.7454436  17.9577671
  68.6652802   2.2986377  17.7429138  69.5117937   2.7476895  18.9145599
  17.6709541  19.1987479  29.6460376  18.4448369  19.7505200  29.7595440
  17.6937469  18.5980428  30.3909240  25.8545753  64.4648607  14.2430149
  25.9954991  64.7991164  13.3572136  25.9359988  63.5150726  14.1563926
   4.0341624  29.0451157  22.6229988   4.8950728  29.4084657  22.4155269
   3.8719996  28.4034980  21.9314323   2.6354113  79.4769366   8.9184032
   2.5858679  78.5216554   8.9532409   3.5731783  79.6674474   8.8952432
  70.3587192  72.9167612   6.9534240  71.2238734  72.8723629   6.5462814
  69.8993629  72.1440061   6.6246830  53.5715199  71.0263348  59.5098019
  52.7899075  70.8017874  60.0146675  53.4154940  71.9228411  59.2128849
  18.5544952  30.0689471   0.8184229  18.9463361  29.5984328   1.5541587
  18.1888040  30.8625853   1.2091146  15.0660026  55.4528952  65.3052998
  15.7787180  55.2810526  65.9207153  15.1954579  56.3625097  65.0368357
  51.7851584  48.8348992  19.4567142  51.6372078  48.8877489  18.5124908
  51.8777102  47.8985621  19.6326099  63.9058035  64.3509968  18.7561832
  63.0309337  64.1781457  18.4083877  64.5002311  63.9748438  18.1070362
  16.0028067  70.3759439  19.4872604  16.5884486  71.0825069  19.7593341
  15.6516161  70.0270803  20.3065239  61.7616289  73.0767162  31.1213813
  61.9351666  72.4447306  30.4237304  61.2090152  73.7414749  30.7103477
   9.0787831  22.1701045  17.5073848   9.9474135  21.7712625  17.4560104
   8.5322895  21.5015145  17.9203830  42.5351715  29.1701794  68.8556147
  42.9513979  28.8126206  69.6399212  41.6728592  29.4602180  69.1531563
  41.4354086  44.4843626  62.0915413  42.2749376  44.4832277  62.5513458
  41.6700697  44.4450474  61.1643839   7.3666414  21.6319478  38.0290352
   7.3980292  20.7629502  38.4291492   6.7511662  22.1238196  38.5726200
   4.1143497   6.1839021  11.4552723   3.8926943   7.0728457  11.1780010
   3.2806595   5.8050406  11.7339454  27.8208494  70.7353020  55.1199102
  27.9093957  69.8277569  55.4110289  28.5062504  71.2066936  55.5934620
  22.7098592  17.6879657  48.1731544  22.6906665  16.7476476  48.3511005
  23.4198411  18.0211366  48.7219272  25.3764709  18.3786452   0.1662002
  24.4551643  18.4751046   0.4072843  25.5471929  19.1114104  -0.4255309
  69.4630432  22.9257488  69.1787720  69.0628242  22.5376558  68.4006691
  70.3957605  22.9746246  68.9692879  22.3138841  19.4605887  22.4871097
  21.9179662  18.6366523  22.7710281  22.1558317  20.0647605  23.2125316
  74.1444152  55.5145760  27.6586090  73.3784144  55.6991144  28.2021366
  73.8002103  55.4710300  26.7664943  45.3426176  60.4818471   5.5028616
  45.6592184  59.7363909   4.9926744  46.1274760  60.9991987   5.6833492
   3.6464747   3.3925927   9.0343605   3.4644040   2.8099502   9.7716556
   2.8700264   3.3254493   8.4786163  18.3905490   7.7523816  25.0408874
  17.4393066   7.8586209  25.0496517  18.6225828   7.5964606  25.9563575
  68.2723682  60.8684011  28.6915908  69.0882342  61.2590249  29.0046631
  67.5896519  61.2875922  29.2154346   6.2294944  25.3167355  13.5577713
   6.5612276  24.9602044  12.7337108   6.6576584  24.7929681  14.2349563
  54.0294092  62.0676549  16.4978157  53.4801810  61.6235526  17.1438442
  53.9866941  62.9921563  16.7421566   8.2851496  26.3114055  35.5782257
   8.1590405  25.9176059  36.4415012   9.2147055  26.5382572  35.5519329
  81.4784336  47.6538229  50.0389004  81.4506531  48.2814264  49.3166971
  82.3397732  47.2427177  49.9659538  20.7189973   7.9180539  14.7796760
  19.8762020   7.4645198  14.7643219  20.5958923   8.6718429  14.2027126
  55.6137562  38.4746456  58.3097839  54.7671843  38.8268757  58.0350399
  55.6815004  37.6337767  57.8574753  11.1976206  22.2899342  45.7380056
  10.5835533  21.5635967  45.8456612  10.6774533  23.0724168  45.9207010
  62.6260489  76.3072188  10.0383697  63.1323379  76.5676125  10.8078514
  62.9245656  75.4186137   9.8447166   4.9546225  73.4770329  56.6180182
   5.5489571  73.6461676  57.3490381   5.3927309  73.8621814  55.8590984
  26.2573075  48.7972307  70.9875345  27.0110703  49.3846273  70.9323597
  25.5071092  49.3804407  71.1028624  22.9731321  53.4413910  61.4009237
  23.4693742  54.1707802  61.0294867  23.0963731  53.5247517  62.3464918
  32.2262549  52.3853731  64.2516899  32.6677608  51.5428925  64.1442776
  31.8739748  52.5835085  63.3840084   4.5495351  26.4243234  17.3937164
   3.9958485  25.7512105  16.9980083   5.4431327  26.1543048  17.1820484
  61.0079687  79.3764575   3.3798872  61.7045348  79.9953564   3.5989557
  61.4580315  78.6551316   2.9401527  65.5070476  16.5716374  11.9358574
  66.2239634  16.0985864  12.3583351  65.2033578  17.1897519  12.6006446
  24.4944215  44.1997862  64.9776220  24.0413570  44.9802732  65.2966976
  25.1854992  44.5396090  64.4091463  85.3935300   9.5951808  20.9838710
  85.7644473   9.8846114  21.8174682  84.4473039   9.5996392  21.1283336
  17.6946815   1.1643804   4.9762331  17.8853973   1.7249072   5.7283435
  17.5627025   0.2944863   5.3531824  42.3944505  12.7603209  23.5006080
  42.4901327  12.3638022  22.6346717  43.1917461  13.2770837  23.6168323
  29.9526485   8.9181483   1.5821396  29.2772420   8.2587064   1.7408786
  30.1192459   8.8685906   0.6408487  37.3669553  35.8409595  67.1174812
  37.3482347  36.6319513  67.6561975  37.8562236  35.2062249  67.6408958
  73.0950206  79.4526084   9.4870315  73.8584321  79.5971449  10.0460849
  72.5765317  80.2520307   9.5782886  79.9202405  42.3894370  10.0043903
  79.0144311  42.5591147  10.2631412  79.8671804  41.6204226   9.4369159
  69.2966986  38.7258720  70.4133797  69.6121502  38.1424427  71.1035442
  69.2492294  38.1716561  69.6343899  39.9616416  18.8315309   4.5556436
  39.4414838  19.3268836   5.1883350  40.8164676  19.2622245   4.5588670
  70.2122377   1.9141782  31.7786155  70.2547561   1.0163510  32.1077476
  71.1053477   2.2458184  31.8713508  34.0153623  50.0926733  64.0113211
  33.9414454  49.1390753  64.0490437  34.4970822  50.3271246  64.8045492
   7.6313296  70.1548036   1.7257248   8.2060805  70.3003533   2.4771963
   7.6513472  70.9823211   1.2450491  62.6304882  78.3686026   7.8698097
  62.6505893  78.0223592   8.7619672  62.9399293  79.2703112   7.9558168
  58.7056296  60.1998063  19.4599853  59.0809744  60.6809099  18.7224899
  57.9001754  60.6726892  19.6694027  33.2932687   8.4585899  56.7450857
  32.6290870   8.7453353  56.1182928  34.0145898   9.0771043  56.6294670
   1.1278303   8.7721932   1.6811071   0.4428132   8.2060779   2.0367656
   0.7904800   9.6600545   1.7999874  67.2699976  59.2843246  66.6190004
  66.8397951  59.7794390  65.9218502  66.8628359  58.4187365  66.5843678
  30.1054128   6.1436427   4.8326574  30.0716050   6.7572129   5.5665622
  29.2354282   6.1954892   4.4368444  82.7108233  70.0481160  10.7527290
  83.4341424  70.0305803  10.1260410  81.9547837  70.3304847  10.2380405
  70.8220237  78.0888327  32.8325496  71.6600316  77.6971825  32.5863968
  70.4041617  78.3041699  31.9987331   4.7989455  48.0120982   6.6824804
   4.9158659  48.0238582   5.7325206   3.9477148  47.5945158   6.8138776
  67.4914551  34.5029187  63.7679529  67.3696280  33.7782001  64.3812895
  67.0390940  35.2409935  64.1764212  78.3961480  63.4204920  13.7076603
  77.7420705  63.0475982  13.1165825  79.2060845  62.9589112  13.4904609
  19.0095988  76.2833841  14.6531425  18.8622275  75.4363544  15.0739227
  18.1650677  76.7301043  14.7117649  21.5308738  53.1741810  67.7976227
  21.2588429  53.9458990  68.2942915  20.8609390  53.0764437  67.1209621
  26.5701866  30.7129550  69.7885323  26.4425564  30.6541061  70.7353544
  25.8517814  31.2673879  69.4840145   0.1218119  56.2594326   6.7282806
   0.8430186  55.9724434   7.2883974   0.4648438  57.0268996   6.2705122
  80.5482517   4.3435920  10.6921707  81.0493527   5.0982964  10.3830562
  80.0336824   4.6816647  11.4250885   3.7199005  12.7910817   1.3744150
   4.6710809  12.8824294   1.4304958   3.5802873  11.8699801   1.1546264
  69.8234218  68.2230194  57.7055202  69.1096061  68.5264333  57.1445976
  70.4455035  67.8160961  57.1024833  71.4981931  74.2470582  25.8523784
  72.1127599  74.1704591  26.5822254  72.0277684  74.5783217  25.1270900
  41.3752919  81.9998105  19.6194397  40.5067306  82.1960528  19.9706112
  41.5672856  81.1167319  19.9349342  58.0250686  57.5258525  10.0688778
  58.8341349  57.5074060   9.5576988  57.5917809  56.6979177   9.8614631
  66.2107199  78.4671648  13.8837658  66.2917035  79.3029793  13.4243236
  66.5979331  78.6283262  14.7441898  82.2261249   1.0001195  35.2482448
  82.2842060   1.0805858  34.2962013  82.2256671   1.9032634  35.5653606
  76.6279881  52.8329881   1.6979728  77.0947211  52.4874134   0.9370695
  75.8525603  52.2772451   1.7760311  38.1325849   2.5802911  10.4415260
  37.2849067   2.2760165  10.7656894  37.9237302   3.0646480   9.6427761
  81.5616880  43.9297736   5.0257812  82.1634446  43.5337603   5.6560979
  81.5202676  43.3001292   4.3060146  54.3794125  79.8183020  10.8225380
  53.5662358  80.0466187  10.3721557  54.2746823  80.1784022  11.7032180
  59.0999015   5.4456771  42.1823631  59.4520648   5.2853358  41.3068615
  59.6663078   4.9394954  42.7647625  63.3956235  78.8266523  16.8387161
  62.6407331  78.9810093  17.4066482  63.1692594  78.0359371  16.3490615
  42.8016472  23.4606481  59.3616247  42.7176666  23.3454943  60.3081512
  43.6407232  23.9070916  59.2481709  59.5200208  11.8040479  17.6881347
  59.6299648  10.9061492  17.3752151  60.1865052  11.9040978  18.3678566
  55.6792974  23.1144381  41.5639544  55.8189487  22.3875666  42.1709061
  54.7838593  22.9938912  41.2478971  17.7813657  24.1418422  10.0607620
  18.2936939  24.8379767  10.4720436  17.7722963  24.3685830   9.1308532
  63.2932799  80.9713800   8.0252109  63.5256999  81.3789685   8.8595329
  62.9390948  81.6881783   7.4989162  60.6983419  16.3395703  22.7645813
  61.6028439  16.1452926  22.5188957  60.1876794  15.6261409  22.3818622
  35.4013133  71.3620806  66.7113447  35.6066751  70.9854460  67.5670385
  36.2541318  71.5755272  66.3326979  73.1251948  72.0817860   5.3126846
  72.2848170  71.8364985   4.9256025  73.6044639  72.5016625   4.5983778
  81.1417566  26.6075194  18.4117923  80.5971824  26.5302241  17.6284061
  81.2446152  25.7077420  18.7217174   8.9297422  45.1811469   0.5721460
   8.4774907  46.0173953   0.6834684   8.5707029  44.6211970   1.2604604
  36.9600662   9.5163453  29.9883876  36.4066728   8.7700856  30.2187858
  36.4837201   9.9601615  29.2867122  72.9818719  59.6585007  27.4214683
  73.4626620  60.4591747  27.2117172  72.8825133  59.2116161  26.5808426
   7.8559168  40.4545272  11.6397033   7.5300320  40.8760512  10.8444915
   7.6799830  41.0876620  12.3357139  41.8573475  81.8730831  57.1829987
  41.8609095  81.4850712  56.3079739  42.1784449  81.1762428  57.7553082
  19.3894418   2.0743573   1.3569198  19.7585901   1.4296163   1.9604622
  19.6519740   1.7677796   0.4889808  34.7181590  17.8729976  11.2885986
  35.4220184  18.4254373  11.6286312  33.9188798  18.2499373  11.6564308
  11.1850341  46.5086425  49.2159591  11.2021383  47.4647010  49.1724525
  10.4105910  46.3065875  49.7409759  14.6667608  28.2356131  11.0013137
  15.5055745  27.9234231  11.3406692  14.0460571  28.0747664  11.7120109
  74.2345296  20.2240909  39.8918186  73.6271857  20.3258384  40.6246315
  73.8160966  20.6894839  39.1675602   1.8511876  58.2608951   5.6530462
   1.8061503  59.1566241   5.3185735   2.4944623  57.8277648   5.0919471
  84.4989102  66.5739162  50.8859668  84.2318290  66.5765698  49.9667869
  83.8015168  66.0977276  51.3366447   4.4894727  36.1596120   9.7177349
   4.3437703  36.4056552   8.8042436   3.6622651  36.3614715  10.1550136
  29.6196683   6.6214383   7.7136217  29.9478086   6.1789287   8.4963976
  30.3480419   7.1722901   7.4268041  78.0730391  15.7788897  47.7278852
  77.4883604  16.1866057  47.0890188  77.6401234  14.9568796  47.9583454
  49.8567715  80.7045491  12.0526443  49.8055306  81.5879662  12.4175869
  49.9782124  80.1374872  12.8141723  22.2798004  76.5900453  30.9075676
  22.3065510  77.5248225  30.7033477  21.4092055  76.4511545  31.2804065
  35.2704811  45.9626675  63.5416889  34.6620703  46.5042400  64.0444517
  36.0302162  45.8606625  64.1149521  53.2114967  19.5953095  48.3314453
  54.0244850  19.4940246  47.8364502  52.7021964  20.2305520  47.8281437
  75.3751462  79.9401219  24.9854122  75.7459252  80.4172500  25.7277713
  74.7943728  80.5715306  24.5608459  32.2558864  11.6992534  23.1998478
  32.3347982  11.5577138  24.1432319  31.3279470  11.5568459  23.0130802
  40.6727537  17.7025378  13.3257709  41.5534623  17.5639022  12.9774032
  40.7517036  17.5099910  14.2600761  20.8083661  42.4774516   5.3885255
  20.6166919  41.5415061   5.4476677  20.2958616  42.7799857   4.6388279
  50.7874870  43.2828331  65.4773188  50.5447340  42.9203272  64.6253252
  51.1548519  44.1434002  65.2755785  82.6029883  37.0439971  21.9179950
  83.3034597  36.8046153  21.3111435  82.4241005  36.2403834  22.4062954
   1.4132555  21.2696135  26.2353550   2.0712026  21.2339175  25.5410419
   1.5324338  22.1315730  26.6341720  59.8398638  41.0217810  51.5238857
  59.8486948  40.9546614  52.4786901  59.3926096  41.8491745  51.3460732
  38.2076120  43.2065105  70.6332159  37.7780008  43.5730171  69.8603392
  37.7709723  43.6289644  71.3728905  24.5995458  10.9542334   9.6316372
  24.1392978  11.0203231   8.7949596  24.4770559  10.0439561   9.9011264
  16.0590204  11.0871089   9.1604458  16.3548931  10.3060782   8.6928115
  15.9633525  10.8005727  10.0687252  31.0886701   3.7079823  47.4966083
  31.3902505   2.7995360  47.4949489  30.8743652   3.8908780  46.5818153
  78.6859952   0.7247174  28.4827552  78.8063155   0.3242743  27.6217018
  79.5120202   1.1769927  28.6541019  31.1113739  61.8323994  66.5939474
  31.3452601  62.3202705  67.3835754  30.1542473  61.8204498  66.5944910
  53.7700351  14.1467011   6.8840776  54.0847190  13.9319909   6.0059534
  52.8353103  13.9418710   6.8602739  51.1974859  59.7586441  68.9948463
  51.4275980  60.2340078  69.7931623  51.6905737  58.9402723  69.0528345
  86.2997495  23.2358563  37.3435054  86.8637477  22.8182757  36.6925369
  85.7435022  22.5276816  37.6680313  78.4212487  78.8379844  12.3021351
  78.5427850  77.8924020  12.3877750  79.0672820  79.2174299  12.8978572
  20.1493502  49.2872095  58.9326191  20.1661181  50.2432632  58.8888741
  19.3160117  49.0435886  58.5295963  26.7548633  50.4570293  62.1228218
  26.4417076  49.9727631  62.8867960  27.2501183  51.1892891  62.4899006
  31.8396791  18.6976874  16.1409984  31.0934480  18.8072074  16.7303882
  31.9586118  19.5597804  15.7424102  50.0271924   1.8211568   8.5354839
  49.5458015   2.3775542   7.9231773  50.8363851   2.3016465   8.7103353
  54.7115278  81.9700146  58.5606384  55.3502178  81.2664127  58.6757565
  55.0373411  82.4690533  57.8116131  20.3829804  78.2485517  16.4177833
  19.6745863  77.8552802  15.9081302  21.1583176  78.1513555  15.8649383
  66.6591202  29.6453011  18.0063568  66.9217788  28.9555848  18.6158882
  67.0746170  29.4042457  17.1784149  70.6930934  35.1202834   9.4674240
  70.1406537  35.8611691   9.2181621  70.3238164  34.8141778  10.2957760
   3.0108919  70.0723703  10.0270115   3.7954083  70.5478938   9.7538028
   3.2070151  69.7776325  10.9163318  36.5239692  15.0483143  60.4680729
  36.0123491  15.8478594  60.3447628  37.0143032  14.9494660  59.6519661
  75.1303053  31.9545770  57.8435898  75.7484770  31.5099239  57.2636080
  75.2014160  32.8790641  57.6058960  21.9604619   9.8901999  20.7875572
  22.8480848   9.5709575  20.9501396  21.4910015   9.1291392  20.4460464
  36.9446707  70.4780006  68.9314699  37.3857188  70.0771093  68.1824732
  36.8051171  69.7546053  69.5425749  82.5046860   0.4375232  24.7740780
  82.5082861   1.3837064  24.6293293  81.6355167   0.2529920  25.1300750
  61.7699979  11.4619267  10.8747802  62.3529948  11.7862761  10.1883827
  61.3132952  12.2420466  11.1895214  83.4105008  69.3619807  26.2928901
  82.6495545  69.9317105  26.1806236  83.0388253  68.4928735  26.4436851
  59.5941114  61.8513966  60.7615948  58.7298775  62.2611809  60.7240200
  59.6818352  61.5601635  61.6691828  21.3688412  70.0677188   1.8466173
  20.8226195  69.5085223   1.2941871  22.2409382  69.6765025   1.7953287
  39.0974649  11.6300738  15.5870662  39.7184070  10.9118998  15.4650436
  38.2482656  11.1988366  15.6826149  39.9884319  55.9392118  63.3980179
  40.5347919  55.4991770  64.0492439  40.5689383  56.0718870  62.6485920
  11.2302103  22.5769072  70.4030085  11.6055909  22.7749853  71.2609625
  10.5509463  21.9269686  70.5830479  44.7452196  13.8209975   7.1218238
  44.1542753  13.3500779   6.5342413  45.5783733  13.8492740   6.6514145
   2.4127958  27.9254794  61.5547705   2.1847246  27.8209496  62.4785042
   1.6678903  27.5557256  61.0808182  30.5310424  21.5583432  19.2268310
  30.9958585  20.7566798  18.9870010  30.6373390  22.1327985  18.4685932
  28.8509536  56.8013525  65.1867914  28.3081365  56.3064957  65.8005476
  28.3164549  57.5599766  64.9521923  23.5278877  14.5902551  11.9007049
  23.8646301  14.9705375  11.0894046  22.9591020  15.2684462  12.2650943
  82.7233601  68.9814472  63.7915707  81.8520641  68.6364794  63.9867067
  82.5813770  69.9145651  63.6323118  71.2879324   1.1944911  48.5079384
  70.8188343   1.6609091  47.8161049  71.3951397   1.8429573  49.2038059
  24.8833259  38.9434112  14.0616928  25.7847103  38.7125361  14.2862831
  24.7962030  38.6998189  13.1401191  71.1357062  72.6818760  11.3168274
  71.8798392  73.0171903  10.8167682  71.4979308  72.4813731  12.1798645
  65.7376814  51.8004894  58.2639265  66.3430262  51.8856525  57.5273514
  64.8999500  51.5732765  57.8604317  71.8522056  11.4625228  23.6266647
  71.4057334  11.5949977  24.4629322  72.4507602  12.2059834  23.5542999
  74.0269445  40.0706447  18.4973083  74.0616857  40.6309188  19.2726169
  73.1126939  40.1071895  18.2161651  52.4368668  77.9254293  46.8946695
  52.0542955  77.8333092  47.7672434  51.7032814  78.1862307  46.3378286
  45.9035015  43.4941101  61.6295195  46.4557981  43.0338383  62.2614622
  45.0657845  43.6045027  62.0792723  32.8579410  13.7908328  14.9249492
  32.2551139  14.2857516  15.4798256  32.9652818  12.9531682  15.3755317
   4.8421296  25.2048314   3.9496551   4.0317567  24.9891913   3.4881054
   5.4577621  24.5214141   3.6847673  51.9132423  23.5444307  67.5713253
  51.4540434  24.3320704  67.2797918  52.7944374  23.6326480  67.2080851
  61.9939368   9.5194273  36.9671369  61.4111512   9.3720846  37.7120423
  62.7596705   9.9527197  37.3441553  24.0756210  31.0266364  19.1195331
  23.8726171  30.7712520  18.2196460  23.2273181  31.0366214  19.5628296
  51.5884256  56.7859173  67.1589804  52.1772861  56.5493298  66.4423943
  50.8930254  57.2930098  66.7400455  25.6314405  29.3859017  27.7781520
  25.8205350  29.2781127  28.7102733  25.6162771  30.3336537  27.6448665
  26.9834938  76.0136922  21.3620124  27.8541222  75.6180294  21.4032398
  26.3807431  75.2782591  21.4718090  35.4960823  72.5564194  43.4584761
  34.8908162  71.9976330  42.9709911  35.1866460  72.5125837  44.3632221
  50.3268369   1.7494405  16.5611873  49.5588144   1.4604438  16.0683857
  50.3043922   1.2309182  17.3654686  22.2829342  64.5990658  69.6525812
  21.8198633  64.0462685  70.2820349  21.6286469  65.2367067  69.3670034
   0.8877888  80.9302934  46.2706600  -0.0614557  80.8702572  46.1631332
   1.2354794  80.8407529  45.3833423  26.0616144  16.4705813   3.9831005
  25.3555044  16.3257993   4.6129261  25.9273036  17.3666585   3.6745010
  13.4037288  44.1288436  27.4370800  13.8816055  43.3012927  27.4921356
  12.9020246  44.0621150  26.6246353  43.4609842  51.9484663  69.8006487
  44.1144991  51.2722206  69.9790955  42.7765703  51.4959812  69.3076324
  70.4174974  18.3241248  42.4477625  69.6249583  18.5978484  42.9094839
  70.1002982  17.7665997  41.7372847   4.1783140  65.9718418  53.6078978
   4.3705175  66.8249083  53.9972162   3.2869050  65.7731342  53.8944960
  77.6499939  44.8365593  69.6337271  77.6747417  45.6880188  69.1971016
  77.4175501  44.2186451  68.9406300  22.0492538  12.7853644  15.7083831
  22.0423396  12.5754226  16.6422592  22.6216634  12.1245826  15.3185783
  74.4911616  74.5980652   4.4898162  73.7338059  74.7202762   5.0622688
  74.3621581  75.2310927   3.7835107  32.0670485  72.0858955  60.8766794
  32.7075791  72.4309587  60.2546787  31.9321918  71.1786079  60.6030607
  22.2590431   0.3504193  29.7756706  22.3532136   1.0945905  30.3702865
  21.3132556   0.2307189  29.6896968  64.6873744   7.6025880   9.3635975
  63.7390502   7.7010930   9.4485222  64.9840721   8.4395516   9.0062557
  79.2233174  61.2999304  34.5511184  80.1416009  61.2518437  34.2852722
  79.2208188  61.9008835  35.2961574  67.9236024  81.3094409  20.1398788
  67.0553010  81.3650496  19.7408901  67.7544683  81.0555871  21.0471759
   1.2507525  73.2536991  22.5830017   0.4390803  73.7602528  22.5544201
   1.1770621  72.6417120  21.8506942  45.6688436  27.4575389   6.8326889
  45.1529010  26.7652381   6.4194618  45.0194057  28.0930722   7.1336256
  26.8464168  30.6180585  18.7805973  25.9322866  30.8993733  18.8188968
  27.1974071  31.0496867  18.0016647  78.7514155  65.3024347  22.8063903
  79.2801373  64.6765502  23.3013187  79.2699521  65.4876168  22.0234142
  56.3325357  33.1733394  49.4146395  56.4302921  32.2485065  49.1880131
  56.7591047  33.6420965  48.6973286  15.5306323   6.2660897   1.2520109
  16.2671264   5.6800616   1.0777126  14.8048147   5.8941615   0.7509218
  15.6060823  14.1908038  12.9206691  14.8772558  13.9353478  12.3551689
  15.6220611  13.5236466  13.6068664  41.6175413  50.2186298  68.4999514
  41.1124134  50.5758953  67.7695847  42.4879646  50.0604391  68.1344795
   0.3130682  24.5630181  24.9868808   0.3888472  25.0164473  25.8264671
   0.9819396  24.9679721  24.4347511  72.7895206  59.6784194   9.1253887
  71.9998496  59.2296536   9.4274746  72.4719375  60.5078669   8.7684713
  78.3207076  43.1750797   6.7462574  78.1952804  43.5228284   5.8633218
  78.8664239  42.3984771   6.6225229  54.4433849  23.5723047  52.2068167
  54.0505713  22.7197962  52.3943186  54.6527451  23.5394602  51.2733698
  13.2935508  13.9037955  35.2841793  13.2866176  14.2140973  36.1896644
  13.6472162  13.0159533  35.3379570  73.8278055  30.7981396  67.0309830
  73.2860184  30.7416177  66.2438965  74.3536854  29.9984503  67.0176983
  57.5763083  35.5777001  62.7988720  56.7012835  35.9308314  62.9596615
  57.4196863  34.7271395  62.3886919  12.1281036   7.3153270  15.8554969
  11.9159253   7.5889886  14.9631248  12.9395278   6.8154777  15.7661853
  19.8640426  10.3931916  35.2288089  20.0039848  10.5734265  34.2992054
  19.0369495   9.9122394  35.2576767   5.4158791  42.1066344   0.5244051
   6.1277755  42.0084155   1.1566959   5.0229820  42.9535067   0.7357345
  78.0220209  18.7388003   4.0489946  77.1795915  19.1479266   4.2468820
  78.3887874  18.5193789   4.9054800  64.6191233  63.9739163  26.5454422
  65.5642550  63.8547452  26.4518581  64.2944687  63.1137546  26.8118129
  27.8436836  26.5036166   9.4557224  27.4834903  25.8046830   8.9098392
  27.5500711  26.2910331  10.3416286  11.0661109  22.3928368  25.5754123
  10.6990274  21.6726363  26.0880409  11.9800743  22.4444211  25.8551345
  15.8230289   4.3719590  18.7789951  15.7826026   5.2512563  18.4029232
  15.2834781   3.8373053  18.1965290  13.3162244  12.9325593  42.2692428
  13.2360204  12.6347030  41.3631092  12.5579484  13.5013450  42.4024139
   7.9487236  20.2520192  10.7547889   7.6767929  19.8137391   9.9484382
   7.2576269  20.0459350  11.3841854  15.5053806  63.6680412  62.1237850
  15.7288563  64.4458818  61.6126537  14.7624314  63.9405966  62.6622725
   1.8501409  26.9453633  30.3537307   2.5355180  26.9673980  29.6859012
   2.1712621  27.5235951  31.0456596  77.7156203  68.5751446   8.8376842
  76.9580262  69.1378410   8.6775098  77.3440831  67.7702673   9.1987453
  10.7735189  16.7205918   4.3693720  11.3596805  17.1561969   3.7505899
  11.3410838  16.4619935   5.0954757  16.3329577  75.9415865  60.1188707
  16.9407117  75.8152294  59.3902397  16.4632905  75.1737690  60.6753826
   0.7766994  34.7168219  16.0392509   0.0597247  35.3506339  16.0607658
   1.5699657  35.2511704  16.0770260  60.5309217  74.7195013  40.4925762
  61.2099188  74.7030361  41.1670623  60.3387373  73.7971385  40.3236232
   3.7318077  69.5023115  39.7981201   4.4036951  69.2156585  40.4166923
   3.5040226  68.7119039  39.3086277  21.8321934   1.5615396  69.1481876
  22.7464142   1.3104658  69.2800951  21.3296833   0.8095198  69.4615078
  30.0208839  57.9818786   6.1545740  30.0870355  57.1968997   5.6108223
  30.4768260  57.7516044   6.9640957  12.1363011  52.6462145  18.1370292
  11.6040936  53.1705041  17.5386081  12.7756110  52.2126766  17.5717388
  60.3509045  39.9814177  54.2683458  61.2568378  40.2181005  54.4670868
  60.4028940  39.0795541  53.9518452  73.1763124  61.2969255  68.1570911
  72.5383234  60.8295441  68.6963081  73.4646463  62.0265484  68.7054920
  85.5358696  62.1293211  40.7507515  85.3832817  61.1843967  40.7583809
  86.1574745  62.2773170  41.4634514  52.3777240  54.9422009  11.6726146
  51.5698069  54.5314022  11.9804226  53.0768030  54.4287963  12.0774971
   9.0284767  68.8281782   3.9760624   9.2508498  68.0320437   4.4587074
   9.8528519  69.3111380   3.9178835  58.1271332  56.0550220   6.0786806
  57.7717798  56.9436546   6.0956512  58.5220736  55.9384592   6.9427810
  40.0322660  24.8707116   9.8017440  39.7598918  25.7615292   9.5815597
  40.0173124  24.8452628  10.7584892  86.6766773  53.7481559   5.2303825
  85.9539996  53.2982314   5.6680284  86.8208729  54.5359767   5.7545696
  31.5973960   6.7159617  12.4216304  30.7318698   6.9939959  12.7212844
  31.6309153   5.7804358  12.6213775  10.2268251   3.1537784   3.1172643
  10.7359537   3.1379664   2.3068510  10.5824717   2.4333966   3.6376463
  38.9067634  50.9171451   4.6935306  39.6350559  51.1034453   4.1009842
  39.3095191  50.8698523   5.5605875  53.3116420  13.6035645  22.0120178
  52.4948390  13.6722768  22.5063358  53.7336810  12.8158915  22.3550735
  50.7590961  56.3310766  69.6583891  51.1237955  56.7078638  68.8576031
  49.8510313  56.1267662  69.4349957  21.4091953  61.7806209   5.2625785
  20.8873351  61.1647094   4.7482334  21.9487508  62.2356475   4.6160017
  43.8962984  75.5701542  52.8065634  44.5389557  75.1334810  53.3656168
  43.8932991  75.0566053  51.9987917  29.8388036  19.9642861  41.1118732
  29.8906167  19.0086282  41.0955940  29.0989097  20.1542437  41.6886840
   1.1861738  13.6731542   1.8808971   2.0359786  13.3252919   1.6106067
   1.2548526  14.6161139   1.7314420  72.2154611  40.2737143   9.2484222
  72.3271697  39.3294090   9.3581520  73.0050843  40.5562948   8.7870393
  30.0951958  81.2479115  57.9846048  29.7696209  80.9124279  57.1493292
  30.7921004  80.6400013  58.2315969   1.8954929  22.2281087   5.2258859
   1.0667785  22.5192178   5.6063114   1.6493972  21.5240634   4.6258960
  17.0884457  66.7989810   7.0073829  17.3581496  66.6472180   7.9131733
  16.1651698  67.0436199   7.0701728  28.5489782  15.9484780  28.9698349
  28.5698970  15.0186646  29.1962085  29.4024070  16.1170161  28.5704837
   6.9304559  68.7462425  56.6247749   7.6744745  68.8753080  56.0365534
   6.8273542  67.7959681  56.6756058  18.0169376  19.8946059  38.0812393
  18.3499130  19.4095338  37.3262153  18.0846485  19.2784417  38.8106094
  76.9080687  61.8226480  65.9191513  77.4081135  62.1736622  65.1822853
  77.3053646  60.9694099  66.0934448  37.1798499  21.7031110   4.2726932
  36.2844451  21.3651669   4.2560182  37.6619657  21.0774434   4.8133693
  36.8266916  67.5570011  65.7024574  36.7953086  67.9816151  64.8451614
  36.3296175  66.7471790  65.5869770   4.9260607  79.9233659  19.2019973
   4.9520674  79.6056207  20.1045452   4.4237223  79.2599853  18.7289177
  42.7846527  46.7764139  64.4793701  43.3378792  47.3741007  64.9823093
  42.4700260  47.3026133  63.7442827  45.6051334  43.3601058   0.7329069
  45.1825221  42.6339877   0.2742229  44.9801715  44.0820086   0.6657491
  79.9531280  36.5109075   6.5319286  79.5953046  36.2022365   5.6995140
  80.8283769  36.1256755   6.5739618  86.6421901  28.4134305  37.3857341
  86.8397103  27.7077353  38.0015312  87.3642479  28.3923829  36.7577015
  13.5513242   1.1701882   5.1517091  13.8886960   1.9188464   5.6435667
  14.1813691   0.4694951   5.3199611   6.2347308  66.0121520   4.8960052
   6.0179320  65.9591134   3.9651905   5.5933419  66.6242536   5.2568136
  69.2350768   2.6585067   6.0008274  69.6324419   3.4446490   6.3754163
  69.1490482   2.8548778   5.0679432  44.3137455  49.4544458  64.8775816
  43.6380005  49.4203424  64.2005014  45.0456715  49.9109507  64.4627047
  85.8382838  53.5547073  16.7308555  85.5139583  54.2577560  17.2936760
  85.0501912  53.0889864  16.4511333  23.5246213  35.0666631  17.7803836
  23.7793954  35.1057637  18.7022243  24.3267806  34.8191226  17.3204933
  66.0581923  73.7556124  61.9372082  66.6393423  74.2691135  62.4982882
  66.1025429  72.8686619  62.2943974  66.0296440  41.0090828  62.3751163
  65.7460785  41.9202089  62.4503803  65.9331465  40.6544209  63.2589340
  42.6374563   7.6328576  31.9871460  42.5409158   7.4069465  32.9122863
  43.5771402   7.5606788  31.8197666  61.2358475   5.0917965  68.4481382
  60.6683540   4.7406322  69.1343307  62.1111727   4.7804892  68.6786318
  72.1514886  66.8725832   4.4001947  72.8502839  67.5155385   4.5207010
  72.4566834  66.3190325   3.6813961  66.0087209  27.8645528  11.9089733
  66.0396300  27.2183860  11.2034641  65.2293907  28.3875001  11.7208229
  58.3437777  37.0811558  59.9511337  58.5046864  37.2939944  60.8703947
  57.4298716  37.3254704  59.8051405  42.6164865  38.3633614  66.0114193
  41.8405628  38.7315702  65.5888033  42.3085928  37.5493836  66.4100075
  44.4697889   5.6938279  20.1471935  44.9599012   5.5901969  19.3315445
  44.4738754   4.8216451  20.5415378  47.2156888  43.9000853   2.8777156
  46.7182355  43.6448674   2.1007763  46.5527421  44.0212660   3.5574566
  49.7130775  24.6842170  65.1148367  50.3281307  24.1078210  64.6612883
  48.9880466  24.1114998  65.3649473  19.7724116  48.3002949  65.2070427
  20.2797747  49.1080904  65.2862930  18.8599539  48.5895205  65.2076674
  45.3906139   3.7443030   4.5853410  44.6533712   3.3349002   5.0382219
  45.8543714   3.0146802   4.1744791  79.0367280  11.6292966  38.1248794
  78.8887964  10.7020724  37.9388557  79.3790160  11.9863570  37.3053871
  78.6103259  11.4371980  15.6328235  78.9991914  12.2783482  15.8725773
  78.9523731  11.2560475  14.7573696  77.8310578   8.2454042  35.3769875
  78.4751552   7.8256636  35.9472466  78.0115264   9.1817312  35.4603004
  28.8008483  24.1562617   3.1891189  28.1799682  24.8700393   3.0432926
  29.6025928  24.4431508   2.7519308  12.8147062  21.6955340   6.4629446
  12.1311077  21.1731875   6.8825613  13.5059150  21.7593062   7.1220337
  31.7962551  59.2006159  26.2380409  31.6304398  59.4428778  25.3269720
  32.3302484  59.9163103  26.5828037  20.0349029  12.3738254  18.1166206
  19.3623670  12.0031989  17.5451694  20.0225433  13.3114160  17.9242740
  29.2609485  31.5623486   6.9725738  28.7636884  32.2668612   6.5570865
  29.3365415  30.8906091   6.2948642  22.3859485  28.0328334  35.9787307
  22.0598205  27.1452630  36.1273704  23.1986650  28.0768788  36.4824997
  30.0907691   6.7991698  45.9336601  29.9382289   7.7150023  45.7008205
  29.7993120   6.7314494  46.8428836  42.3128271  66.4063501  56.4576149
  42.8715372  66.8066072  57.1238518  42.2447491  67.0704412  55.7716274
  43.4748116  73.4016092   5.8702169  43.7881699  74.2635425   5.5961595
  44.1646042  73.0670865   6.4433704  15.3018268  41.2614596  56.4345394
  15.3598007  41.9962180  57.0452724  14.3726905  41.2089503  56.2105213
  46.4370473   7.6827920  14.7369323  46.5742572   8.6148465  14.5675693
  45.8312305   7.4014247  14.0513263  10.0833615  26.5775264  17.3299156
  10.9486302  26.9772304  17.4181018  10.0050767  26.0050404  18.0930458
  17.8253635   3.7514651  25.7548271  17.0671781   3.3241046  25.3564010
  17.5610956   4.6663297  25.8518348  58.6502250   6.5510381  11.6113315
  58.8513931   7.4804414  11.5018592  59.2430004   6.2575543  12.3032222
  12.5650867  29.8834813  10.1248584  11.7972883  29.3321336  10.2756248
  13.3056482  29.2781461  10.1619182  12.9901302  78.9510679  60.5672789
  13.7876773  78.4218979  60.5786753  12.8422594  79.1812086  61.4845610
   8.0483158  47.8363192   1.0485969   8.3215459  48.2171596   1.8831859
   8.2663759  48.5036815   0.3979765   9.0503159  78.5439594  29.9232231
   9.2495003  79.2364700  30.5532871   8.4691086  78.9595778  29.2862831
  75.2058554  73.2633924  64.1658068  74.2565346  73.2631874  64.0432644
  75.5605364  73.4090662  63.2887554  31.1372399  73.3928204  63.1907797
  31.6660666  74.1573048  62.9624462  31.3006973  72.7686739  62.4837065
   1.9410976  16.5696061  36.3802086   1.0768135  16.8340695  36.6953407
   1.7688712  15.8220971  35.8076606  24.8211130  35.4706109  20.3346191
  24.5925458  36.3071025  20.7399212  25.7777580  35.4470408  20.3571067
  33.1338247   7.7747977  26.3677536  34.0149339   7.5755084  26.6842304
  32.5887235   7.0697081  26.7169700  73.2930136  72.4958992  67.1326971
  73.1666899  71.9979668  67.9403734  72.8731728  73.3390856  67.3030043
  44.2170461  35.2192748  25.3209816  44.9469550  34.8078549  25.7837902
  43.4680398  34.6514666  25.5021225   8.0226191  15.7268775  12.4998794
   8.7744363  16.2861836  12.6952587   7.4942096  15.7485545  13.2977138
   5.3477087  71.5596922   9.5700775   5.7415905  71.7587598  10.4194675
   4.8307219  72.3367889   9.3577800  22.5525459  33.2405532  40.0454269
  23.2766755  32.6370156  40.2115951  22.0314678  32.8088344  39.3684230
  14.5959314   9.3748868  36.5125499  14.4785579  10.1444161  35.9555183
  14.8854478   9.7295916  37.3531376  11.0966142  19.0790999   6.7651163
  11.1804088  19.0239537   7.7170454  11.8689617  18.6237491   6.4299093
  39.0014815  21.5632725  70.3085756  39.4070101  20.8530426  70.8059216
  39.7359705  22.0126843  69.8904991  15.4976549  36.7608480  53.7034464
  14.6500817  37.0050936  54.0751886  15.7179823  37.4827414  53.1147575
  24.7563394  12.3120463   1.7505823  24.1315206  12.9352534   1.3798462
  24.2107614  11.6461718   2.1691404  75.1460981  67.4206781  69.9124718
  75.1323271  68.2153273  70.4459238  74.3055153  66.9985437  70.0898361
  58.8819790  77.2622204  57.3806190  58.7715578  77.9431200  58.0442572
  59.5989418  77.5778913  56.8305731  53.8278280  17.2112525  32.6461063
  53.9225172  17.7035201  31.8306671  54.7212549  16.9577611  32.8779731
  81.5421830  31.6104281   6.2851654  82.2327004  31.4345897   5.6460224
  80.7340370  31.3526452   5.8416782  85.7389318  31.0905850   1.3014875
  85.0629054  30.8661378   0.6620823  86.5165959  30.6187165   1.0034786
  28.4658217  47.4293947  61.2142563  28.6503506  48.3014250  60.8653402
  28.5327721  46.8489599  60.4560709  43.0309661  26.2974561   2.9019104
  43.8715156  25.8592666   3.0349241  42.4000629  25.5832065   2.8122125
  22.5203934  13.6012487  60.9117031  21.7312470  13.8424902  61.3967562
  22.3156109  13.8124495  60.0008345  71.6138404  59.7074278  32.7901588
  70.9952920  59.8344191  33.5095440  71.8307536  60.5939086  32.5014911
  72.3212665   2.0228319  57.6903200  72.2501224   2.5167303  56.8734789
  71.8688863   1.1983709  57.5118828   6.9010160  40.4800129  50.9401608
   6.9114015  41.4169073  51.1360073   6.9759080  40.0557947  51.7949438
  15.7996464  80.0318813  52.4487209  14.9469376  80.4613113  52.5173712
  15.6056070  79.1725445  52.0744085  37.1859875  10.2409391  61.6776371
  36.3202801  10.2304010  62.0859098  37.0659581  10.7479887  60.8746910
  70.2152809  61.0546744   0.4695926  70.8755477  60.8982337  -0.2055373
  70.3654655  60.3647960   1.1159168  84.8751545  63.2792425  65.8105373
  84.3400192  62.4970770  65.6760502  84.3102074  64.0046358  65.5443192
  16.0668371  35.0492787  70.9649515  15.5912397  34.4005680  71.4838028
  15.5873487  35.0925231  70.1376343  14.5272150  67.9068001   6.4699493
  14.9426451  68.6892827   6.1074958  13.6845341  67.8524144   6.0192142
  80.1316085   8.6410469  63.2290268  80.0986060   8.9392602  64.1379881
  79.3043461   8.1774449  63.0988693  57.9414433  45.7327236  10.2873836
  58.2359117  45.6173240   9.3839393  57.0058339  45.9203853  10.2122150
   2.7686531  81.6585869  49.4097185   2.7691967  80.7014122  49.4027662
   2.9378826  81.8915715  50.3225756  53.3265114  18.1908095  45.0581312
  53.7711573  19.0095401  45.2776718  52.4079180  18.3518577  45.2737379
  41.5432596   7.0380080  54.6060181  40.9694195   6.9355237  55.3652525
  41.1545372   6.4773864  53.9345789  15.1398411  34.5525171  20.7135234
  14.3759194  34.0806677  20.3818451  15.8860054  34.1278847  20.2902446
  50.9565537   8.0476411  18.7112365  51.9095963   7.9937275  18.6402641
  50.7101553   8.7446864  18.1032501  57.0474308  24.5561631  24.6139560
  56.6146677  23.9651390  23.9978061  57.7358835  24.9768897  24.0989242
  77.8550094  62.4711950  41.4917980  77.0809310  62.1674951  41.0176693
  77.6880448  62.2294386  42.4027954  69.3787282  72.5631125  24.7798858
  70.0936168  73.0859406  25.1429496  69.4184440  72.7248772  23.8372932
   5.2232964  56.0574265  66.9492579   5.3816063  56.7813797  66.3434029
   4.2722589  56.0379858  67.0559359  83.8002691  76.9972564  54.9267721
  84.0414152  76.2228192  55.4350328  84.5002422  77.0868109  54.2800522
  60.5754560  69.2823394  25.6559692  60.5061286  69.0878494  24.7213016
  59.9223106  69.9654611  25.8075557  39.6951675   0.8388150  39.1545153
  39.2589569   0.0751284  39.5323181  38.9934349   1.4775088  39.0285206
  75.7161801  47.9373177  14.1678081  76.5459531  48.0111416  13.6963592
  75.2303212  48.7246378  13.9222465  19.1101224  71.1530168  44.3668842
  19.0982587  71.0421617  43.4161997  19.0032346  72.0949347  44.4995356
  37.7084117  71.0220154  -0.3023590  38.1769251  70.7046898   0.4696737
  36.9602203  71.5023787   0.0521742  78.1822579  17.8657992  19.4785152
  78.6176150  17.6496084  18.6539207  78.8254445  17.6481517  20.1531826
  25.1650167  15.6736803  52.3373985  24.6537519  14.9412394  52.6814461
  25.7542157  15.2746844  51.6971779  73.5631269  60.0805648  20.1219593
  73.7456744  60.9554322  20.4647670  72.7550691  59.8150726  20.5610214
  49.6663192  78.0272154  25.0858593  49.5716551  77.6336880  25.9532714
  48.8842812  77.7481998  24.6096253   0.2033932  65.3252072  51.5652514
   0.7761533  65.0478108  50.8502483  -0.5985253  65.6157334  51.1307955
  47.2775602  10.3448737  59.0413189  47.2387314  10.2778268  59.9953794
  47.5820684   9.4844395  58.7529421  42.3497921  26.8925937  11.6120086
  42.1982461  26.6913553  10.6885563  41.4802866  27.0906682  11.9598041
  78.4169588  80.8099515  52.7258015  78.2312188  80.9095974  53.6595058
  79.1564140  80.2030717  52.6921272   4.9550909  32.3519206  51.6535711
   5.4680800  33.0343175  52.0864773   5.4809612  32.1027875  50.8935547
  51.4708087  72.2686304  65.8678675  50.8616665  72.2604675  66.6061831
  51.6465846  71.3442607  65.6921530  70.5609410  42.4161886  20.1365028
  70.9398501  41.5392427  20.0763069  69.6369784  42.2647350  20.3354774
  50.0246208  22.9446836  17.7195964  49.9848741  23.8093038  18.1283603
  49.1760104  22.8444310  17.2882686  62.7384513  73.1432875   1.4892421
  62.0135253  73.5581310   1.9568143  62.8492635  72.2966607   1.9218813
  67.7287977  44.6682577  18.1293808  67.7241724  43.8809343  18.6737476
  68.1307786  45.3388764  18.6815677  61.7390292  65.8591588   2.1998439
  62.2606390  65.3125985   1.6121135  61.3511794  65.2416761   2.8199373
  55.0908297  62.0059569   0.9407364  54.6354025  62.8239496   1.1399875
  54.5873302  61.3335641   1.3996540   0.1063354  76.2595780  41.9854641
  -0.4335516  75.5449928  42.3232841   0.9435803  75.8472742  41.7727232
  15.1040179  61.9051523  65.9779358  15.5443341  61.6642518  65.1628780
  14.3751723  61.2885900  66.0477066  68.3477276  82.0602687   7.8497444
  67.9842108  81.1805995   7.9510627  69.2776959  81.9164117   7.6745353
   1.2131125  41.6229696  45.5882359   0.2746374  41.5037174  45.7341051
   1.4887030  42.2236605  46.2806559  18.3347094  29.5723152  44.1815710
  17.5035870  29.8710966  44.5506191  18.9982021  30.0964165  44.6302652
  58.9301062  12.6956296  51.8191624  59.1352415  13.4285831  52.3996210
  58.1621504  12.2839677  52.2154093  33.0918180  47.5242968   3.7986360
  33.8923567  47.5313862   3.2739292  32.4970987  46.9465102   3.3204065
  12.4432364  38.5354005   3.0285202  12.2615280  37.7848639   2.4629150
  13.3403530  38.7880546   2.8103862  41.0403204  27.9143548  64.2022324
  41.6359091  28.2375360  63.5261679  41.1950874  28.4886360  64.9522161
  11.5158040  58.8793559  48.6087942  11.1412675  59.5856280  48.0823565
  11.1828572  58.0776234  48.2055473  10.8594429   9.3415511  55.1347780
  11.0517037  10.2120352  55.4833794  10.6528902   8.8146466  55.9067488
  77.6614449  73.9098759  43.5848475  76.7298779  74.0779473  43.4428406
  78.0485472  73.9525909  42.7104568  63.6177629  47.7962597  16.6186462
  63.9745157  47.1929599  17.2705589  63.9052527  47.4385674  15.7786308
  66.0418991  79.2193736  66.1963320  65.5948839  79.6064266  66.9490576
  65.6336579  79.6338340  65.4362059  51.7216966  74.6767057  48.2190800
  51.9106981  73.9623137  47.6106739  51.2041763  75.2974863  47.7062082
   5.9109249  76.0540660   3.8774334   6.1000386  75.2147587   3.4578691
   4.9761715  76.0154231   4.0798364  72.8468888  65.9761913   1.2078081
  72.9803937  65.6686099   0.3112541  73.7114423  65.9133847   1.6138063
   5.5652466  55.2695747  11.2689434   6.0127774  55.8263178  11.9061218
   5.5143633  55.8049329  10.4770885  73.8642018  57.8143306  43.8971267
  74.4095271  58.1097300  44.6262298  73.9216178  56.8593116  43.9266716
  63.9463919  31.5021099  33.6609779  64.3637674  31.8989487  32.8964267
  63.0180686  31.4589556  33.4316669  11.2345368  68.5687513  53.3035946
  10.7201154  69.1747243  52.7703047  11.9661242  68.3159144  52.7404976
  25.0161672  32.7395654  68.9148092  24.2060947  32.6280332  69.4123793
  24.8920870  32.2031569  68.1318045  52.3470037  51.4715882   4.6851860
  52.6161807  50.9675069   5.4530893  53.1682032  51.7734046   4.2968975
  20.3679600  40.4240100   2.6959596  20.1267043  39.7766404   2.0334325
  21.3194123  40.3488703   2.7689539  10.1255877  79.2897440  67.2127438
   9.7984750  78.8610248  66.4219046  11.0775239  79.2098789  67.1521902
  38.9135814   8.7387598  63.2060528  38.9601135   9.2464185  64.0162086
  38.2771373   9.2073065  62.6660252  57.2055292  10.9483397  64.7735500
  57.7763319  11.7167222  64.7752428  57.6380062  10.3274047  65.3597498
  57.2593403  20.3732657  54.9800301  56.3512802  20.1720715  55.2062464
  57.3756456  20.0036907  54.1047478  73.0122417  65.7250102  35.0931488
  72.1626847  65.7288964  34.6521698  73.4534448  64.9452479  34.7561870
  64.1120093  79.8179634  22.7214943  63.1798285  79.6716650  22.5606666
  64.4526284  78.9551385  22.9575954   7.9174335  64.9516590  37.6690674
   7.7559335  65.1549072  38.5903931   8.4338481  65.6907625  37.3477030
  10.3165650  14.7225058  56.9963503  10.2389789  14.5537508  57.9353571
  10.8020532  15.5455387  56.9402266  10.5362582   5.4446906  69.2597723
   9.6507055   5.8075708  69.2411470  10.5973601   4.9210146  68.4608603
  23.7031280  68.3351977   9.9863563  24.4952600  67.8222807   9.8261200
  23.8917857  69.1926558   9.6050392  10.8787019  60.5759234  64.5647335
  10.2911288  59.9595447  64.1276169  11.5528018  60.7676311  63.9127588
  14.1892946  33.4708691  54.1634130  13.4954762  33.9350986  54.6317482
  15.0008476  33.8009691  54.5489597   8.5409155  56.4198084   9.2637954
   9.4365969  56.7549415   9.2229782   8.5539904  55.6341894   8.7171112
  56.3071387  81.0972436  27.9823146  55.8355086  81.8464215  28.3463607
  57.2168820  81.3900216  27.9286419  56.2508171  49.8148896   2.2087513
  56.8026274  50.1913883   2.8943096  55.5445092  49.3767257   2.6834856
  51.2854951  24.2611344   0.0178419  50.3414696  24.1093357   0.0626121
  51.6665476  23.3849009  -0.0391259  19.5165100  65.9986814  16.0387455
  19.5551863  65.8041103  16.9751678  18.7478056  65.5213745  15.7264934
   1.6644718   8.9809787  56.9612646   1.3307846   9.8167658  57.2873688
   2.3058486   9.2233521  56.2933397  65.4221910  55.9498401  10.4180370
  64.6419828  55.5707272  10.0133358  65.1949637  56.8684574  10.5620609
  68.5776159  78.2030900  67.2000170  67.7838364  78.1897525  66.6652584
  69.2594919  78.5217465  66.6086340  59.8351431  12.6825094  63.3388615
  59.8125792  11.7527843  63.5654306  59.5752573  12.7110112  62.4180555
  18.2550550   1.3918991  68.8456964  18.4481037   2.2784522  69.1506338
  17.3763978   1.2099837  69.1790104  43.5774284  57.2954340  10.3856598
  44.4237237  57.0890375  10.7824169  43.5420936  56.7503281   9.5996318
  63.7011760  66.1232598   5.6488882  63.7088006  66.7740877   4.9470363
  64.5973771  65.7879885   5.6743751  55.5886834  74.7613056   6.5069566
  56.1896437  75.5016692   6.4236436  56.1581057  74.0058597   6.6528736
  21.2552047  18.9431691  71.0630560  21.7634320  19.4395387  71.7045784
  21.4608479  19.3552494  70.2239275  77.5570624  74.1590722  15.3721843
  76.7085116  73.8429387  15.6824432  78.1856244  73.8253434  16.0123096
  22.7797642  64.7561868   8.8723074  22.1799507  64.2358430   8.3378063
  23.6101475  64.7277983   8.3970199  29.3639517  29.2096639  59.7169018
  29.1102743  29.3932819  60.6214237  30.3184104  29.2820501  59.7164297
  66.6595510  79.6609269  53.8337278  67.3586849  79.9868445  54.4004917
  65.9893301  79.3431119  54.4387293  48.2474344  49.7914429   7.4907909
  47.5877517  50.4448457   7.7234159  49.0833610  50.2153482   7.6851211
  63.9109325  29.9960995  62.7584028  64.1744280  29.2232800  63.2579565
  64.3308496  30.7280207  63.2102776  27.0939040  19.3718421  70.1610947
  26.5828967  19.9283540  70.7487965  26.5482664  18.5962176  70.0310278
  14.8383147  75.4942442  43.0963993  13.9450652  75.1754345  43.2256174
  15.3453118  75.0745429  43.7914133  82.6597827  45.9449090   8.0886827
  82.4509376  46.8784477   8.1221805  81.8794959  45.5382936   7.7117859
  59.3642085  67.2835691  12.0477520  59.7922938  67.6008590  12.8429256
  59.0693706  66.4005716  12.2704921  48.5863083  80.7802685  20.5411182
  48.5954612  80.5022033  21.4569984  47.8386217  80.3208859  20.1587997
  72.1995115  24.1933990  59.8679590  71.3945866  24.7001433  59.9754000
  72.0909405  23.4442949  60.4538679  43.9248078  63.1381495  19.7427498
  44.4034117  62.5580342  19.1506038  44.0887158  64.0171941  19.4012104
  14.2755818  29.5680118  23.5991144  14.6091747  28.9695168  22.9307199
  13.3331990  29.4016457  23.6207461  71.1319726  72.3968561  32.7217708
  70.5527823  71.7528279  33.1292091  71.4845269  71.9492038  31.9526516
  55.4673624  41.6624069  52.2758961  54.7885513  41.6247654  52.9497147
  55.0404310  42.0820808  51.5290117  66.0397547  39.6510486  17.0917259
  65.2573698  39.1014025  17.0470367  66.6418903  39.1652298  17.6553283
  11.6102178  75.1582433  58.5226965  12.5359685  75.1756336  58.2799816
  11.5401370  74.4371696  59.1482925  10.2715547  56.4420671  25.8872437
   9.4528443  55.9515495  25.8141804  10.9544975  55.7968302  25.7042432
  28.4231146  64.3866904  26.3054405  28.0667361  65.2720197  26.3790546
  29.3624400  64.4933708  26.4555011  77.7411434  36.5030074  69.3900156
  77.9494485  35.5691838  69.4185305  78.5139575  36.9321179  69.7572422
  66.2181132  48.1694825   1.5902935  65.8240765  47.6527937   2.2931419
  66.1624020  47.6059277   0.8185850  72.7336066  48.4229233   7.6292644
  72.1384757  48.0087753   8.2541929  72.5169890  49.3542488   7.6733194
  32.7992797   9.0135515  53.5998344  32.0633149   8.6027038  53.1461859
  33.5241580   8.3989012  53.4858751  57.2444534   4.6149188  69.6314192
  57.2238970   4.7126991  68.6794472  56.6676092   3.8718373  69.8083782
   8.8788253   3.7819025  67.6084423   8.1787765   3.9231983  66.9711065
   8.5759103   3.0437618  68.1372356  18.1877572  81.5145531  51.2025261
  18.1323297  82.4686280  51.1486721  17.2765643  81.2213679  51.2034225
  49.7236078  50.2418395   3.8636385  50.4568189  50.5483671   4.3971859
  49.6787327  49.3013437   4.0359340  72.1890872  70.1567514   2.4925075
  71.5918868  70.7280572   2.9754100  72.9709332  70.1078089   3.0425535
  13.8401706  64.6089406  45.3979301  14.1501338  65.1596732  44.6790075
  13.8726956  63.7183518  45.0486088  56.3961697   6.9044185  34.7347593
  57.1794558   7.1212471  35.2404070  55.6739044   7.2771245  35.2403808
  72.2071307  63.0783637  12.3743187  71.4893334  62.4455030  12.3964058
  72.0217364  63.6761744  13.0985294  36.5969426  76.3411624  67.9141140
  36.7325408  77.0915366  68.4927177  36.3198621  75.6352915  68.4982395
  66.2538069  65.9946640  15.7291351  65.5596273  65.5891092  15.2096401
  66.9174879  65.3106125  15.8176170  28.5568333   0.6671752  51.8127060
  28.4551883   0.2473264  52.6668882  29.2415118   1.3223091  51.9477940
  50.2103417  46.4597167  15.7747017  50.5267685  46.5844502  14.8799644
  49.4553607  45.8785038  15.6829010  30.5483945  11.8080628  11.1090027
  31.2584861  12.4413264  11.2137924  30.1602634  12.0216620  10.2604995
  68.2422638  14.9927878  61.4408398  68.6025095  15.6781852  60.8780909
  68.9192629  14.3163109  61.4577007  72.1296113  68.7363179   0.0709186
  72.2004741  69.2949851   0.8449350  72.6027864  67.9385145   0.3072391
  80.0757974  45.1581569  43.1808220  80.2675479  44.4638090  42.5504718
  80.3560727  44.8007999  44.0234218  65.2982300  51.3927980  23.9524303
  66.1657970  51.7034514  23.6934791  64.6920865  51.8892296  23.4025417
  73.8212340  45.2914255   7.2859321  74.6552890  44.9032812   7.5503765
  73.7453788  46.0825499   7.8194128  57.4623125  64.5075543   0.3337656
  57.7373093  64.0393408   1.1220441  58.1320303  65.1799067   0.2086483
  58.9772367  35.4634976  67.3273468  58.8468695  35.9350276  66.5046120
  58.7886858  36.1107659  68.0068493  71.3515234  47.6432037  62.4172688
  72.1710682  47.4561119  61.9594765  71.5505075  47.4830198  63.3397532
  80.9833234  38.7100077  20.4977070  81.5340941  38.1315400  21.0252128
  81.5938275  39.1444549  19.9020801  11.4073360  21.0728526  68.0481815
  11.1176467  21.4678335  68.8705587  12.3360574  20.8865571  68.1860304
   8.4887392  64.5060451  52.0090818   7.8912837  64.6443815  51.2741327
   8.2383687  65.1716144  52.6498318  85.5743918  77.8874583  70.6274748
  84.8226723  78.2474817  71.0981464  85.5455932  78.3116753  69.7698975
  69.4160169  16.7182763   7.1541105  68.6666935  16.9610770   6.6102396
  69.0372842  16.2068637   7.8691326  66.7218678  66.2437089  22.6366935
  66.2146252  67.0173152  22.8826080  67.6264899  66.4727481  22.8498493
  57.9052591  18.1876862  69.7337675  57.7377748  18.0910468  70.6712341
  57.7502775  17.3153079  69.3715954  40.8207207  34.1371830   4.5386730
  41.0856848  33.5411574   5.2392278  40.3757387  33.5767765   3.9029298
  23.6666146  58.4922142  24.3121658  24.1436806  59.3027754  24.4900261
  22.7551594  58.7008698  24.5169769  23.1855145  54.6693631  32.7449642
  22.3277035  54.4176956  33.0871139  23.7670365  54.6304818  33.5042797
  54.9385469  71.9696005  15.6104503  54.0332406  72.2731479  15.6776081
  55.1814192  72.1400245  14.7003971  43.5770082  41.8967152  65.5720663
  43.5887194  41.3264990  66.3407993  43.5980082  42.7836561  65.9314156
  10.3329285  16.5311921  20.1617942  10.0978597  15.6464541  20.4414688
   9.5448144  16.8639958  19.7324405  10.4688251  19.1562784  66.3919020
  10.9391165  19.8773694  66.8103313  10.6350815  19.2727208  65.4564667
  36.9621873  15.2445328  57.7145386  37.5117421  15.0543988  56.9542265
  36.1128449  15.4823911  57.3426819  49.4102376  27.2703965   0.4685197
  49.2927807  28.2000430   0.2730880  49.8204177  26.9103070  -0.3178133
   9.2303562   1.5178223  65.3736448   9.9317843   1.7581099  64.7682571
   9.6523303   0.9448197  66.0138273  15.6792361  64.6751983  57.3091936
  15.0250728  65.1074929  57.8582144  16.5184171  64.9174519  57.7007532
  63.2191620  76.7567165  68.2564497  63.2592002  76.1136932  68.9643669
  64.0494600  77.2293813  68.3149719  38.7641001   5.7625163  10.8570540
  38.2016706   5.0988281  10.4577756  39.2335629   5.2946436  11.5476561
  54.5538443  76.5786775  20.6370578  54.1898888  76.6547711  21.5190826
  54.0102237  75.9166582  20.2099262   8.8279143  36.1944683  11.9668613
   8.5394850  35.2817585  11.9681869   8.0748215  36.6831629  11.6348110
  68.1204447  81.5670194  47.3213673  68.6935398  81.8219043  48.0444336
  67.2708407  81.4095399  47.7331972  56.3846436  61.2553723  11.7999874
  55.7666817  61.6780575  12.3963867  56.0497990  61.4564665  10.9261070
  72.2877953  80.7052645  64.9120045  72.0751152  81.6134418  64.6970367
  73.1143746  80.7599190  65.3916025  76.1889165  40.4201539   6.1824499
  76.9974511  40.0424811   5.8362375  75.6101983  39.6689086   6.3126312
  20.6980848   4.3094727  57.4225521  20.7869053   3.9141324  58.2897615
  20.3359246   3.6113012  56.8769979  56.0824435  73.1233342  13.1065307
  55.3261798  73.0094512  12.5309120  56.1039680  74.0623911  13.2907520
  55.7296222  69.1127475  23.5464225  56.1181634  68.7734921  24.3527637
  56.4792960  69.3321760  22.9931865  11.8164337   1.9770873  52.0102310
  12.6684129   2.1269687  51.6004753  11.2076449   2.5101453  51.4988995
  52.1121758  75.4239757  52.3613487  52.4910038  74.5449312  52.3610244
  51.3964003  75.3765519  51.7275940  62.0374601  59.1080375  27.2280250
  62.5719731  59.8320814  27.5540481  62.6423281  58.5790785  26.7078624
  81.5461295  59.7082766   5.8948312  82.3938029  60.0161524   6.2156044
  81.6356700  58.7560065   5.8574758  55.9231275  53.2574745  20.2788101
  56.1554211  53.7349089  19.4823585  55.4367846  53.8920041  20.8051906
  67.2758484  51.4221430  56.1196756  66.8936300  50.5531549  56.2421417
  68.2042408  51.2547588  55.9574795  70.9549379  24.5816493  56.4621496
  71.0970736  24.2980433  55.5590439  71.3941765  25.4302406  56.5186501
  31.0891377  36.3687264   9.0414463  30.3961077  36.9600912   9.3350921
  30.9519898  36.2890549   8.0974804   4.6023884  47.6895185  17.6748882
   5.0433531  46.8764474  17.4285160   5.2810803  48.2089652  18.1059204
  18.6540914  40.5066395  17.2487187  19.3605018  40.0678968  16.7746735
  17.9420829  40.5705547  16.6121721  57.2606850  26.1612511  50.6172800
  57.1977806  26.1943865  49.6627235  57.7998924  26.9176722  50.8481789
  47.5116110   6.9215703  43.8342857  48.1291008   7.1059752  44.5420504
  47.6861668   6.0112864  43.5952425  19.4872275  62.4106129  13.6957870
  20.2768460  62.9436334  13.6029277  19.4646874  61.8756564  12.9023491
   5.8991343  66.2566395  63.8056135   5.9050853  65.5866475  64.4892120
   6.7314584  66.1390502  63.3477449  85.0005429  54.6898861   8.6522136
  84.8819583  55.6290849   8.7938963  85.7261889  54.4504388   9.2287002
  60.6608718  35.3096225   7.9057871  61.5614360  35.4489799   8.1987033
  60.7345670  34.6623506   7.2044740  66.3199156  19.9273260   6.0596834
  65.3977077  19.9177511   6.3159547  66.4598077  20.8037813   5.7012354
  45.7998519  80.5595739  16.8925510  46.6524368  80.6187923  16.4614807
  46.0036378  80.5622037  17.8278003  83.2844600  45.2988720  40.6591225
  83.0058866  45.9623718  41.2903070  82.5564640  44.6782064  40.6270409
  74.4807475  37.0878078  27.7034603  75.2382939  36.7588119  27.2195945
  74.8137277  37.2544934  28.5852562  17.3072898   1.6908170  47.9774809
  16.7083836   0.9939740  48.2457209  18.1800759   1.3224283  48.1144714
  48.6924177  40.9528970   6.3848577  48.3161932  41.4110934   5.6333624
  48.2620984  41.3452068   7.1445594  63.8762539  57.6498039  41.7814289
  64.5002549  58.3354874  42.0195327  63.9588397  57.5702937  40.8311210
  67.1617978  52.8909333  39.8373256  67.6839941  52.3632641  39.2330871
  66.4760726  52.2970303  40.1427684  60.5716944   7.1927059  59.7994423
  59.7797441   7.2219634  60.3362846  60.9887743   8.0424905  59.9413586
  52.9513186  44.6640478   2.6527486  52.8849071  44.9032097   1.7282901
  53.5379999  43.9077856   2.6629482  83.3992427  60.9539588  19.4517074
  83.0086082  61.8242248  19.3724857  82.8263944  60.3864379  18.9359604
  58.6695004  48.7261486  61.6548586  59.6124458  48.6523724  61.8019819
  58.2810593  48.5933304  62.5195551  57.3780625  61.9949992  14.7643982
  56.4757627  62.3123844  14.8011909  57.3629992  61.1729963  15.2546154
  84.7092097  69.3029674   9.0069423  84.5020001  68.7721165   8.2378517
  85.6628030  69.2598517   9.0778766  80.9198945  52.1907742  14.5871959
  81.8409913  52.4499376  14.5617805  80.7612699  51.9596799  15.5024372
  72.8814411  13.0455565  57.1372986  72.8669405  12.2632515  57.6886797
  73.1264114  13.7537932  57.7328014  68.9274206  55.4230642  48.7682056
  68.8945916  55.7284975  47.8616381  69.8240950  55.6045389  49.0497637
  28.1242061  15.8170676  68.2059431  27.4267673  15.1774561  68.3498526
  28.8278341  15.3155899  67.7940464  55.5715895  23.9491534  56.9017696
  55.6913567  23.6925912  55.9874058  56.3523579  23.6200571  57.3471117
  12.1604163  67.4759765  64.5835304  12.6546914  67.7404959  63.8076735
  11.5852839  68.2190557  64.7659683  59.7204288   5.1590121  36.7515693
  59.6340831   6.0446990  36.3989673  59.9414428   4.6194852  35.9924350
  36.4486902  45.2484633   1.1392723  36.9231468  46.0742320   1.0432039
  36.4557778  45.0762959   2.0808349  79.4643888  74.8722972  34.8357701
  79.2700157  74.1782571  35.4656577  78.6220464  75.0646896  34.4238520
  22.6513154  68.3091183  61.3475370  22.5292546  68.2945545  60.3982639
  21.7910964  68.5431714  61.6960716  35.0073671  27.0787811  41.6936731
  35.9248710  27.0243192  41.9609833  34.9998808  27.7330279  40.9950066
  39.2401242  52.2682476  64.3882847  39.7568917  51.8093157  63.7260437
  38.3448291  51.9590807  64.2501020  43.5774343  55.8057554   2.0718704
  43.3480089  55.0659581   1.5094696  44.4026118  56.1323901   1.7132316
  44.8478120  72.5767882  33.2092319  44.6899252  73.5162456  33.3026538
  45.7263034  72.4449428  33.5657440   7.4788964  17.1388924  64.1614056
   6.6648817  16.7942250  64.5285797   8.1276226  17.0088160  64.8531151
  37.1443384  39.1111188   8.0628095  37.3444062  39.6313566   7.2846351
  36.5173941  39.6436671   8.5522638   4.1498000  78.6161507  61.7571831
   4.2656118  78.1460155  62.5828886   4.5102937  78.0276574  61.0938931
  85.7580989  74.1104205   7.2488819  84.9407905  73.7329514   7.5740753
  85.4888528  74.6797927   6.5280805  21.8131024  81.5155530  61.7353153
  21.2281091  82.0990454  61.2520456  21.2316949  80.8628984  62.1254921
  80.7945919  50.5489445  51.9802952  81.5738201  50.0481939  52.2216940
  81.1249733  51.4250326  51.7814159  40.2489996   0.2823904  50.5930281
  41.0890865   0.0597488  50.9941721  40.3651667   1.1777727  50.2751827
  26.8246317  11.9919991   6.9099802  27.3369646  11.2087560   7.1106738
  26.4304399  12.2410560   7.7459311  79.8594843   2.2597278   7.2466217
  80.6039368   2.8458417   7.1106229  79.1696654   2.8252995   7.5937687
  55.2045870  19.8959279  70.8230925  55.7987976  20.5768347  70.5076408
  54.9236584  19.4374990  70.0311613  12.4493033  75.2480592  44.7632456
  11.7356927  74.7731574  45.1892281  12.2838170  76.1672987  44.9726391
  32.3091514  71.9903429  49.6765757  31.9062860  71.1221023  49.6859074
  33.2073791  71.8344779  49.3847990  10.7964230   5.8836180  62.9753113
  10.1578796   5.3508037  62.5013876  10.2914357   6.6280133  63.3025646
   5.8550197  34.5878434  52.8880119   5.5157322  35.4476261  53.1367922
   6.6527963  34.4858336  53.4070253  73.3760541  80.2670391  14.5212780
  74.2415088  79.8613723  14.4697509  73.1204503  80.4027827  13.6088787
  53.9204836  29.2150116  60.1390600  54.7191954  29.0714145  60.6466722
  54.2059326  29.7289276  59.3836498  58.9408129  53.5585983   1.3134847
  59.2879146  52.8099628   0.8284126  58.2504504  53.9093395   0.7508073
  19.1218656  45.5064096  40.4527889  19.0545600  44.9137493  39.7041546
  19.9346911  45.2503540  40.8886562  43.7994223  64.1945060   1.5534340
  42.8814345  64.4073351   1.3854108  44.1162246  64.9144276   2.0989452
  74.7289031   8.6244328   2.4399505  74.5653956   9.2459329   1.7305599
  75.0910609   9.1581305   3.1472288  72.7427122  66.7370708  70.6547403
  72.5220463  67.6523454  70.8273983  72.1428451  66.2374778  71.2086344
  16.1151257  45.3858228  22.2156749  16.5288487  44.8397018  21.5472255
  16.7793503  45.4717924  22.8995166  42.8283119   4.6945021  41.3937473
  43.7390661   4.4216216  41.5046453  42.3416710   3.8748965  41.3062477
  47.4394464   9.9237353  39.3853116  47.3543835   8.9704454  39.3700123
  46.5562916  10.2399790  39.5757246  52.1061366  75.1681097  16.7325626
  52.7958601  75.4885920  16.1513553  52.0982974  74.2208226  16.5953766
  45.0807858  13.8855386  51.1042166  44.7336769  14.3613636  50.3496695
  45.9649134  13.6305439  50.8405304  17.5239522  77.4682758  68.8279867
  18.3711678  77.6215736  69.2462635  16.9497210  78.1393032  69.1970539
  71.0723601   6.7659104  14.5515190  70.2244888   6.5848506  14.1458545
  71.6917311   6.2220443  14.0648780  48.9728403  17.9449284  52.4418783
  49.7791529  17.4291265  52.4478912  49.2517376  18.8223302  52.1799374
   4.9548325  10.5073714  44.0402746   5.8550632  10.4712415  43.7169933
   4.4779947   9.8850071  43.4911680  85.7436936  63.0443438  30.0237308
  85.9290307  62.1575363  30.3326927  84.9338859  62.9583676  29.5206962
  47.7206581  80.0957282  10.6160293  48.3987349  80.1918443  11.2847648
  47.7848106  80.8950074  10.0932727  49.8376697  53.6748274   3.4476219
  50.1674455  53.2632359   4.2464147  50.0238364  53.0394323   2.7563558
  67.6587480  18.9316733   8.3579193  67.3642271  19.0323313   7.4527345
  67.0235889  18.3333071   8.7513195  69.4625998  14.5563948  67.1333218
  69.7713804  15.4616928  67.1696949  68.6235666  14.5708275  67.5938082
  50.3370651   5.1290286  21.5228592  49.5257743   5.3628028  21.9738327
  50.0783046   5.0142873  20.6084667  50.1498573  77.0782764  21.6801773
  50.7241028  76.3540943  21.9292484  50.7168835  77.6775487  21.1948047
  86.6518211  53.3882093  61.7716551  86.9367409  54.1996670  61.3514328
  85.8820248  53.6401224  62.2817469  39.9047089  44.7127342  64.9972296
  39.3740392  45.2921295  64.4504929  40.3319407  44.1225481  64.3764353
  85.3463882  75.6676014   5.0228105  86.1181443  75.6785520   4.4566761
  84.6741097  75.2273066   4.5027958  13.6824805  79.4799916  49.8740530
  13.5274131  80.1761046  50.5124998  14.0265615  78.7522672  50.3919888
  62.9324961  40.4345131  54.5809317  63.7614202  40.2729130  54.1303778
  63.1758785  40.9407949  55.3559637  48.1801444  61.7349179  15.8581386
  48.8164239  62.2989257  16.2977729  48.6919837  61.2631424  15.2011142
  13.2072551  62.9843087  60.7088614  14.1220052  63.2656128  60.6906080
  12.9808433  62.8458996  59.7891808  23.3288026  45.1046419  67.5127220
  22.4586749  45.3895235  67.2335148  23.2439947  44.1588402  67.6331091
  81.1488138  16.7550338   9.5323692  81.7186938  17.4767507   9.2666755
  80.7569896  17.0494473  10.3545795  72.0913594  56.8654342  15.6596313
  71.3894599  56.7786630  16.3046489  72.0598119  56.0495241  15.1601062
  70.5301469  52.6087494  21.1412273  70.9132331  52.2131856  20.3582798
  69.5988076  52.6917525  20.9364162  74.2474883  28.8513549  16.3477932
  73.4940331  29.0859361  16.8895565  74.3466418  29.5873173  15.7438408
  38.3245214   5.7506001  32.8805099  38.9140161   6.3073361  32.3718200
  38.0421384   6.3034928  33.6090694  66.9578934  28.8391829  52.7351284
  66.2593269  28.8767815  53.3884478  66.7466831  28.0724144  52.2025013
  13.4855016   8.3160890   2.1730886  13.3057292   7.4185765   1.8931089
  14.3222125   8.5323251   1.7615305  52.8679793  78.4955152  13.9714084
  52.8827541  78.8118084  14.8747287  53.0387013  79.2745288  13.4420524
  70.2142804  79.1411431  16.7745052  70.3046315  79.3812044  17.6966892
  70.9789079  78.5945805  16.5932594  41.9029617   7.6405537  47.0639706
  42.7958202   7.9806679  47.0059633  41.5179014   8.1041604  47.8076267
  55.0263398  54.6283837  15.0485740  54.6406501  54.4209452  14.1974388
  55.9045833  54.2494317  15.0123249  81.2987709  49.5567656  61.7525768
  82.1677780  49.7877645  61.4244080  81.2268066  48.6149263  61.5976620
  60.3919666  68.8440187  14.0494381  60.9173935  69.0892013  14.8110424
  60.7786386  69.3341740  13.3238636  62.8640413   0.5860012  44.4391537
  62.6891661  -0.3544743  44.4731426  63.3365345   0.7712425  45.2507401
  61.6243029  22.1929264  50.3471184  60.7148743  22.4263978  50.1609468
  61.5630102  21.4710402  50.9727001  39.1086610   1.0975135   2.3503814
  39.2351707   0.2128566   2.6933180  39.5597156   1.6638768   2.9764925
  13.8715442   0.7943070  14.4261394  14.2578681   0.5517018  13.5846363
  14.4234355   0.3606475  15.0769745  86.5139859  69.2963608  12.3994671
  87.2094529  69.0737184  13.0183254  86.4690202  68.5443290  11.8089901
  47.5567913  45.8391905  68.9301109  48.2825804  46.3346958  69.3094969
  46.9723558  45.6672716  69.6684265  52.6267099   3.8396999  23.6270022
  53.4453583   3.8831165  23.1328773  52.0412588   4.4468194  23.1743622
  56.7473357  55.0694044   9.8080383  56.0493987  54.8057588   9.2083679
  56.2991946  55.5629094  10.4949604  30.2180219  16.5150058  49.7736597
  29.8317647  16.2487507  50.6080103  29.6298552  17.1940911  49.4433022
  57.9102182  21.9030237  56.9673967  57.7282190  21.3788581  56.1874199
  57.4194336  21.4707685  57.6663351   8.5384423  72.4282677  53.1983185
   9.4205720  72.7966495  53.1496048   8.0069739  73.0061729  52.6507854
  18.9168787   5.1633483  65.9411144  19.6760237   5.0044703  66.5020847
  18.5910559   6.0203588  66.2160730  13.1338811  28.2672310  59.8431492
  13.2687867  27.6202393  59.1507339  13.8758957  28.1429696  60.4349279
  77.0683806  74.0067728   0.5558763  77.7108472  74.1725333   1.2457977
  77.3969024  74.4943388  -0.1994910  17.1502384  21.0650790   6.9627510
  17.7412017  21.6553605   6.4952503  17.3030218  21.2565768   7.8880726
  28.1218090  80.9844668  30.5728374  28.2826939  81.3190730  31.4551006
  27.7452603  80.1153954  30.7112537  60.3490353   3.4969974  33.0552197
  60.6338072   4.2774427  33.5306597  60.2962160   3.7788486  32.1419835
  35.7304835  50.2597523  65.9602213  36.6453528  50.1006460  65.7279873
  35.5353332  49.6029377  66.6286135  27.3436676   0.9623778  24.2239509
  26.6868030   0.5450881  24.7812877  28.0895411   1.1132157  24.8045955
  15.0445738  67.6298960  20.8265815  14.8319664  67.8227885  21.7397247
  14.3377200  68.0362280  20.3251014  44.8733950  33.2626152  64.0615463
  44.9396420  34.1133618  64.4952202  44.3062115  33.4218764  63.3071136
  45.5507571  74.1893376  54.6280193  46.2502772  73.6488630  54.9951553
  45.0033671  74.4157840  55.3798962  54.4865799  42.1697950  55.3395224
  53.7243986  42.7204990  55.1605225  54.1363239  41.4300537  55.8358479
   8.4734329   3.8144219  17.8029285   7.9878648   3.6281455  16.9993339
   9.2823871   4.2291892  17.5032650  77.4182034  26.3464832  61.9140100
  77.9925632  26.9927454  62.3247242  78.0080462  25.7923555  61.4028740
  65.9278362  59.9584277   2.5195633  65.7307261  59.0246661   2.5935255
  65.8150690  60.1540788   1.5893827  14.2865887  44.9765660   8.5694442
  14.4690695  44.4282226   9.3324981  14.1571846  44.3548943   7.8531967
  85.2685261  43.0897284  68.6032009  85.8569050  43.1064367  67.8483725
  85.2400970  42.1692944  68.8643885  32.0975924  40.8023310  71.0668612
  32.7676773  41.2573814  70.5568123  32.2937274  39.8733711  70.9452391
  32.3562915  78.2556312  57.0034885  32.2473151  78.7049465  57.8416252
  32.8342921  78.8798268  56.4574814   7.4227331  25.0429177  25.3886318
   7.4395368  25.1795673  24.4413853   8.3407495  24.9172759  25.6288242
  64.3275183  65.1112349  13.8422332  63.5594862  65.2546890  14.3952118
  64.0691560  65.4436048  12.9825817  24.9695149  28.7970241  15.5765091
  25.5893650  29.3863030  15.1466594  24.4981709  28.3783634  14.8562370
   7.0270896  11.4161050  57.8287363   6.4738035  12.1539652  57.5724745
   6.6504580  10.6641972  57.3715496  55.3656483  26.2331152  70.0409603
  54.4699287  25.9199262  70.1667929  55.7166386  25.6806779  69.3424988
   1.0656920  63.0882938   6.0584865   1.7883959  63.6656220   6.3047014
   0.4359713  63.6643298   5.6250463  72.3471855  14.1706813  22.3791156
  71.8140958  14.9263204  22.1320186  72.6706575  14.3818677  23.2548938
  79.2884454  72.9377068  36.9225335  79.5077285  72.1618797  36.4065504
  78.8587269  72.5915648  37.7046824  60.9943295  18.9547396  46.0232067
  61.8754387  19.1323102  46.3523674  60.5522013  18.5132706  46.7483664
  61.9870710  26.3167524  69.6883345  62.2939444  27.2165966  69.5772409
  62.7823973  25.7856965  69.6474361  42.9558754  29.1065717  62.5574160
  43.6261797  29.7401810  62.8132725  43.3857727  28.5532856  61.9052696
  80.4968643  10.3815579  30.1962352  81.0554600   9.6527123  29.9260783
  81.0922241  10.9903467  30.6334472  81.7576497  51.2813421   1.8470703
  81.9612926  51.6717394   2.6969848  81.7755645  50.3376807   2.0064912
  60.9589291  16.4486051  69.2259073  61.6542912  16.1167872  68.6579323
  60.8534145  17.3637116  68.9657545  34.6513104  33.8800907  70.5280542
  34.2628694  33.2765126  71.1613274  34.0450287  33.8729858  69.7873735
  56.9792318   9.3035716  62.3655224  56.0792494   9.4756752  62.0886755
  57.1025324   9.8569006  63.1367922  70.3970718  -0.0818801  29.3496180
  70.7803822  -0.3074642  30.1972127  70.3459311   0.8739268  29.3566465
  57.6047659  40.4793119  58.4650373  57.5719213  40.9191084  57.6154900
  57.1560335  39.6461773  58.3209467  54.0715011  14.5933640   1.2529359
  53.7885078  14.9458945   0.4092107  53.2581504  14.4434989   1.7348419
  47.9823971  26.7190838  61.8663692  48.8690948  26.7928457  62.2193050
  48.0795622  26.9083428  60.9331131  77.7822249  47.7172233  24.5422874
  78.2276004  48.5346212  24.7652946  77.5663369  47.3237182  25.3877292
  53.1611633  36.5217805  55.6133080  53.2736540  37.3725128  55.1892424
  52.6282167  36.7080736  56.3862896  50.1019382  12.1540737  51.2796402
  50.0765324  11.7260945  50.4238272  49.6498013  12.9868650  51.1444855
  70.8593082  72.4337482  59.0283775  71.5851164  73.0532932  58.9535427
  70.3610563  72.7389908  59.7865391  66.8908024  32.5165153  68.6973000
  67.6277733  32.6416945  69.2951632  66.6410208  31.5998387  68.8136721
  44.7346767  38.3555234   6.3475023  45.6455358  38.5081828   6.5990291
  44.7162469  37.4439586   6.0560451  44.2572355  19.7252440  65.3114939
  43.3707905  19.6982861  65.6716633  44.1298628  19.8458409  64.3705034
  77.9301064  57.5870569   4.1140876  78.2913440  58.4734054   4.1029344
  76.9964450  57.7067347   3.9403329  67.4669950  50.9238435  26.4186893
  67.6853483  50.0318034  26.6885315  67.5014680  50.9000082  25.4624019
  72.8682423  15.3689301  53.3655453  72.8815031  14.4598556  53.6649418
  73.7883902  15.6325972  53.3596325  32.4418330  19.5476830  19.2846107
  32.8378725  19.6847963  20.1451826  33.1848216  19.3965077  18.7003636
   0.6791296  71.9925507  12.0319400   0.0773135  72.5858410  11.5824352
   0.1819363  71.1813815  12.1369873   5.3133353  31.7679561  17.2780643
   5.3373607  31.0560286  17.9174457   6.2301405  32.0181811  17.1636615
  61.4819384  33.8912177  62.4812031  61.3542795  33.0931664  61.9683266
  61.6990280  33.5791945  63.3596945  68.6722129  64.4346960   3.4035717
  67.9962104  63.7612732   3.3277069  69.4435113  64.0475328   2.9895244
  23.6425534  11.0122423  60.4659414  23.4055462  11.9382696  60.5164146
  24.5974007  11.0127096  60.3989077  15.1598540  73.3167465   5.1370464
  14.7629824  72.5932939   5.6221662  15.8790388  72.9132350   4.6510683
  67.0958918  45.5225311  23.6665664  66.6759627  46.3188537  23.3413540
  67.9081529  45.4578425  23.1642852  29.4188333  21.7896414  27.3075271
  29.5966697  22.5258541  26.7222071  29.0305090  22.1903634  28.0852532
  54.4472933   3.6380705  65.1972580  53.4975052   3.5306519  65.2482700
  54.5970726   4.0420893  64.3425274  20.6961664  14.4156707  13.8831268
  19.9281724  13.8955987  13.6466060  21.0780700  13.9532483  14.6291481
  76.2247610  20.0261545  55.2189875  76.6892338  20.0599980  56.0552597
  76.0696840  20.9434843  54.9938488  45.8342832  67.4923690   8.7064634
  46.0918265  68.4141524   8.7211643  46.1861318  67.1585114   7.8812538
  68.6386156  32.1529460  54.1041946  67.7464676  32.4339080  53.9007950
  68.5804939  31.7931724  54.9892998  68.9215105  43.1983739   3.7943349
  68.2448237  42.9558835   4.4264160  69.6910804  42.6965518   4.0629850
  77.5328255  22.0820332  67.0409250  78.2916641  22.0210695  66.4606857
  76.9106245  22.6317430  66.5645695   1.0746804  77.5718196  30.3349338
   1.2194195  77.1346839  31.1741005   1.6202679  78.3571966  30.3767524
  52.2053814  22.1300530  70.8197975  52.6089478  22.3633027  69.9837589
  52.4928093  21.2315655  70.9820890  11.2872016  11.7631102  56.7253494
  10.6611562  12.4769914  56.8464804  11.8973744  11.8528509  57.4573803
  72.5668643   4.4267285   0.9172140  72.0318244   3.6978877   1.2314735
  71.9325529   5.0749743   0.6111847   2.6713950  66.7173524  61.0027361
   3.5885341  66.4450498  61.0333967   2.3589046  66.4109428  60.1514435
  62.5178289   6.1894524  44.5284033  62.8499365   5.5624443  45.1708984
  63.0921841   6.9500500  44.6169567  57.3377562  50.1040745  69.9249840
  57.1301413  50.7317448  70.6171989  56.4852858  49.8286629  69.5878363
   5.0353041  60.1023455   0.6184421   4.4311610  60.8177050   0.8171926
   5.7391348  60.1980002   1.2600837   2.1901265  77.0354827  12.7336727
   2.0768729  77.0998509  11.7853771   2.5963822  76.1793716  12.8687988
  26.7206421  70.8022817  15.4678856  26.0911503  70.1287063  15.2104412
  26.2679329  71.3076671  16.1430679  40.3271580  33.6975217  65.9807825
  41.1056614  33.5552382  66.5192175  39.9751234  32.8199172  65.8320713
  26.7926311  24.3865252  53.4103584  26.1815238  24.2532396  54.1349363
  27.6569772  24.3789577  53.8215494  71.1503261  44.0456589   7.8477703
  71.2057345  43.6859422   8.7330757  72.0087569  44.4408609   7.6956545
  28.5358960  79.7951123  55.8367014  27.8143413  79.9043934  56.4560938
  28.3524138  80.4268315  55.1413631  46.5968752  14.2238855  63.9499521
  46.0542059  14.9176204  64.3247557  47.3316479  14.1398704  64.5576382
  40.9952021   6.3651741  60.1152325  41.4794779   6.1743307  60.9185314
  40.2687597   5.7418835  60.1196957  80.6825727  26.8349035  15.2789531
  80.0721543  27.4091335  14.8164783  81.4183229  27.4025770  15.5084167
  63.4393232  76.2303479   2.1191297  63.4662622  75.9246595   1.2124572
  63.9147227  77.0610435   2.1060453  79.8408508  25.3986549  65.1067305
  80.4921532  25.8709407  65.6253719  80.1916218  24.5111489  65.0323820
  37.0915580  56.9907665  67.4414635  36.4311409  57.6376295  67.6897430
  37.3263597  57.2210884  66.5425491  26.0502965  70.6964214  70.8302784
  26.0347468  70.1088102  70.0748301  25.8053023  70.1413031  71.5705872
  55.1753283  17.2356248  51.6997623  55.1713753  17.3174334  50.7460690
  55.9894133  16.7724037  51.8970442  40.0828028  48.9044094  70.8994436
  39.3010259  49.2978001  71.2871361  40.6282616  49.6506548  70.6508017
  77.4961522  47.3316383  65.1587391  77.8289333  46.4415264  65.0439262
  76.5580204  47.2187424  65.3116941  44.7485399  64.7655010  67.8777266
  43.9318085  65.1088572  67.5153875  44.5938873  64.7258997  68.8215160
   2.6608506  60.7742722  12.2785698   2.1828928  60.2289851  12.9034267
   3.2823983  60.1755054  11.8645797  48.2989924  47.0579191  20.1102768
  48.9132088  46.5264942  19.6037613  47.8493159  47.5929625  19.4562564
  47.8932031   5.6082118  23.1710563  48.2766374   5.5109227  24.0426860
  46.9903644   5.8803380  23.3355652  37.9267454  26.6067529  51.3354588
  37.5828004  27.0732570  52.0972347  38.8762259  26.7091870  51.4004660
  34.5815754  26.9750047  66.3376760  35.3942490  26.9833255  65.8319855
  34.8674941  26.9225740  67.2496700  27.6987314  55.4336357  67.1421766
  28.0253887  54.5829868  67.4353075  26.7484236  55.3252888  67.1046591
  10.3532966   1.1538566  16.2192188  10.5458363   1.3426888  17.1376453
   9.3983825   1.1000407  16.1808429  79.4363111  49.4399341  11.0942207
  80.1475900  50.0800027  11.0691867  79.8143380  48.6468108  10.7143722
  72.0385831  30.7345207   6.3319574  72.1607631  31.5624918   6.7964635
  71.0908978  30.6605955   6.2194477  56.1927748  63.9390230  70.1327085
  57.0531082  64.2705202  69.8754787  56.2995815  63.6805820  71.0481501
  52.2911263   0.7469133  51.8281889  53.0321264   1.3525760  51.8461418
  51.6419315   1.1454637  52.4077892  51.1683035  22.9372764  50.9671164
  51.4347744  23.7170720  51.4540911  50.2592754  23.1078863  50.7205439
  52.4141264   4.1029426  62.5082397  51.8921709   4.2954499  63.2871723
  51.7699766   3.8678673  61.8403769  69.3387836  75.9341963  16.2321125
  69.7174638  75.3630908  15.5637775  70.0770801  76.1657222  16.7956195
  76.6757386  31.5007986  35.3435169  77.2905486  31.0434939  34.7698341
  77.0540088  32.3732306  35.4530845  18.8978016  16.2902880  60.7588339
  18.0659068  16.0806298  61.1833668  19.5352519  16.3002205  61.4728308
   8.2816735  72.6215704   5.3671823   7.5711670  72.3002060   5.9222828
   8.8662758  73.0821832   5.9691034  83.1560987  59.9197252  12.1346031
  83.4810012  60.7240565  12.5392280  82.3682158  59.7023244  12.6328121
  25.1591667  34.1743482   1.5525470  24.7221740  33.4470475   1.9956051
  24.5356115  34.8984063   1.6086517  78.1737804  67.5523138  31.8978190
  77.9748631  66.6307831  31.7321610  79.0945721  67.6462078  31.6537809
  59.0849209   7.1215642  20.2644573  59.5297751   7.2922814  19.4342743
  59.7540924   6.7160285  20.8157955  10.6109365   5.1803983   8.9472519
  10.9422358   5.4830277   8.1017385  10.3472527   4.2736733   8.7905441
  79.9806356  29.1024494  67.4701977  79.0929413  28.7881947  67.2985125
  79.8785973  29.7286534  68.1869173  38.4414697  37.2690535  65.0672388
  38.0110526  36.6367340  65.6426907  37.8863215  37.3004460  64.2881012
  12.2380820   4.8992567  48.1029749  11.5637961   5.2373915  47.5137138
  12.1378508   5.4153376  48.9028788  72.5615685  51.1801274   7.5906883
  71.7084926  51.0326477   7.1823440  73.0611318  51.6646476   6.9334875
  87.1959012  65.9633525   5.4628120  86.2849896  65.8806594   5.7450138
  87.2409480  66.8249710   5.0483022  75.6821177  72.4168004  50.3265905
  74.9215171  72.1844692  49.7939157  76.2662658  71.6621871  50.2520180
  31.1427816   2.0152343  11.1344562  31.8060335   1.6052306  10.5792747
  30.5906089   1.2889731  11.4240871  41.0808945  23.3923912  50.3555679
  40.6067467  22.9155827  51.0367966  40.4500055  24.0338850  50.0289202
  57.2210932  23.8417387  59.9269962  58.1521654  23.8314915  59.7051048
  57.1039104  23.0865598  60.5033684  40.6920385  26.3665152  70.2949095
  41.5080976  26.7885685  70.5635262  40.2302122  26.1940598  71.1153984
  31.9746113  17.8374851  60.2010202  32.8913808  17.7517760  60.4625988
  31.5247822  18.1252682  60.9954166  69.9937766  47.2911860   9.6181522
  69.7055619  46.9821890   8.7592683  69.8161357  46.5587171  10.2082096
  52.1855021  16.5771043  61.5884590  52.7160549  17.3476088  61.7911196
  52.0941210  16.1222613  62.4257135   6.8259802  82.0290883   0.9456001
   7.1121016  81.4127095   1.6197286   6.7146578  81.4916547   0.1613794
   7.2981348  78.3514388  12.5340210   7.7517882  78.7144978  13.2946907
   6.3738766  78.3532722  12.7829776  37.2379589  34.6339774  71.2103319
  36.3360691  34.4466591  70.9500694  37.6988053  34.7855282  70.3851748
  55.2300644  29.6568918  51.3096952  56.0193014  29.9758911  50.8719969
  54.5693636  30.3256631  51.1295462  79.1344445  75.0621875   1.7579113
  79.8340934  74.4124134   1.8251167  79.4069188  75.7689364   2.3431430
  60.5768633  29.2217374  63.2773399  61.0210896  28.9635825  64.0849638
  60.9129000  28.6173964  62.6154613  69.3271153  25.6332202   8.3967386
  69.5750516  25.6856068   9.3197857  70.1601880  25.6099530   7.9259143
   9.4151766  49.7596092  51.7503691   9.2287356  50.5001946  52.3274326
   8.7679512  49.8335786  51.0490370  11.5246995  12.9529059   6.4528738
  12.3973878  12.6457513   6.2073026  11.6685136  13.8360274   6.7929397
   8.5421887  52.4509366  23.4604869   8.0250731  52.4676545  22.6551662
   9.2669049  53.0532153  23.2923160   7.8351457  80.6189079  47.9196501
   7.4294025  81.3202684  48.4292555   8.7732656  80.8044526  47.9613352
  47.5584602   6.8249989  61.9078255  47.5563002   7.7698529  61.7545986
  47.5119305   6.4403093  61.0325670  53.9655495  13.4704614  49.6698380
  54.7570229  13.8467848  49.2848921  53.2471371  13.9487529  49.2558861
  28.0054696  28.5392249  13.2028804  27.1220525  28.2764161  12.9445396
  28.2706960  27.8847945  13.8490997  51.1402607   6.1237812  32.9765010
  51.1509132   5.1897663  33.1856298  52.0063114   6.4374220  33.2369184
   1.2181845  40.0809597  21.6819416   1.5186301  40.9594506  21.4491020
   1.5789976  39.9280600  22.5552498  22.2885568  61.4256687  68.4919786
  21.4849097  61.9045134  68.2892847  22.8557164  61.5788670  67.7362680
  58.3998816  80.4686268   0.7020221  59.2129248  80.8816965   0.9928260
  58.4347837  80.5174692  -0.2532925  45.7966216   1.9247497  31.9378696
  46.2587436   2.7566922  32.0405422  44.9500974   2.0671332  32.3613678
   0.7755366  60.7795222  20.4935299   1.6242972  61.2216027  20.5137668
   0.1413813  61.4695414  20.6883369  64.0401220   4.3391272  50.7076979
  64.3860817   4.9810082  51.3278103  63.0988169   4.3222678  50.8805943
  79.0302461  67.8625687  12.1590267  79.7201388  67.2470601  12.4068676
  78.3764976  67.3231633  11.7141758  53.5534525  73.0782557  52.5051928
  54.3116856  73.6300755  52.6970482  53.8750601  72.4434662  51.8650007
  64.7761505  38.2395382  13.7296806  64.7870725  38.2505398  14.6867500
  63.8535564  38.3492001  13.4994064  41.0537481  14.3432701  59.2486525
  40.9901142  13.4077525  59.4409800  41.4687204  14.3829679  58.3869982
   8.3534201  13.0355275  11.0641418   8.1684168  12.9158843  10.1326404
   8.1718286  13.9610446  11.2274585  73.2379913  24.6057272  63.9574099
  72.2829247  24.5846844  63.8971567  73.4231853  24.4456267  64.8827791
  53.3466499  70.3475340   6.1950479  53.1220167  70.1158174   5.2938972
  54.3036335  70.3384216   6.2132488  42.2646291  74.4383020  61.9241047
  41.9889409  73.5219373  61.9464731  41.4493854  74.9353958  61.9912052
   5.2959576  41.9534415   5.0390230   4.8844900  42.8152508   5.1039062
   4.6963301  41.4420315   4.4957529   0.7129708  80.6833370   0.9791647
   0.2054634  81.3119204   1.4925371   1.0530749  81.1935170   0.2441297
  79.6712583  79.8441251  14.7074066  80.1498502  79.3584497  15.3791938
  80.2959960  79.9369271  13.9881549   7.4344262  26.5676129  16.6996036
   8.1689533  26.3300622  17.2655235   7.3116263  25.8052934  16.1338935
  61.7223995  77.3143418   5.5158411  62.0507257  78.0542834   5.0050388
  61.9993036  77.5009139   6.4129196  59.7982471  34.5688315  14.6886764
  59.3158238  34.1971786  13.9501796  59.4268387  35.4438062  14.8014007
  63.1981468  28.9945292  69.6204090  63.3745337  29.2196727  68.7069368
  62.6579142  29.7151065  69.9446726  37.4053383  -0.2492085  50.9506845
  38.3067083  -0.2655871  50.6289768  37.0750999   0.6118358  50.6942129
  71.1028426  77.0217712   1.7477546  70.2120679  77.3541196   1.6368566
  71.4713948  77.5548275   2.4522052  49.6593761  17.3550522  64.0557003
  49.7576952  18.2681715  64.3254757  49.1090250  17.3943257  63.2735252
  81.8751758  74.3999632  24.2539726  81.9324201  74.9711473  25.0199352
  81.1587279  73.7984570  24.4567428  44.7243881  14.1988516  58.9885902
  45.0588942  14.6996176  59.7326136  45.4674673  13.6664212  58.7047243
  56.6299915  39.3806577  51.5884638  56.9943619  39.6931243  50.7603168
  56.5071917  40.1735640  52.1104383  84.1069263  59.7010870   7.1936594
  83.7190764  59.9242123   8.0398403  84.4784492  58.8284774   7.3231063
  44.5335293  29.2328739  49.5560503  44.7887039  28.4809279  50.0905514
  43.7780619  29.6048880  50.0111437  50.2712297  37.0323181  49.8586082
  50.1100349  36.1529636  49.5165825  49.6576405  37.5910521  49.3815804
  73.6397927  61.0486491  34.8105465  72.9712670  60.6916662  35.3952346
  74.0645402  60.2780946  34.4336258  80.7927602  49.1112216   3.2132278
  80.8504909  48.3227171   3.7528215  80.4804271  49.7891696   3.8124500
  73.2702058  73.0728372  22.9888092  72.8497975  73.9324959  23.0105434
  74.0868037  73.2175811  22.5108467  50.1978525  60.6658328  14.1284118
  50.8675178  61.2834227  14.4222866  50.2631076  59.9326766  14.7403370
  55.4843491  75.8122786  43.7367092  54.5522421  75.6118019  43.8216625
  55.8507054  75.6180699  44.5994316  43.0231386  58.1078251   6.2296997
  43.2361095  58.7092360   5.5161272  42.1939343  57.7083798   5.9668384
  51.5009945  76.3358863   3.4145246  52.2243565  76.9248255   3.1997524
  51.7603796  75.9295948   4.2414938  10.1876107  75.3324039  16.8428932
  10.2045431  75.2813824  17.7985798  10.5961838  74.5170410  16.5522323
  54.1089010  18.4444559  68.5973549  53.2454634  18.4295535  68.1844568
  54.6934891  18.0602384  67.9440069  48.8083165  68.7147363   7.7677761
  48.3096188  69.0591319   7.0268808  49.6022313  69.2489489   7.7911506
   6.7193516  13.2727635  31.4481769   7.6615771  13.3230794  31.2872062
   6.3377770  13.1050075  30.5865036  13.4646400   6.1596406  29.4107280
  12.6605781   6.0617602  28.9007030  14.1128667   5.6370223  28.9386020
   8.4705636  18.3908308  32.4650645   8.5317800  18.3032525  31.5138483
   7.5951574  18.0684364  32.6794338  30.5113252  16.6716016  32.5867687
  30.9098657  17.0158828  31.7874752  31.1365922  16.8878425  33.2785068
  63.0848026  59.0576458  59.1442204  63.7658930  58.4096336  58.9641380
  63.4378910  59.8781490  58.8002253  76.2876981  34.6367677   5.2094350
  75.4886764  34.5961578   4.6839414  76.3199132  35.5391826   5.5269895
  83.8395201  24.9886239   5.5128370  83.5735379  25.8864940   5.7111297
  83.7430511  24.5214379   6.3426958  75.4755974  61.3193083  59.3056583
  75.1084709  61.5496302  60.1591253  76.2554264  60.8038616  59.5115852
  66.1320162  36.7306328  65.0632381  66.4847851  37.6050329  65.2282000
  65.1845026  36.8590546  65.0189877  12.3670671  41.4406776  62.8571987
  12.6007650  40.5714941  62.5314140  13.1849096  41.7926216  63.2086134
  70.7308435  78.8653135  60.7063961  71.2943840  78.5772228  59.9883032
  71.1225462  78.4771585  61.4887857  60.5477190  43.7987137  62.8154993
  60.0693130  44.2342520  62.1100426  60.6865835  44.4838858  63.4693241
  72.8624296  50.0271416  51.0395193  73.1952047  49.2359447  50.6158495
  72.1627712  50.3319979  50.4617834  64.3294001  52.7628326  64.2346191
  64.5153999  52.0797396  64.8788404  65.1431274  52.8521824  63.7385416
  75.9269953  27.9390454  57.5635147  75.7410574  28.5941911  56.8908739
  75.1368904  27.9192543  58.1034851  11.0453603  77.3803473  51.8948793
  11.9502923  77.4374914  51.5881824  11.1017034  76.8954945  52.7182770
  20.0619110  18.9520371   5.9854971  20.3128751  19.6308911   6.6119180
  19.1120370  19.0391744   5.9056316  25.7633915  49.5236220   3.2718931
  26.5116635  49.2214008   3.7866531  25.0079766  49.0924372   3.6714635
  66.8250640  26.1783135   9.7555099  66.7576774  25.2235425   9.7453437
  67.6803764  26.3622058   9.3671165   5.3584287  11.4203024  54.6413326
   5.2651307  11.9498205  53.8494110   6.2746332  11.5296149  54.8959780
  80.8046722  37.8808832  32.0548105  81.1400604  38.7153721  32.3824978
  80.7174587  37.3344922  32.8358889  28.8429394  75.7797273  18.0308471
  28.8809338  76.6216190  17.5769745  27.9309788  75.5020364  17.9445491
  43.7065585   6.7730868   4.3526302  44.2262538   6.4860356   3.6017929
  43.0035861   7.2985089   3.9705358  60.6855631  67.2053432  68.3193207
  60.6971121  67.3832035  67.3788595  59.8118305  67.4741125  68.6031961
  55.9519768   1.9771275  70.0413847  55.0926924   1.7380346  69.6939611
  56.5543222   1.8311751  69.3119287  27.8040441   9.0456784  15.3152691
  27.6850065   9.4973100  14.4797454  28.6811860   8.6665118  15.2597366
  82.8497308  70.7114752   1.2063966  82.7403253  69.7607000   1.1893306
  83.5923474  70.8566292   1.7926393  86.8918651  64.1908319  27.2832332
  87.2807448  63.3164914  27.2600876  85.9846728  64.0568169  27.0088611
  44.9990972  12.4673617  19.0505252  44.6403774  11.9750798  18.3121429
  45.9468158  12.4397481  18.9190040  30.7606936  32.0463443  62.7217245
  31.6328669  32.0767331  63.1149483  30.4414344  32.9470253  62.7772141
  36.9201541  40.8120394  62.8343058  37.8010464  40.7928991  62.4602795
  36.7819333  41.7281580  63.0748367   4.4985255  37.2580779  19.5201812
   4.0841158  37.3967755  18.6685596   5.1368245  37.9675210  19.5943294
  40.5218363  47.1539545  61.4980793  41.1424589  46.6224480  60.9995222
  40.6341314  48.0398178  61.1533070  59.4116783  57.5411844  59.6674013
  59.1695547  56.9603443  58.9461327  59.7827387  56.9584703  60.3299618
  44.7117933  44.0334380   4.1781126  44.5188793  44.7513831   4.7810827
  45.1109918  43.3594096   4.7281681  60.0690540   1.5363276  14.4799934
  59.4990428   0.8515513  14.1301380  60.9275897   1.1193383  14.5526729
  23.1310113  26.9867385   2.1172462  23.6401256  27.2273648   2.8912817
  22.6973709  27.7984393   1.8539463  16.4252075  17.1022618  42.0809303
  15.4886611  16.9467318  42.2031055  16.6539605  17.7342236  42.7624927
  69.2320347  26.3436794  59.2326880  69.7454262  27.0517182  58.8436604
  68.4600258  26.7785883  59.5947456  65.3446245  15.7620537  60.9700394
  66.2777948  15.7239866  61.1797523  65.2988911  15.5401325  60.0400448
  42.2679265  19.5235265  10.5876194  41.3948949  19.1849435  10.3891025
  42.8067001  19.2457688   9.8468052  50.7236560  54.9265922  15.5613361
  50.2562221  55.6193221  15.0945602  50.1467880  54.6973479  16.2899624
   2.3447130  62.7107430  69.5417261   2.8210828  63.2832432  70.1430130
   3.0191324  62.1468878  69.1629839  76.5572112   9.3191843  61.5731144
  76.4860957   8.4618597  61.9928312  77.0018332   9.8665838  62.2203398
  60.6057549  21.2051940  36.6402078  61.2852955  20.9489346  36.0166788
  59.7997618  20.8327985  36.2825418  72.9824591  46.0143757  60.8232737
  73.9267492  46.1121368  60.7008266  72.8725243  45.1139927  61.1289740
  31.2744029  32.1855605  15.6723343  30.7642110  31.4467490  15.3405319
  32.1563991  32.0406163  15.3298507  86.8469804  72.2576292  16.5856205
  86.0924380  71.7285355  16.8443809  87.5947326  71.8274029  17.0003639
  68.9624494  68.4417851  20.2522979  68.1996816  68.9869793  20.4451213
  68.7832826  68.0771239  19.3856083   0.2137849  44.5883274  60.4904366
   0.4678056  45.2880239  59.8886681  -0.6020739  44.8962975  60.8851099
  54.1679239  43.2134581  66.3797951  54.2050219  42.7596283  67.2217512
  53.7485027  44.0508842  66.5773630  49.2178726  57.8051138  63.3655500
  49.0552425  57.0687771  62.7759790  48.9487886  57.4861574  64.2269945
  48.9711221   9.2821420  33.5285793  48.3660205   9.2248738  34.2680393
  49.2628272  10.1938117  33.5278450  53.5345411  42.3679352  50.3335619
  54.1319847  43.0644035  50.0611115  52.8959608  42.3085785  49.6229839
  69.6218252  52.9274273  41.9714785  69.7676086  53.6348248  41.3433313
  68.7626219  53.1156826  42.3490572  73.4152699  14.7824109  61.8373728
  73.3921385  14.3703914  62.7010489  73.4597635  15.7208192  62.0207882
  69.2009020  49.3984938  40.0544930  68.6216354  50.0367928  39.6382618
  69.5476532  49.8541832  40.8215332  15.8066264  78.4132035  24.6183143
  15.0686159  78.9121039  24.2680679  15.4449644  77.9484327  25.3729187
   8.1167069  54.0093787   7.7863918   7.4438134  53.3433040   7.9270683
   8.7112465  53.6178096   7.1465288  41.2759384  15.7853425   6.8069158
  40.9211667  15.8615601   5.9211622  40.5333694  15.4985297   7.3384843
   2.9960630  67.4660540  28.6132336   2.5203512  67.9126501  27.9128933
   3.2447812  66.6230726  28.2340908  51.0674446  58.7858434  15.9833465
  51.6773241  58.0482574  15.9989868  51.3670271  59.3593355  16.6887508
  63.8074446  46.3257456  64.0162468  64.3852186  45.5851269  63.8321495
  63.2288742  46.3731241  63.2551622  79.8311234  50.7815361  54.8661804
  80.0804329  50.5351067  53.9754772  79.7889519  49.9516821  55.3413630
  52.1171904  20.2768826  56.1379766  51.5023136  20.7942462  55.6178856
  51.6522217  19.4591522  56.3150501   6.3469704   7.7962602   9.0960537
   7.1863993   7.6070941   9.5153461   6.0076006   6.9381869   8.8415657
  18.5446927  62.9438829  45.1451826  17.8329370  63.3569622  44.6563053
  19.3405053  63.3399248  44.7901392  53.2720137  34.0041924  61.7371750
  53.6760712  34.6740198  61.1855412  52.5688696  34.4639039  62.1959591
  16.1898318   4.2863398  65.8106327  17.1469488   4.2811995  65.8220482
  15.9527626   3.5358553  65.2658463  24.0984662   8.1807864   9.4420562
  23.2295116   8.3190644   9.0651832  24.1213926   7.2479070   9.6552311
  30.4493984  25.8402980  18.9402233  29.7979864  26.3479722  19.4241272
  31.2914260  26.1732924  19.2506061  46.8743086  44.7186089  64.7199011
  47.2823668  44.0493345  64.1705418  47.5662184  45.3639412  64.8649645
  18.3232060  80.3393491   5.5042968  17.4181786  80.0554283   5.6329094
  18.3909836  80.5048116   4.5639454   2.7100094  34.6460832  12.7497993
   3.4931453  35.0899613  12.4243580   2.4164995  35.1856625  13.4839187
  38.4529527  14.0952647  26.4022384  38.8146098  14.9721301  26.2736259
  38.7073644  13.6134494  25.6152378  57.9873848  35.6924748  54.0829563
  57.3726130  36.4194155  53.9837313  57.5003290  34.9244452  53.7843943
  25.1555577  50.8804138  13.9670311  26.0986939  51.0373385  14.0129123
  25.0759163  49.9348326  13.8414798  39.1811638  64.1499145  13.2058845
  40.0421839  64.0970762  13.6207233  39.3169337  64.7118767  12.4430023
  47.7328825  81.3494301  63.2803011  47.2511005  81.4753628  64.0977716
  48.6275148  81.1519241  63.5575342  61.4718437  14.5985055  71.0924578
  61.3515663  15.3367603  70.4951763  62.3947430  14.3624854  70.9987259
  34.6093543   7.6692307  30.2514492  33.7475570   7.3208630  30.4798637
  34.8244413   7.2492040  29.4186531  57.2341537  52.9164505  65.1869249
  57.5626945  52.1170521  65.5983305  57.3598576  52.7722311  64.2490387
  23.3105412   7.7246504  56.2908792  23.7742367   7.6579313  55.4561567
  22.4967232   7.2402029  56.1521673  72.1974516  26.8162990  49.5731163
  72.5840473  27.6783395  49.7269392  71.5443468  26.9652510  48.8893747
  20.0002858  53.5705853  31.0038924  19.3074605  54.2135382  31.1550093
  20.8056638  54.0228558  31.2549710  44.6999931  70.8887911  63.8552284
  43.9826345  71.1687469  63.2866716  44.4215918  71.1432171  64.7349977
  65.6258345   1.1590966  65.8603716  65.0943232   1.8975590  66.1576891
  66.2132931   0.9762397  66.5936422  16.7265495   6.0354102   9.9188076
  16.2944444   5.4036200   9.3440471  16.5031751   5.7462132  10.8035122
  56.1986621   4.3180287   2.6973043  56.6393264   3.7425769   3.3225237
  55.4056533   3.8417876   2.4512087   8.2409189  35.2807450  64.2825794
   8.8752649  34.6041059  64.5191956   8.0867288  35.1479363  63.3472586
  41.2668928  11.9901669  26.5756260  40.7803615  11.4510739  25.9520088
  41.7678007  12.5956309  26.0290561  29.3504699  18.6177028  17.5007187
  29.1426881  17.7077830  17.7131019  28.8174518  19.1327441  18.1064067
  49.9876022  49.2857122  65.4994869  50.8525801  49.1686440  65.8923483
  49.5329666  48.4610510  65.6711674  12.3636713  66.4495380   2.7188955
  13.0002060  67.1090539   2.4430357  11.9688073  66.1417778   1.9030510
  82.6405811  48.4517670  52.6802874  82.3916245  47.9582405  51.8988276
  82.9323006  47.7848864  53.3018970  59.2880106  19.9708962  62.1139240
  59.1091394  19.0390265  61.9880009  59.8610878  20.0034094  62.8799248
  71.5059471  29.1499233  51.4237404  70.6664848  29.4683027  51.7556477
  71.5460062  28.2373214  51.7097187  24.9511567  74.3074162  14.5520912
  24.2895069  74.9984630  14.5221744  24.4519749  73.5040815  14.6994053
  61.4438534  27.7859688  59.1012335  61.0516596  27.6255298  58.2429361
  61.5585756  28.7355399  59.1384220  44.8036957   5.5723560  35.4739046
  44.7807550   6.5122432  35.6536770  44.8056078   5.5111867  34.5186639
  64.5803165  65.6021357  63.8856459  65.3333426  65.6513977  64.4745064
  64.8963451  65.1005173  63.1341553  45.9212542  38.2458949  64.9697065
  45.5256653  37.3744011  64.9543333  46.5213394  38.2234240  65.7151079
  46.7235031  24.3538408  62.6183176  47.0632878  25.2486925  62.6131153
  45.9855404  24.3743162  62.0090294  40.1455069  17.1444583  57.8841639
  40.6093168  16.8619287  58.6723852  39.4790316  17.7527750  58.2035255
   1.3012121  56.1227369  42.4143791   2.2543809  56.1669827  42.3385334
   1.1074445  55.1862621  42.4556589  85.9354918   8.0382090  67.5722408
  86.5838092   7.8416567  66.8960142  86.2921279   7.6433973  68.3679533
  67.3526382  37.0057678  56.1629057  67.0234060  37.8976250  56.0514355
  67.8585863  37.0369673  56.9748640  57.1922731  40.1932430  68.8085938
  56.7651320  40.3185320  67.9611969  56.4722586  40.1721811  69.4389629
  70.4666281  52.9287767  60.2911091  70.4512310  53.6277008  59.6372747
  69.7228765  52.3710442  60.0630665  40.2964401   0.7204412  64.5642948
  40.7306910   1.2453431  63.8918829  40.8804941   0.7698984  65.3210449
  22.7897342  17.8510249   8.6916052  22.2486862  18.5784686   8.3844791
  22.2492870  17.0738852   8.5494695  55.5811995  55.7140680  25.2369915
  55.3158372  54.9296303  25.7170616  54.8067945  55.9580405  24.7300277
  48.6897230  30.0335479  62.0061207  49.1387749  30.5852318  61.3656330
  49.1406631  30.2096176  62.8318834  80.5806392  75.5832608  40.7510028
  81.2398618  76.1265405  41.1828647  80.8854144  75.5104025  39.8465572
  44.2416223   5.9601891   1.8317686  44.3208345   6.7436278   1.2875353
  43.3073171   5.7525409   1.8181167  57.2539314  24.7225440   2.9246650
  57.0699771  24.7356284   1.9853960  56.6468604  25.3623784   3.2965551
  16.8135484  10.2931703  13.8121639  16.7307647   9.3397868  13.7913070
  16.0905345  10.5842650  14.3678222  62.7618790  45.7373476  66.3676596
  63.1666613  46.1793137  67.1140194  63.2999468  45.9917831  65.6180048
  85.0690661   8.2604182   9.1706215  85.4524504   7.7342141   8.4689365
  85.8193193   8.6760819   9.5955597  62.4986792  35.3244495  35.2730465
  63.1466722  34.6751022  35.5463290  61.7894745  34.8084331  34.8896527
   0.8990476  57.6218891  63.6761379   0.6130407  57.6103973  64.5895338
   0.1731965  58.0286837  63.2029724  86.0557662  17.7137196  13.7294708
  86.9530402  17.5132525  13.4631096  85.5452238  16.9578565  13.4392105
  21.0466146   4.2557999  67.3439121  21.6071081   3.5344332  67.0580626
  21.0222411   4.1767976  68.2975340  66.5042298  55.1791771  23.3663211
  66.7645948  54.9633522  24.2617832  66.6718905  56.1183103  23.2879005
  61.7482812  79.7071373  55.3558636  61.9919354  80.3781311  54.7181892
  62.5820596  79.4052897  55.7163477  24.9871286  33.2180274  30.4494129
  24.1718849  32.9148925  30.8490692  25.1148399  34.0980113  30.8037410
  14.6850107  33.6374354  65.8484650  14.4635484  33.4063792  66.7505741
  15.6416795  33.6670232  65.8367538  54.7960949  34.3895459  55.6846905
  54.1855049  35.1264000  55.6631899  54.5545959  33.8562059  54.9274206
  82.0883595  19.7852433  34.0666710  81.9532381  18.9639342  34.5393501
  81.5265142  19.7127641  33.2951103  39.7092605  42.5037527  62.6054525
  40.3631449  43.1590080  62.3619223  38.8754106  42.9723501  62.5687790
  64.7877836  45.3458738  60.9745359  65.3828239  45.0577116  61.6667271
  64.9756622  46.2786293  60.8701277  75.9091997  32.6946330  54.4004059
  75.5074072  31.9601417  53.9363861  75.2616024  33.3971786  54.3431807
  17.0784553  21.2279094  -0.1020302  16.5988572  21.2620080   0.7256494
  17.7020868  21.9520247  -0.0474896  84.3365036  15.0413621  10.0503193
  83.5725795  15.4817594  10.4227481  85.0187264  15.7127059  10.0402485
  85.1667684  74.7105821  31.3963161  84.5178597  74.0351661  31.1989341
  85.8846992  74.2373617  31.8168769   3.6610976  78.3798368   4.8130451
   4.2963591  77.8516658   5.2964817   4.1127673  78.6153968   4.0026508
  16.8913158  32.8753913   5.7080732  16.9786819  32.7673877   4.7610078
  16.1036046  32.3806727   5.9338985   2.8536072  73.2941015   9.6902214
   2.5203123  72.4119909   9.8546253   2.2075405  73.8734086  10.0942360
  65.8795214  57.1487141  69.5803165  66.1423254  58.0641174  69.6762466
  65.9073067  56.9891548  68.6369181  54.0341568  61.4316273  69.6065140
  54.1835213  61.2862206  68.6722898  53.9938593  62.3836613  69.6972990
  21.8973573   0.7994426  37.8032814  21.2015661   1.1041892  38.3857189
  22.5325855   0.3835214  38.3861385  23.2408412  45.2193320  30.5099044
  22.5361284  44.6091903  30.7274757  23.1573566  45.3549254  29.5660339
  32.4877205  65.6590422  13.1142841  32.4382248  66.3114031  12.4155651
  32.3852196  66.1639078  13.9210258  30.7543119  17.3481381  41.4914547
  31.1439451  17.2779382  40.6199680  31.4245780  17.0041287  42.0819126
  36.3931751  41.4907551  67.6197577  36.8610287  42.2341633  67.2393847
  36.4725471  40.7972765  66.9647598  59.5288754  41.5435410  69.7816372
  59.2729139  42.4216032  70.0639868  58.7164211  41.1465502  69.4677162
  33.0478421  69.8706539  46.6490589  32.7835121  69.6674998  47.5463329
  33.2169762  69.0171440  46.2501274  73.5059245  17.7195895   3.4335409
  73.2439979  17.0086205   2.8486047  72.9400619  17.6205886   4.1991983
  74.1925567  35.6544586  13.4337936  74.3401235  36.0528530  14.2915474
  73.3612149  35.1890023  13.5257183  85.9654236  51.0727406  55.2846766
  86.3602257  50.2161741  55.1214170  85.1026535  51.0211277  54.8733473
  28.1352743  53.4119094   0.4042326  27.3546060  53.4376300   0.9575163
  28.4017118  52.4925483   0.4085479  70.8607340  31.4168811  69.5179033
  71.5653944  32.0630074  69.4709158  71.0071802  30.8474183  68.7625933
  56.5537818   8.3281863  29.9999462  55.9633048   9.0812457  30.0214420
  56.2783130   7.7866328  30.7395874  61.2833293  55.2827514   1.4447866
  60.4062732  54.9133838   1.5476070  61.8006786  54.8670066   2.1345268
  62.1065410   8.6779416   1.9695840  62.2429736   8.7989343   2.9092537
  61.8497833   7.7600778   1.8810688  64.9784994  49.7968483  53.5605097
  65.8644772  50.1079082  53.3747435  64.7380733  49.2838526  52.7889776
  47.5503524   6.3942779  20.0683914  47.2148975   6.0005439  20.8737884
  47.8738340   7.2536862  20.3385959  21.3343563  70.6049593  10.6370388
  21.6457787  70.9923895  11.4550529  22.1092739  70.5750258  10.0759349
  62.5972509  40.3053999  47.2046852  63.4704256  39.9843645  46.9794369
  62.6656485  41.2573004  47.1309519  75.2984031   6.3954795  14.5918499
  75.2626499   6.0903705  15.4984127  74.5045551   6.0435021  14.1891895
  82.1996307  57.1073914  64.6763802  81.8530750  57.9206657  64.3093348
  82.9624939  56.9059753  64.1344357  62.8687048  12.6708984  58.5964918
  61.9353390  12.7266717  58.3916807  62.9233885  12.8906643  59.5265150
  30.2573895  14.2796004  66.2159967  30.9752798  14.1366720  66.8327951
  30.5508041  13.8622499  65.4060841   1.8861969  46.4630092  17.5367675
   2.8216799  46.2752593  17.4602829   1.6876729  46.3180602  18.4618698
  69.1480064  33.1619287  42.5905085  69.0512419  32.4185371  41.9953299
  68.3507442  33.1501007  43.1200981   0.4482897   9.2328418  15.2707801
   0.9818037   9.4950974  16.0209880   0.8104046   9.7266162  14.5350586
  57.2276466  39.6688442   4.1365276  57.2253411  38.7362610   3.9208542
  56.9832175  40.1041554   3.3198343  49.8914289  40.7722759  49.6562386
  50.5339956  41.3520384  49.2473125  49.3435669  41.3549709  50.1821136
  44.0913471  21.8540728   7.1598993  43.4429773  22.2061503   7.7697216
  44.9232944  22.2245562   7.4545894  51.4162588  33.9338183  59.4739819
  52.0849848  33.5539341  60.0438261  51.7811251  33.8571477  58.5923767
  58.4539318  45.9224033  54.1620350  58.6681318  45.0165176  54.3850183
  58.2427073  45.8958292  53.2288122  44.2181969  20.6943631  51.6373920
  44.9950886  20.1466584  51.5247250  44.2153978  21.2667894  50.8702183
  48.9732170  46.0951090  65.5335331  48.9417171  46.0320282  66.4881325
  49.8892117  45.9268093  65.3124762  36.2314916  53.3965254  64.9110365
  35.9174156  52.5615978  65.2581358  36.4315772  53.2141638  63.9929152
  69.4169658  67.7573355   9.3062816  68.7034863  68.2837494   8.9456354
  70.2035993  68.0940755   8.8772760  82.9271221  55.2834606  40.9217644
  83.8587093  55.2215958  40.7107019  82.5184059  54.5867443  40.4081726
  86.1525631  50.6484985  62.9803896  86.2842083  51.5818071  62.8135347
  86.8788815  50.4028559  63.5534191   6.5828130  42.9120636  46.8014479
   6.1332605  42.0670700  46.8124151   6.0811040  43.4422541  46.1822367
  63.4930182  56.0499048  54.8239470  63.7875128  55.1525211  54.9795341
  62.9629850  56.2645292  55.5915594  85.6509876  71.7733049  68.1701469
  85.3556347  71.0640430  67.5992298  86.0256863  72.4210024  67.5732183
  25.2643147  74.4160898   3.1452594  25.6203118  75.0865157   3.7283788
  25.2907029  73.6107357   3.6619220  54.0513500  37.3803533   6.7415081
  54.4448074  38.2526219   6.7177282  54.7026428  36.8357814   7.1836410
  69.7160196  25.5071568  50.7484198  70.5026484  26.0511804  50.7098675
  69.5033646  25.4592800  51.6804695  24.6122971  57.8857668  17.5284706
  24.4941082  57.4487169  18.3718238  23.7781468  58.3271738  17.3684822
  73.7181568  57.9127789  57.4787569  74.2465591  57.1160889  57.5268364
  73.7037897  58.2451773  58.3762741  68.8469458  30.2065134  62.8337097
  68.3794546  30.3912020  62.0191097  69.6393776  30.7408953  62.7815342
  71.8778896  35.1630235  64.2707253  71.9935560  34.8156548  65.1551390
  72.5012827  34.6707392  63.7366199  26.4103683   5.2927792  29.4356571
  25.8017429   5.0629247  30.1377712  25.8489784   5.5921662  28.7205063
  67.7723265  46.4790058  62.8673887  67.5727034  45.7098150  63.4009838
  68.5995102  46.2635469  62.4365997  72.0635646  42.7046186   1.9120680
  71.7970984  41.8645813   2.2856508  71.5081828  43.3489134   2.3510061
  25.8730927  62.9490812   6.6324220  25.0310269  62.6091154   6.9350372
  25.7795754  63.0087693   5.6816707   6.8156185  73.5301693   3.1505142
   7.2345391  72.8727444   3.7059675   6.9881430  73.2337864   2.2568594
  12.5602659  36.1950696  18.3187996  12.7522167  36.2446845  19.2552505
  12.4110301  35.2640641  18.1538997  83.5932922  37.8507042  67.4772263
  83.7457085  36.9091463  67.5576305  82.6786995  37.9680753  67.7340937
  71.8084431  53.4832239  70.2045631  71.8754482  54.4373989  70.2405405
  72.5286055  53.2138777  69.6344328  50.9214147  32.5649417  12.9546486
  50.2129348  32.2787488  12.3781238  51.1429008  31.7869103  13.4663520
  20.3249452  31.3067079  65.9966326  21.0677717  30.8787584  65.5708456
  19.8513982  31.7318583  65.2816248  75.9707737  42.7097368  58.9521790
  76.0738277  43.4666920  58.3754349  75.0667000  42.4262619  58.8160944
  63.5450443  30.9549153  18.9499412  63.6478504  30.8945859  18.0001960
  64.3630775  30.6042207  19.3021618  55.2061923  16.7324460   2.7823196
  54.4572719  17.0807946   2.2985731  55.2042945  15.7958615   2.5847517
  50.8075841  28.0228389   3.1659589  51.2355789  27.7275432   2.3623119
  50.1098140  27.3845685   3.3141552  57.9080772  52.2848749  62.5666332
  58.8097286  51.9980812  62.4217033  57.3771238  51.6720963  62.0578909
  53.3788761  17.4047196  13.2230602  53.4511836  17.4852670  14.1741119
  53.8406165  18.1706918  12.8820167   8.2094476  66.1872864  66.5831900
   8.3192251  65.8476734  67.4713612   7.3461435  65.8749247  66.3123322
  63.0183792  40.9508181  59.2296791  62.2536087  41.2709141  58.7512445
  63.4745264  41.7441130  59.5104742  28.8285199   3.2902746  60.1927662
  29.2355767   3.6582785  60.9770536  28.8846436   2.3426943  60.3159475
  47.5296243  22.0338595  23.7275730  47.4685653  22.3570455  22.8286491
  48.4061654  22.2894252  24.0149532  67.8058672  69.7363853  60.3400993
  68.7065983  69.6345997  60.0326014  67.7038097  69.0607071  61.0103750
  52.8054889  22.6355899   3.6475073  52.0190223  22.8275979   4.1582237
  52.9708656  21.7056764   3.8028799  58.4278011  73.7706852  67.5826406
  58.1037283  73.7293196  68.4823656  59.3547297  73.9921999  67.6718855
  55.0111723  57.8700399  67.0926952  54.3247795  58.5321712  67.0109701
  54.5878887  57.1409559  67.5460196  48.5064650  81.5056515  59.6643066
  48.4156609  80.8231354  58.9993525  48.9198112  81.0638809  60.4060698
  63.5301876  58.0307293  65.9192324  63.1017733  57.7169895  65.1228285
  62.8434658  58.0075502  66.5856457  67.0728445  33.5397863  60.8804226
  66.9799948  33.6146426  61.8301630  67.4803925  34.3638706  60.6139231
  14.5473846  22.4578011   8.3871208  14.2039998  23.0404485   9.0644966
  15.4760726  22.3647273   8.5995041  68.0982669   1.6035521  20.8235298
  68.2943710   1.3091052  21.7129551  67.1433528   1.5714038  20.7656704
  75.6377077  74.0047979  21.9978786  75.8483553  73.3952475  22.7052069
  76.2070465  73.7395048  21.2755871  36.3153687  53.1323715  13.2410846
  35.4401913  53.4558173  13.0273758  36.6435566  53.7459047  13.8984333
  77.8068829  22.5299025  54.4388056  77.9855824  22.3183870  53.5225296
  76.8940592  22.8179193  54.4445038  49.7300577  38.5107899  61.7320395
  48.9766693  38.8703847  62.2003603  49.7318268  38.9704275  60.8924198
  20.3262790  29.1428674   5.6344209  21.1571773  29.0813697   6.1056505
  19.6839603  29.3627656   6.3091789  22.4458536  21.6355288   0.9907232
  23.1663450  22.0647109   1.4521680  22.4687894  22.0097602   0.1100145
  20.1231559  13.9103425   1.3965593  19.6303924  14.3287909   0.6906448
  19.6785434  14.1892636   2.1970306   1.6722963  20.1503778  65.4465437
   2.5823305  19.8683929  65.5389690   1.5049932  20.6791735  66.2266827
  74.4586468  65.4963923  66.3471794  75.1310444  64.9277925  66.7224169
  74.9476051  66.2233973  65.9616709  80.7240009  70.5055523  48.9687920
  80.1485634  71.0560513  49.4998789  81.6032410  70.6887913  49.2998457
  84.6912091  12.1734743  15.7654369  84.8318666  11.5046339  16.4355803
  84.0276521  11.7972975  15.1871538  41.1806758  31.8731702  23.5578666
  40.5032667  32.1707547  22.9505859  41.6465076  31.1872256  23.0796276
  38.0483182   1.6410792  14.3796669  37.7765592   2.5313056  14.1563450
  38.9426740   1.5727294  14.0454708  64.3048590  13.5913877  70.8527327
  64.3352144  13.0368738  71.6323709  64.6303623  13.0315618  70.1478338
  31.9515689  14.8654569  25.7576881  31.5470680  15.2676833  24.9890457
  31.7195829  15.4465211  26.4821087  16.8808492  32.7685225   9.6133266
  17.2680696  32.1598494  10.2424560  16.4400419  32.2062982   8.9762817
  40.1424631   0.7215608  12.4105583  40.1996930   1.2220776  11.5966545
  41.0306533   0.7413876  12.7668796  85.2004528  48.3496904  64.6447754
  84.5804691  47.7500057  64.2297697  84.7012424  49.1553259  64.7788334
   3.1277808   6.5484775   2.1914707   3.7129172   6.8718684   1.5064417
   2.2962817   6.9926942   2.0256076  57.5027323  65.6749296  52.4923229
  58.1603384  65.2538729  53.0459452  57.8984880  66.5101719  52.2433662
  61.3043731  75.3862460  20.4355083  60.8804219  74.6387322  20.8570800
  61.0268944  75.3344973  19.5208774  19.1250744  71.3610967  24.9139534
  18.8296643  70.5034693  24.6082721  18.5526362  71.5616639  25.6544338
  10.7176628  73.1637199   0.1950060  10.9649935  74.0458663  -0.0822605
  11.4447203  72.6103218  -0.0902476  19.6903506   1.1308889  39.8625278
  20.2495470   1.3215380  40.6156445  19.1465845   0.3965883  40.1477528
  60.3186607  67.2872686  49.1656160  61.0973644  66.7312908  49.1383410
  60.6584358  68.1676483  49.3259764  78.3135551   3.0490332  64.2954397
  78.8182586   3.5873442  64.9051428  77.5044148   3.5407762  64.1550541
   6.4909871  56.2292636  13.6399208   5.7732852  56.0975993  14.2594371
   7.2491463  55.8255923  14.0623890  70.6304216  17.1471047  32.6396108
  70.2517796  16.5506136  31.9938064  69.9453306  17.2514415  33.2999134
  87.1948338  44.8068333  40.4070520  86.6588879  44.8412323  41.1993980
  86.6590881  44.3259668  39.7762012  39.0820344  19.7366012  12.1949421
  38.7750753  19.5961488  11.2992416  39.7064193  19.0274394  12.3481212
  37.7704175  17.3962987   3.8496099  38.2857498  18.1330645   4.1779934
  36.9697841  17.4114001   4.3740020  86.1133671  74.2522335  14.5846522
  86.3372040  73.5520601  15.1977491  86.7092514  74.1239119  13.8466215
  63.3095153  15.0371325  21.8519340  63.4627136  15.8877957  21.4406715
  62.6794704  14.6030152  21.2767635   5.1621911  35.9584594  62.5180149
   5.5922315  35.4293394  63.1898260   4.3733690  35.4650855  62.2931147
  80.2379513  72.3158693  58.8217115  80.6325912  72.7703762  58.0774593
  80.7861805  71.5413618  58.9474678  62.0636257  32.5942004  15.7984195
  61.2894138  32.5875867  16.3612590  62.5120624  31.7724955  15.9982620
  50.7745075  51.0290480  68.7233543  50.2934456  51.8114090  68.4536743
  50.9057045  51.1412191  69.6648645  15.7748642  79.4394095   1.7166172
  15.9122506  80.3811272   1.6140304  16.4788714  79.0377815   1.2074028
   3.0163667  35.4741144  56.0113239   2.6642511  35.2157617  56.8630886
   3.3365629  34.6580267  55.6270027  25.5063382  11.8265848  48.5429192
  25.1312008  12.7060347  48.5883760  26.4400616  11.9555788  48.7094879
  16.8362138  41.8211746  60.1909685  15.9880922  41.6621399  59.7766781
  16.6468809  42.4437857  60.8929253  50.3423405  31.9845891  64.1858435
  50.6270695  32.8204656  63.8164234  50.9441328  31.3404512  63.8127947
  48.9190292  67.2455549  59.7455597  48.2522345  67.5224543  59.1171122
  49.0646362  68.0156040  60.2951622  49.5244360  44.5775986  54.2211723
  49.8177719  45.1696491  54.9137449  48.5697556  44.5823002  54.2904758
   1.0050008  42.6781321  70.0246191   0.7156560  41.7658377  70.0398970
   0.5985257  43.0712748  70.7969236   1.9300022  14.0945559  67.9288864
   1.1623850  13.6831884  67.5316858   1.7003765  14.1876154  68.8534689
  13.5908588  23.4172070  13.5398231  12.7149852  23.0334342  13.4974323
  14.1502031  22.7040208  13.8476024  11.6990748  61.0618003  25.9282909
  12.4728861  60.8728667  26.4590965  11.9695845  60.8640774  25.0316558
  37.5059342  63.6351919  66.9481659  38.3456087  63.4198952  67.3541546
  36.9664717  63.9575768  67.6701641  20.9634145  24.6317256   5.8934961
  21.5829500  24.7550214   6.6126667  21.5112432  24.4079411   5.1411424
   5.3975191  80.5536516   8.7060962   6.2696209  80.5537136   9.1006504
   5.4302063  79.8547299   8.0528961  66.7061090  38.6957455  50.9633684
  67.5912380  38.3632302  50.8143187  66.2216139  37.9433084  51.3029671
  27.1219524  18.7310613  10.3904281  27.4722322  17.8436196  10.4677616
  26.7020019  18.8971818  11.2343917  64.1526302  50.0350631   1.2362562
  63.4834941  49.4257415   0.9244524  64.9587711  49.5191253   1.2497650
  11.6331520  70.4861172   3.8639627  12.0692053  70.8587583   4.6302734
  12.1598521  70.7816704   3.1213556  19.4344648   6.2878383  17.0624576
  19.8928531   5.7218850  16.4413295  18.9638265   5.6826842  17.6356254
  68.8889837  57.7974033  63.8690901  69.8359346  57.6659870  63.8216496
  68.7781382  58.7480688  63.8556767  80.9840775  23.5275984  62.4510813
  80.8158684  22.9966736  63.2295799  81.4839268  24.2767024  62.7754641
  63.9042377  46.5785789  53.8956594  63.0486679  46.9956398  53.7942028
  64.3922138  46.8399572  53.1147671  82.7383995  57.8389168  57.9687023
  81.9813824  57.2625446  58.0733538  82.3785496  58.6402798  57.5885010
  72.3708200  77.9198456  58.6528349  73.0440855  78.4069061  58.1777430
  72.2069168  77.1476460  58.1114721  66.4289474  15.1425123  46.8030405
  67.2333193  15.5268276  46.4544487  66.5892982  14.1989231  46.7904329
  70.6968959  26.6387952  19.4175468  69.7957214  26.8998969  19.2279373
  70.9296115  27.1342099  20.2028118   1.7472132  25.8540500  41.7879234
   0.7983287  25.7286466  41.7766414   1.9786366  25.8475268  42.7167068
  36.2711620  74.6406031  34.8725986  35.3261280  74.5161963  34.9601555
  36.5766072  73.8500500  34.4276762  72.8992462  76.0333490  53.4772110
  73.7241507  76.4974451  53.6199570  73.0755472  75.1375484  53.7647629
  54.2069991   9.1322864  61.4760051  54.0720733   9.2366898  60.5341278
  53.6722453   8.3742726  61.7119918  80.0029087  55.7271242  29.9906278
  79.4459867  56.4726400  30.2148604  80.8113194  56.1218452  29.6636891
   6.6068742  49.5484066  37.4353099   7.3382566  49.0777683  37.0355463
   5.8263013  49.1078854  37.0993328  60.1789968  55.7316299  14.0954338
  59.4137733  55.6463321  13.5267673  60.9269708  55.6160970  13.5094200
  62.6609230  78.4592247  43.2685995  62.1337318  78.3904457  42.4726248
  63.1726933  77.6505423  43.2875443  11.3833520  31.9707298  51.9307566
  11.6381357  31.5111303  52.7308083  10.4490659  32.1463013  52.0425892
  36.4403089  12.7041209   1.4441047  36.1371930  12.8926051   0.5559478
  36.9981082  13.4485257   1.6698442  38.4166661  61.4620765  14.0304790
  38.9091530  62.2780068  13.9413486  37.5573387  61.6590555  13.6576687
  47.0533705  75.1381397  43.7934351  46.1068869  75.1780796  43.6563110
  47.1983099  74.2929602  44.2187548  72.1201992  72.2347403  45.9906387
  72.6936388  71.7994165  45.3598499  71.2766504  72.2990608  45.5428457
   4.9992450  17.7092231   3.0470119   4.9461754  18.6549390   2.9090486
   5.8363326  17.5787700   3.4925399  11.8840065  58.8231059   4.6662603
  12.0585194  59.7609826   4.5877395  12.5095120  58.4123011   4.0694271
  71.6458988  55.8748913  49.4002390  72.1731234  56.0054588  50.1884127
  72.2667503  55.9712601  48.6781025  81.1441326  65.6090832  42.0152998
  81.8517303  65.0797462  41.6474199  80.7546425  66.0473585  41.2586975
  73.3884954  34.2199922  47.7614355  73.0424786  33.4082627  48.1323814
  73.1266499  34.8984599  48.3838081  66.7554331  43.1534958  57.4647427
  65.9753084  43.2855844  58.0034399  67.3008251  42.5553703  57.9756498
   8.3019445  52.6827717  35.7935500   7.9835508  53.1747484  35.0367069
   8.9578054  53.2546711  36.1923146  39.9139531  28.6491311  11.7408786
  39.2739900  28.5161317  12.4401508  40.5273040  29.2921412  12.0966468
  39.5976051  34.6590531  14.2454944  39.9299415  33.7697518  14.3676696
  39.1357597  34.8562062  15.0603996  37.8134521  40.0069297   4.9489008
  38.5072835  40.6551803   4.8280607  37.7201303  39.5931971   4.0907941
  44.5120891  16.3905347  30.2401577  44.1355117  17.0234597  30.8515678
  43.9038070  15.6516278  30.2554355  40.7298501   4.4157470   7.4735199
  39.7849019   4.4141066   7.6261554  41.1045249   4.7349036   8.2944904
  59.8744345  67.8874207  63.6239147  60.6605339  67.3666573  63.7884998
  59.5045805  67.5161982  62.8228951  35.2988990  21.0928405   1.5188251
  35.1098855  21.0163463   2.4540554  35.8948501  20.3667605   1.3347421
  39.3587573   6.8699325   4.9336467  38.9813693   6.2832702   4.2781721
  40.0496658   6.3531506   5.3481470   5.5057486  18.8266957  25.8560787
   5.4281386  18.9882243  26.7963539   4.8426803  19.3923581  25.4603515
   7.0874291  34.1955722   2.8740774   7.7024251  34.0640605   3.5956894
   7.5506478  33.8700307   2.1022688  66.4802790  53.7495327  66.6203308
  66.9947195  54.1245604  65.9055328  66.1692095  52.9116774  66.2775946
  62.1026691  25.4741967  14.0099655  61.9930728  24.7545779  14.6315513
  62.5441821  25.0770820  13.2592331   0.1006505  39.9941397  43.0247211
   0.9782979  40.1697588  43.3640194  -0.0304225  39.0575910  43.1728125
  23.3857098  10.0562983  47.7173042  24.1823426  10.5563860  47.8948164
  23.6624947   9.1410761  47.7620125  22.2648414   7.1148980   6.3101421
  22.4830945   7.7622140   6.9806514  21.3227828   6.9766295   6.4083515
  81.9532299  56.2740946  36.0643029  81.8247604  55.3481531  35.8585000
  81.0788345  56.6578054  35.9977484  31.0173550  74.7178061   2.7613435
  31.2904683  75.0209411   1.8954597  31.6977349  75.0389131   3.3531271
   6.8251761  39.4451869   4.9509082   6.1859663  38.7443221   5.0791059
   6.3833149  40.2331603   5.2672849   8.3511146   4.1175712   1.4790283
   7.6302036   4.4427836   2.0182405   9.0316208   3.8780463   2.1081291
  79.6598864  62.3785400  57.4301481  80.0588131  63.2482052  57.4579000
  79.3620777  62.2229290  58.3264303  67.4936279  27.0780051  24.8332344
  67.8790553  27.0170415  25.7072864  66.6658195  26.6024697  24.9028049
  19.0045675  38.0511916   1.0636316  18.5246452  38.5542548   0.4057298
  18.8556655  37.1370995   0.8217607   3.5149190  73.8705873  65.3884935
   4.2352483  74.5001936  65.4194164   3.9229963  73.0294800  65.5940151
   5.2173421  77.7952242  70.7704449   5.2118299  76.8601036  70.5661201
   4.5099447  78.1606531  70.2391434  64.6585560  62.1285200  67.9685116
  63.7702942  62.0445633  68.3151674  64.6368980  62.9300976  67.4457884
   1.9709285  14.6714080   5.7056795   1.2266358  14.2321361   5.2942167
   2.0716627  15.4851878   5.2118717  65.2474070  46.4760590  57.8537750
  66.1117172  46.3573551  58.2476187  64.6634722  46.6238499  58.5976887
  25.3106101   8.6423171  26.5483795  24.5252069   9.0549481  26.9077049
  25.7821973   9.3569673  26.1204563  41.1237605  17.6037896   8.7649570
  41.3708623  16.9658196   8.0955015  40.9092601  17.0742047   9.5329128
  63.8528252  73.8737822  64.8366690  64.2945051  73.1194448  64.4466448
  63.2360029  74.1639900  64.1647005  47.0481189  10.5562985  15.2207695
  47.0489915  10.3443683  16.1542068  46.9325431  11.5060246  15.1908908
  62.9638275  31.2725604   0.3186403  63.6532768  31.7751182   0.7526050
  62.3564514  31.0424579   1.0217605  16.0556730  29.4234240  13.3404289
  15.3311189  28.8445676  13.5774551  16.4131435  29.7154057  14.1789947
  49.6372207  34.2598164   2.1350036  50.0826057  33.4276641   2.2943149
  48.8859638  34.0286553   1.5887342  29.7928651  33.9269936   8.7185035
  30.4318555  33.3877480   8.2525240  30.2892240  34.6943677   9.0031086
  32.9022582  40.0341285  13.2650219  33.5646613  40.1243937  13.9500843
  32.1828636  40.5966533  13.5518489  86.8302863  14.7095709  63.2532549
  86.2127822  15.4386740  63.1955481  87.6925653  15.1205378  63.1914759
  68.3717864  67.9637416   5.9856115  69.0770429  67.3424037   6.1666761
  67.6088326  67.5969036   6.4323412  37.1138938  23.6974919   2.1184145
  37.1808799  23.0427516   2.8134380  37.2571071  23.2046235   1.3104520
  61.1796172  21.8010104   1.7337738  60.6177600  22.1506703   2.4253593
  61.7012485  21.1257136   2.1674858  15.3586671  53.9188576  71.3107872
  14.4057367  53.9768267  71.2415743  15.6843850  54.4558907  70.5884743
  27.6998170  48.8012278  18.8996254  27.5830873  48.7889827  19.8495994
  27.4176868  49.6767676  18.6349140  65.7767344  66.0542345  46.0703325
  66.4260912  65.8826876  45.3883171  66.1146402  65.6003618  46.8423748
  46.3379040  80.6339748   0.9340845  45.4325333  80.3401382   1.0350500
  46.6644612  80.7158907   1.8301235  50.2257395  76.6324949  71.0582447
  51.0107231  76.3630915  70.5813265  49.5358801  76.6477728  70.3948498
  41.5095886  45.6529677   4.0473161  42.4335082  45.8345759   3.8752113
  41.4134296  45.7748473   4.9918399  19.2403641  79.3482883  33.6293541
  19.7291317  79.7817381  34.3289695  18.6252680  80.0130423  33.3195243
  73.8519430  70.2877331  58.2602024  74.5977879  70.6446266  58.7424660
  73.5304737  69.5735502  58.8105059  73.9066744  66.7464161  62.8088236
  74.3377542  66.7666864  61.9544315  73.0619764  66.3285971  62.6410580
   9.1452160  80.4209359  22.9200874   8.3600989  80.6177576  22.4091278
   9.1190758  79.4720777  23.0434356   9.1887948  36.4230990  48.7173080
  10.0341413  36.5513730  49.1476202   9.4116495  36.1213517  47.8366756
  27.0917400  17.8033078  24.8060642  27.5372489  17.9214728  25.6449829
  27.5429901  18.4001553  24.2090831  27.1601674  40.1731968  24.1421938
  27.5780198  39.3458867  23.9030528  27.7947900  40.6056881  24.7135448
  17.0872209  70.6183529  55.8144379  16.3338563  71.1278152  56.1129761
  17.0323465  70.6469250  54.8592424  58.9072307   3.0020631   1.6304479
  58.9454254   3.4754861   2.4614988  59.8229011   2.8321994   1.4092575
  51.4683326   4.7520030  14.1332470  51.5930446   4.2781890  14.9555431
  51.2911399   5.6537688  14.4009147  20.9903415  29.2497933   9.9939476
  20.2373298  28.6700976   9.8792396  20.8881076  29.9131263   9.3114792
   3.5962906  53.7926527  34.2432151   4.5422736  53.8595982  34.3730865
   3.3357993  54.6584840  33.9290367   5.8375635  57.2414763   9.0191875
   6.6919890  56.8312021   9.1528450   5.7454768  57.2986527   8.0681406
  59.9340248  15.6551886  33.9463544  59.0871143  15.7084453  33.5034752
  59.7244072  15.7464981  34.8758459   3.5833833  61.3972473  20.8884835
   3.7802312  61.0817337  21.7704868   4.3468950  61.9209051  20.6454706
   0.3682992  55.8926821  51.7789125   0.7668302  56.0683680  50.9265375
  -0.5673602  55.8120680  51.5937948  84.6937466  54.2087603  63.7861681
  84.6018982  55.1428175  63.5981846  84.8918915  54.1711140  64.7218752
  33.7720942  24.1245604  64.0477228  33.2802773  24.8688579  63.7007809
  34.6695876  24.4473338  64.1287041   9.9232133  34.3458713  17.4730049
  10.1699122  34.9518073  16.7742859   9.1250046  33.9247144  17.1540580
  36.4490962  67.3129559  69.1564989  35.5615735  67.0126486  69.3523312
  36.6204190  66.9925642  68.2709312  49.1268873  40.1020384  59.6025610
  49.1509533  39.5742893  58.8043547  49.3019390  40.9947538  59.3048286
  84.8528004  44.4055700  58.8353920  85.6630325  43.9028978  58.7513018
  84.6022415  44.3041801  59.7536373  43.1888523  69.9457415  32.9518352
  43.9024964  70.5474647  33.1636654  42.6361981  70.4347976  32.3422180
  49.9888277  75.2782631  46.3194990  49.8303699  74.4453192  45.8752871
  49.1346025  75.7100105  46.3307571  59.0705681  43.0889130  53.9753580
  58.5470200  43.1656599  53.1777096  58.5380745  42.5500727  54.5604467
  36.2458928   8.3366216  11.5723072  35.4297860   8.1003297  12.0131813
  36.9287952   8.1506169  12.2167335  16.6834631   2.9114466  60.5567741
  16.9429674   2.0494299  60.8820629  17.1537438   3.0064325  59.7284985
  80.6461223  34.8671735  33.7311588  80.8754905  33.9601624  33.5287891
  79.8364337  34.8021996  34.2375312  40.1116594   6.0012830  16.7281089
  40.6219085   5.1946748  16.6556202  39.3262943   5.8355725  16.2066017
  68.2048464  58.1837988  39.6452355  67.4876308  58.4180069  39.0561843
  68.9943743  58.4743118  39.1886377  62.9898723  54.2972720   3.3181034
  63.0582412  53.3441508   3.3740078  63.8371929  54.6167815   3.6282526
  16.1595996  11.8754828  28.9602981  15.6938251  11.0496200  29.0915619
  16.9989475  11.6189874  28.5782753  33.2155593  14.2198623   5.3637634
  32.8887399  13.4163058   4.9591432  34.0342363  13.9595950   5.7859836
  56.6797543  41.9074583  60.6105900  56.9381428  41.1426544  60.0962543
  55.7656479  42.0596361  60.3708315  71.9373703  36.6363788  59.2218018
  71.6679430  37.3580050  59.7900391  71.1940289  36.0333991  59.2316389
  25.6899872   2.3718290  60.9600973  25.6183472   3.1218367  60.3696823
  25.9560147   1.6465979  60.3948545  51.1401733  36.5180791   2.5203500
  50.6360706  35.7052148   2.4834285  51.6853031  36.4265597   3.3018146
  85.2971172  77.4561834  66.3054562  84.8029995  77.7761650  65.5506754
  85.6243134  76.5992975  66.0317326  34.4731465   3.6065893  64.5172548
  33.8763562   4.0089922  65.1482391  35.2226296   3.3254175  65.0420904
  64.8711395  43.7781763  63.5669279  64.3538570  43.4010410  62.8552961
  64.4674397  43.4353161  64.3642378  65.4486513  57.8232527  54.5396519
  66.3133478  57.4795008  54.7640848  64.8804712  57.0530224  54.5274973
  39.8205986  25.4191904  64.6559191  40.2535763  26.2580328  64.8144102
  40.1275483  25.1510935  63.7898159  52.1487084  18.4061174  59.2259502
  52.3513165  17.9828958  60.0602531  52.2834435  17.7211981  58.5709953
  40.1843103  31.8359530  18.1276737  39.9928029  32.6418364  18.6073814
  41.1384900  31.8227399  18.0528865  50.9070524  13.2125485   7.4714409
  50.1259025  12.6779235   7.6136146  51.5392669  12.8882039   8.1128011
  12.7344163  42.4369872  12.1493946  13.2583173  41.8154490  11.6439663
  12.0630344  41.8988765  12.5688110  80.7704449  42.4863863  60.0934362
  80.3918552  41.6197062  59.9458981  80.7338142  42.9126787  59.2371893
  83.7830925  46.7035580  35.3908515  83.9085197  47.2661209  34.6266389
  82.8486443  46.4961815  35.3848290  31.1985722   1.0915308  65.3513765
  30.8997383   1.9988089  65.4129124  31.9681778   1.1308413  64.7835779
   2.9195688  22.3909640  70.0624418   2.8745935  23.1838584  70.5967903
   3.7093541  22.5031471  69.5334005  84.7131523  22.2624028   4.0297781
  84.3461593  22.8585160   4.6826158  84.9582656  22.8294528   3.2986103
  82.2943385  43.1218207  11.1876903  81.8402179  43.3937133  11.9852386
  81.5980705  42.8074515  10.6109653   2.2779939  70.6931973  26.7739964
   1.6354654  70.1481438  26.3197851   2.1375368  71.5723515  26.4224458
  40.4935494  11.7182093  45.2806425  40.4900780  10.8633928  44.8499250
  41.1053601  11.6165476  46.0097408  61.2787231  29.2755807  15.6512008
  60.6111511  28.7195456  15.2494465  61.9968685  28.6770881  15.8568893
  65.3416824  73.1007433  52.8172970  66.2767029  72.9441500  52.9493761
  65.0137806  73.3384085  53.6846066  57.1027088  69.1131592  48.9853621
  56.6524506  69.9154806  48.7212086  58.0126572  69.3806171  49.1145897
  63.3632231  61.6410780  28.6280847  63.5105038  62.4389553  29.1359568
  64.2419434  61.3124657  28.4381008  78.1151772  46.3665771  55.3618145
  77.7714491  45.4799271  55.4710627  78.8838625  46.2581491  54.8018169
   4.8169420  81.3541412  60.8970070   4.8343179  80.4633141  61.2467909
   5.6203172  81.7566776  61.2268543  63.8166475  66.8440199  44.1793633
  63.0254889  67.0114899  44.6914673  64.4971228  66.6875505  44.8341179
  77.8642750  26.9376945  51.4484739  78.0589342  26.5174961  50.6107569
  78.5370541  26.6076660  52.0440245  73.8977766  26.2376738  59.4095945
  73.3715630  25.4945278  59.7046566  74.8034573  25.9437704  59.5075607
  31.4033356   0.4054098  68.1542253  31.3804474   0.6493406  67.2289133
  30.9848156   1.1384420  68.6055899  73.7085629  65.0085449  43.0750608
  73.5626268  64.3813086  42.3668861  73.9178753  65.8291149  42.6288748
  13.8939187  52.4050713  57.1989584  13.9903638  51.7180300  57.8584290
  13.1536195  52.9288626  57.5052738  50.3765233  20.1193822  17.6730667
  49.4794401  19.8623813  17.8862129  50.3713497  21.0749925  17.7279029
  64.8188877  47.7990913  67.7499914  65.4090214  48.5478687  67.6644945
  65.2487659  47.2266674  68.3854198  70.9830093  47.4620104  49.5550299
  70.0987196  47.7976561  49.7020435  70.8619976  46.5236139  49.4101334
  28.0992928  69.1754492  17.4722610  27.7029648  68.4833701  16.9429432
  28.0348530  69.9600537  16.9277702  40.0196250  31.2132514   0.9383665
  40.1805814  31.7025817   0.1315914  40.1145013  30.2951825   0.6846319
  18.3156379  22.0752633   2.8160511  17.3949035  22.2778476   2.6504074
  18.4444602  21.2105000   2.4264036  11.9843944  35.9408772   8.4445797
  11.4759763  36.7346394   8.2782255  12.3015626  36.0432542   9.3418823
   8.3436385  15.8709745  70.6934690   8.0969277  15.4157572  71.4985418
   8.4292355  15.1753073  70.0415754  80.2680111  51.4119768  31.4682889
  80.6954288  50.5907249  31.7113900  79.7724009  51.6638517  32.2474909
  57.4115610  78.8979959  69.3889093  58.3159685  78.6698580  69.1739082
  57.3295355  79.8172045  69.1348362  52.8780540   1.9529164  16.6994129
  51.9217952   1.9270719  16.7331253  53.1583103   1.4608634  17.4711452
   7.6260271  13.2455473  66.0760927   8.2503119  12.5317697  65.9456539
   6.7690459  12.8428011  65.9360552  77.6384783  61.4271402  51.6602516
  76.6877031  61.3686514  51.5662432  77.8010607  61.2235737  52.5813198
  46.5130075  36.9575227   8.7507187  46.8291839  37.6505101   8.1710373
  46.8676551  36.1513293   8.3758770  64.4970020  72.3235381  20.9564338
  65.3055175  71.8801368  20.6996570  64.5929798  73.2128966  20.6157432
  49.9475416  64.0105308  16.3282714  50.3381141  64.0496028  17.2012840
  49.2340549  64.6480048  16.3563285  42.3559936  42.3340285   9.1760002
  41.5952476  41.7577708   9.2496620  41.9876321  43.1904185   8.9588771
   2.5418479  53.3982272  52.6528645   2.1107013  53.8354535  51.9185734
   1.8953425  53.4212012  53.3583689  59.9322557  12.5223386  38.5015273
  59.2278862  12.0482516  38.9435005  59.5145178  12.9092681  37.7321029
  76.1463213  19.9916005  42.2225904  75.7119513  20.1994967  41.3953447
  76.1255407  19.0358233  42.2704411  12.4543059   5.6847769  56.4003944
  11.6791046   6.1723781  56.1219311  12.1799123   5.2346134  57.1993256
  55.1038313  14.4887960  39.5149922  55.5195713  15.2435422  39.9318290
  55.5281544  13.7300539  39.9156070  68.5197115  66.4901498   1.4822469
  68.9122295  67.1330169   2.0729099  68.3617115  65.7236341   2.0333562
  59.9288505  25.2244337  11.6533409  59.9272841  26.1758395  11.7584930
  59.2924874  25.0593074  10.9576355   2.5860960  55.6401939  66.9887495
   2.0251400  55.1506395  66.3871717   2.2323567  55.4469652  67.8569460
  23.5894060  17.6641703  35.1393318  23.4953308  17.4611926  36.0700202
  24.5221710  17.5441086  34.9610996  16.2397468  13.2647061  31.2515092
  16.3269269  12.8110909  30.4131389  15.3229654  13.5382712  31.2816191
   7.3568833  27.6793313  58.0306864   6.4226848  27.8401732  57.8978872
   7.4725682  27.7099562  58.9803743  58.2205009   3.5028055  58.1411743
  59.0262175   3.0355710  58.3619595  58.3918285   3.8814798  57.2789192
  51.4418905   6.5531834   7.0947204  51.1854713   6.4089997   8.0055938
  50.6795924   6.2787588   6.5849910  85.7898316  52.2664804  58.3132172
  85.7066211  51.3630791  58.6184597  85.8679876  52.1917076  57.3621464
  53.5127980  77.0515085  58.1201887  53.3107812  77.9541369  57.8738499
  54.4100530  76.9152792  57.8158665  13.8660104  69.8636587  42.1855927
  14.3698174  69.3708963  42.8333473  14.5063884  70.4455192  41.7762232
  46.0547400  17.8626621  51.4935541  46.9058704  18.2640994  51.6686344
  46.2253809  16.9210100  51.5136290  45.9621143   3.6167541  70.8604240
  46.3077641   3.9973065  70.0529957  46.4093351   4.0927663  71.5601635
  28.8643837   0.5635358  41.4560938  28.7326407   1.0205367  42.2867727
  29.6165204   1.0019425  41.0581970  55.8707762  18.7477219  46.9207668
  55.5409527  19.5644689  46.5461063  56.2381554  18.2732761  46.1750031
  14.6993548  61.6129632  49.1725397  15.0708348  62.0430357  49.9427795
  14.9839169  60.7020206  49.2462873  37.8446776  59.4831629  69.2569733
  37.8168542  59.6711392  68.3188248  37.3031909  58.7006803  69.3606234
   0.9007922  50.8109655  13.4715114  -0.0084886  51.0434099  13.2833419
   0.8751383  50.4374005  14.3524299  43.0127907  19.6179819  57.3569202
  43.4576130  20.1247740  56.6775608  43.6252308  18.9139462  57.5701904
  51.1826938  59.5474954   3.8931451  50.4741257  59.3724771   3.2738481
  51.9711202  59.5821603   3.3514677  25.4617237  38.8152082   1.7396770
  26.0250267  39.5451398   1.4825330  25.9632855  38.0330436   1.5097080
  32.3281407  10.9932029  55.3810167  32.8752971  10.4227066  54.8412180
  32.8875756  11.2324262  56.1199617  19.1306216  55.3613491  50.3321075
  19.3019731  55.2234669  51.2636948  18.9661319  56.3011808  50.2553701
  43.6077738   9.0989131  70.1199961  44.5633554   9.1450840  70.1510000
  43.3728456   8.5126889  70.8392906  62.7301931  39.7617078  62.1555233
  63.4331846  39.1184592  62.2464514  62.2097731  39.4450021  61.4172220
  51.3901043   9.7750854  47.1879816  51.4291525   9.2468995  47.9853058
  52.1172047  10.3917444  47.2733355  37.2422829  68.4986980   4.7156082
  36.7044678  68.0728848   4.0480266  37.1430722  69.4347604   4.5418964
  82.9533419  76.8679233  10.6994724  82.7118692  77.7271016  10.3534436
  83.8575158  76.7396952  10.4126668  15.0755651  80.7383162  30.1029277
  15.1772077  80.7829673  31.0536695  14.1752631  80.4407447  29.9720120
  73.2936621   0.5646511  42.6578140  73.6423397   1.1344691  43.3433533
  73.9738941   0.5562018  41.9844341  29.6386643  55.7144089  18.3509765
  30.0894254  55.1003988  18.9306675  29.6228327  55.2739664  17.5012813
   7.4119473   8.6651576  48.7241030   6.7822969   8.1114000  48.2624483
   7.8393519   9.1699904  48.0322170  25.0587273  24.5926380  59.0028143
  25.1603842  23.9057755  59.6616888  25.8709311  25.0964808  59.0547895
  15.6586701  56.6804571  29.9333239  16.0571630  55.9092612  29.5299721
  15.1806600  56.3361473  30.6877708  33.8270903  10.2580345  70.1621008
  33.6108017  11.1560345  69.9110031  34.6761560  10.3291988  70.5982828
   2.0872554  23.5930824   8.1100327   3.0023000  23.7903428   7.9099971
   1.6291958  23.7119484   7.2779965  86.8011770  62.0525475  70.7010412
  86.0532889  62.5167234  70.3249598  86.7605219  62.2510929  71.6365433
  73.8879865  32.1121378  11.3067184  74.0307038  32.6737638  10.5448471
  74.7680610  31.9167151  11.6284404   1.3437945  52.7564592  65.0080204
   0.6879313  53.2331557  65.5167818   1.1213309  51.8341417  65.1348019
  83.8745605  10.6603193  33.9763832  83.1073305  10.3413606  34.4516253
  83.6450603  11.5545702  33.7236476  19.6668202  54.4250221  52.9450703
  19.9829490  53.6669202  52.4535704  18.9099891  54.0969892  53.4306955
  46.9878626   4.7856703  52.7965593  46.3697672   4.6327662  53.5112667
  46.4655542   5.2075660  52.1143389  68.2178395  51.0327442   8.4831987
  68.6753862  51.7977531   8.8319765  67.4752443  51.3968833   8.0013452
  61.3937991  36.6174863  16.2135254  60.6178229  36.6546662  16.7727314
  61.3440364  35.7597752  15.7915245  41.7908151  79.6607431  70.3875065
  42.6813180  79.6398543  70.0370693  41.7103345  80.5275343  70.7855368
  14.7931710  40.1239939   5.0634943  14.4439211  39.3868564   5.5643783
  15.4150906  40.5440609   5.6576286  48.8693338  70.0773604   2.7853189
  49.8226302  69.9910553   2.7819429  48.6918514  70.7970412   2.1796880
  44.4233084   9.2061853  47.0881414  44.2671347  10.1379788  46.9345140
  44.8064613   8.8894928  46.2701416  85.1932996  45.0658466   7.8821788
  84.3067592  45.3663637   8.0820976  85.7558148  45.8016612   8.1238065
  66.2354422   7.8665477  65.9198093  66.1883783   8.4198821  65.1401711
  66.9364738   7.2432894  65.7292032  17.4359381  33.8782287  66.2585211
  17.9083335  33.0523729  66.3635778  17.7390480  34.2223287  65.4183102
  14.8390782  25.2209544  53.2104921  14.0876126  25.2544451  52.6185369
  14.9841273  24.2868233  53.3608007  59.0179300  22.4564123  26.3177276
  58.6306810  21.6242552  26.0460877  58.2828903  23.0694008  26.3317084
  58.7014246  36.8563557  64.8499870  58.2285976  36.4902830  64.1025543
  59.6241665  36.7952466  64.6029186  36.5941722  74.9875189  65.0992727
  37.1298844  75.4037161  64.4239759  36.3814265  75.6960572  65.7066822
  24.6311004  65.3820260  44.3090439  25.1096112  64.5614214  44.1912794
  24.1218860  65.4799409  43.5044670  24.8166472  68.2554014  43.8821650
  25.3827531  68.4097917  43.1259108  25.0566442  67.3801036  44.1862822
  78.3538055   7.5439662  56.5447664  79.0652704   7.7825326  57.1390152
  78.7529421   6.9312954  55.9270620  86.3472264  26.7173167   8.2993446
  87.2257751  26.9989772   8.0443035  85.8979314  27.5263293   8.5440193
  19.2044789  62.5634189  40.6074238  18.8892896  63.4245641  40.3329849
  20.1513202  62.6720960  40.6963873  11.0859719  47.0104118  37.9390941
  11.8538370  46.6751327  38.4019218  10.3586808  46.8632056  38.5437523
  43.5745341  66.6560407  64.5291853  43.2288081  65.7760556  64.6786165
  44.1544158  66.5604444  63.7736511  21.2273986  64.1610534  50.1082420
  20.5632646  64.4959123  50.7107639  20.8737142  63.3259769  49.8019981
  37.6226330  14.1121995  44.2297935  37.9514194  14.9883139  44.4311762
  37.9729247  13.9189470  43.3602047  75.9695237  55.5807002   1.8538557
  76.4914506  54.7827514   1.7695890  75.2357238  55.3288360   2.4145113
  72.2518492   0.9677544  53.3737564  72.2800493   1.8015003  53.8431215
  72.7158833   0.3555807  53.9448500  11.4870056   5.7023061   5.5856023
  10.6532057   5.2538693   5.4444776  11.3583501   6.5719426   5.2069078
   3.5754306  67.6665552  34.5731950   3.5408480  68.5970850  34.3515015
   4.0166027  67.6388485  35.4222131  32.5913143  26.3087869  42.6879263
  32.6219797  26.4759254  43.6299229  33.4919596  26.4406681  42.3918295
  47.3636580  41.1472082  65.9387064  47.3906946  41.6824627  65.1456118
  46.4951038  40.7450867  65.9267855  34.2391515  28.9045763  28.0153966
  34.9438429  29.0501189  28.6466336  33.7021637  28.2174873  28.4100986
  23.5380244  28.2415390  64.3944311  24.3696189  27.8707814  64.6897650
  22.9037189  27.5353575  64.5176935  38.7225015  66.4024920  39.5275140
  38.6729772  66.6014094  40.4625082  39.0932710  65.5208356  39.4895244
  84.1510353  68.4848006  36.9692874  83.5585913  67.7451236  37.1039009
  84.7140607  68.2119532  36.2448645  15.6241312  14.1140326   5.0706564
  16.5198698  14.3827565   5.2747903  15.5786887  13.1997855   5.3505073
  66.4894979  32.7628924  12.1541439  67.0729416  32.0394851  11.9249950
  65.6088226  32.4066945  12.0368038  14.1827924  70.8802552  37.8914356
  14.7567946  71.5759583  37.5708842  13.8710410  70.4428716  37.0991349
   8.1272030  32.5105643  51.5162468   7.6323777  32.0491529  52.1933556
   7.7920723  32.1574259  50.6921053  84.8504829  46.1970234  66.9738388
  85.2618694  47.0099163  66.6802406  84.8608017  46.2548351  67.9292345
  42.5561190   1.3999420  52.5290442  42.1695805   2.1942160  52.8977585
  43.4933949   1.5887299  52.4831533   9.4435158  20.8258326   5.2437387
   9.7792569  20.1202543   5.7966123  10.2138129  21.3549145   5.0365053
  67.5194216  41.2805271  53.9057302  67.4685240  42.2352314  53.9524508
  68.4004831  41.1034870  53.5761642  59.7349501   4.2349783  55.9378195
  59.2256355   4.7255048  55.2926731  60.2898645   4.8934719  56.3557768
   5.0524518  38.6239481  60.4641342   4.8987481  39.5315957  60.2018690
   4.3343351  38.1339979  60.0635242  24.1631675   5.0783443  71.2385225
  25.0098515   5.4311442  71.5121841  24.0839028   5.3320301  70.3189611
  40.2163649   6.8018478  41.5096712  40.2426529   5.9408557  41.9270802
  41.0476971   6.8655664  41.0395002   8.9316875  44.3097181  34.4470668
   8.4482700  44.9198527  33.8900423   9.6890218  44.8106046  34.7500324
  74.4892550   5.0282353  34.5281434  73.6358881   5.4262555  34.7001266
  75.0385237   5.3145480  35.2579117  20.1143265  12.3575914  69.6102619
  19.4681835  13.0530095  69.7332382  20.7155204  12.4559486  70.3485870
  63.8881651  81.0061171  59.4757891  64.4026253  81.5830981  58.9112902
  64.5362291  80.4367085  59.8905420  18.1750083   8.0316764  66.5958452
  18.5283661   8.5517579  65.8741188  18.3617437   8.5501170  67.3785210
  48.2250690  13.2885718  42.6904154  48.9061499  13.9232004  42.9131413
  48.4541988  12.9903316  41.8101978  62.2270775  27.4079370  54.6687222
  61.7564631  28.0999088  55.1334000  61.5378380  26.8547297  54.3011045
  26.2464905   3.7031952  33.6219382  25.3725696   3.6163351  34.0026593
  26.3524795   4.6434921  33.4775782  22.5935388   9.0749466  65.4557467
  22.6169181   8.2902080  66.0033512  22.0679569   8.8218588  64.6968412
   0.5903664  36.5904971   6.6781030  -0.0580988  36.3273962   7.3311697
   1.2304440  37.1049701   7.1698843   9.0868247  18.8826120  50.7066631
   9.6688724  18.2239223  50.3277445   9.5535272  19.1978180  51.4806557
  80.6754169  78.4791203  53.3200502  81.1135444  78.2796703  52.4927092
  81.3396916  78.3131291  53.9889431   0.1715738  57.1398134  19.1891515
   1.0054452  56.8568296  18.8139021   0.0585491  58.0361862  18.8729680
  11.0840852  53.3793969  11.7334211  10.6826360  52.6583595  11.2484705
  10.4271657  54.0753503  11.7152214  60.2842204  48.8768673  64.0827908
  60.0768034  48.7781185  65.0120159  60.2444641  49.8205459  63.9274790
  30.5663497  81.7392048  61.0335159  30.3287894  81.6532852  60.1102543
  29.8851878  81.2567304  61.5019989  23.1542190   5.1553595   1.4811693
  24.0290388   4.8345387   1.7002521  22.8798469   4.6155560   0.7398401
  56.7973089  24.7261119  67.9315329  57.4194193  24.4669199  67.2518063
  56.9316387  24.0902066  68.6342478  31.0335023  71.8420990  35.6315851
  30.5476005  71.5159888  36.3890696  30.6103475  72.6729686  35.4151869
  52.9106236  15.6006253  45.5161142  52.2301292  15.4713583  44.8554754
  53.1268454  16.5312910  45.4583168   7.6365573  55.7540126  35.8259797
   8.1265504  56.2313361  35.1564288   6.7343099  56.0570045  35.7241058
  58.7132883  15.5224824  58.9612961  57.9278994  15.4224384  59.4992399
  58.6798429  16.4286721  58.6548090  65.4560512  24.3359681   5.8179603
  66.1505049  24.3103869   6.4762245  64.6842235  23.9961036   6.2707363
  54.7293139   1.0796286  13.0416596  54.8119164   0.1743482  13.3414531
  53.8531113   1.1262507  12.6591384  24.8050785   0.4923527  67.7849340
  25.6689334   0.6201166  67.3929358  24.8728085   0.8955070  68.6504459
  10.6676728  65.7693608   9.8749626  10.5476315  66.4522500  10.5348742
  10.2514822  64.9948521  10.2533197  75.4647964  65.6720336  29.7706352
  74.8837369  65.1951988  29.1779934  74.8893540  66.2844832  30.2288948
  59.8902464  52.9170418  70.1611996  59.4024944  52.4510431  69.4820976
  59.2241812  53.4140873  70.6361103  26.0237891  53.0561991  29.1271520
  26.7391259  53.4671540  28.6417246  25.5268199  53.7901659  29.4884610
  71.6397040  32.6652749   3.6410032  71.7457002  31.7272838   3.7996469
  71.7981475  32.7688994   2.7027116  59.4160860  66.8014272   0.3147207
  59.7514933  67.6886709   0.1861416  60.1461714  66.3241704   0.7089697
  37.1537519   7.0696479  65.3348064  38.1102729   7.0503205  65.3652239
  36.9384813   7.9833686  65.1477098  39.3919110  12.6751006  37.3492169
  39.5775628  13.6128163  37.2996664  38.6715031  12.5407016  36.7334414
  36.9561672   5.1434690  59.8643970  37.0978594   5.6958920  60.6331539
  36.6852784   4.2984667  60.2233171  65.0130844  34.7241735  46.5699863
  64.9809408  34.3258739  45.7001829  65.1530266  33.9879704  47.1655130
  58.0935907  32.5645113  60.9388733  58.4999657  32.6309538  61.8029737
  58.2132483  31.6486359  60.6877041  66.1344051   9.6296954  56.3242626
  66.5227509  10.4827571  56.5184450  65.3971291   9.5585662  56.9305611
  57.6870029  53.3178254  14.6748767  57.7092474  52.3632153  14.6081291
  58.2337873  53.5175939  15.4347168  47.1502113   0.6995707  62.0497036
  46.7602301   0.4098135  62.8744411  47.1941996  -0.0926036  61.5142059
  17.4181485   0.5266906  50.5353212  16.7646658   0.0902499  51.0818672
  17.9810154  -0.1817805  50.2230978   8.0273730  73.5998936  70.8583975
   7.9247219  73.7440814  69.9177027   8.3338506  74.4408829  71.1975718
  78.5791835  78.3967440  65.6866121  77.6708707  78.4949217  65.4010248
  78.5445509  78.5056431  66.6369677  37.8281743  68.2472498  41.9004917
  37.3861272  68.7442799  42.5888157  38.1349093  68.9123089  41.2841797
  22.3487711   4.7194767  55.4311800  23.0963397   4.2855278  55.8423519
  21.6731787   4.7264051  56.1092329  40.4280955  72.9862363  66.9531631
  40.2664859  72.1542008  67.3979425  41.3405759  72.9326434  66.6690111
   8.5391480  81.4662354  64.1868877   9.0303356  81.9399758  64.8581076
   9.2110950  81.0449241  63.6509657  66.6866779  18.4128475  49.9748707
  67.0904684  18.3173263  50.8374596  65.7572699  18.2399523  50.1250124
  82.4722672  43.8385248  37.6131845  82.6522923  42.9180622  37.8044343
  81.7560005  43.8156605  36.9786286  86.5257893  16.7137039  37.5604963
  85.8866192  16.7727232  36.8504190  86.0236535  16.9092333  38.3516073
  12.8191042  16.6770434  69.8521757  13.3451807  17.4710035  69.7567606
  12.2924984  16.6412532  69.0536547  65.6836537  72.2339649  45.1434040
  64.9988100  71.7016096  45.5481482  65.9541229  71.7320890  44.3745089
   4.4883862  61.9409616   4.2828975   5.2384463  62.2565444   3.7788664
   4.8067513  61.1486299   4.7154270  59.2323726  36.6072633  17.8617416
  58.5119336  36.4171983  18.4626327  59.2826598  37.5629534  17.8427921
  49.4534826   9.1157073  56.5710306  48.8464403   9.5393842  55.9642172
  50.3186464   9.2720217  56.1924934   2.4041071  33.0282976   4.5511852
   2.1774521  33.4908100   3.7443767   3.2315531  33.4216477   4.8283849
  65.7612865  24.9882825   3.0884681  65.5742972  24.6470936   3.9630304
  66.6587346  25.3161414   3.1461130  47.7376740  19.0641315  15.3309570
  48.4187286  19.4923075  14.8122440  48.0754619  19.0763028  16.2264858
  12.0130932  16.8984032  38.6774230  11.7426455  15.9994042  38.4906292
  11.2390447  17.4267471  38.4826565  24.3029404  31.0939717  43.7711954
  23.5686278  31.3865852  43.2313824  24.5093656  30.2195263  43.4410906
   0.7875545  79.6271455  53.8297272   0.9898693  80.2580274  53.1388664
   1.6414792  79.3012379  54.1140318  29.2336804  69.9368520  64.3947124
  29.8420817  70.3689284  64.9942064  28.3845717  70.3344829  64.5874310
  72.5528860   7.2138041  27.2327852  73.3995771   7.4460828  27.6140904
  72.5207949   7.6981050  26.4077687  56.0736244  51.2376543  11.7949424
  56.4617484  51.1168702  10.9283386  56.8097322  51.1531599  12.4009548
  28.4648854  72.9222633  68.6132765  27.8912026  73.3055974  67.9498196
  28.4522016  71.9833834  68.4273291  82.7403069  33.8769579  41.9136143
  82.4130154  34.3656445  41.1584330  82.4227619  32.9843307  41.7771912
  10.8998663  71.9730086  23.8552904  10.5936343  72.8224475  23.5376334
  10.3593237  71.7961569  24.6252060  38.8842499  40.2382126  17.8468547
  37.9800838  40.0412566  17.6020656  39.0608006  39.6647836  18.5926757
  36.3923223  54.6383829  34.3240142  37.0664794  54.5701809  35.0001025
  36.3384158  53.7589498  33.9499521  26.3428378  18.3536184  47.5749111
  25.6296873  18.5314500  48.1881189  25.9038758  18.0730927  46.7718840
  69.1820002  57.7336311  68.0401325  68.5330963  58.0936718  67.4355412
  69.5974922  57.0237160  67.5506258  46.0994291  38.2457376  50.8242273
  46.9950056  38.4784317  50.5792093  46.1839485  37.8473234  51.6904545
  75.1993316  27.0227762  41.8015419  75.8169644  27.2762139  42.4875007
  75.5344241  27.4439569  41.0099922  52.1051519  44.3242462  19.3682418
  52.5986426  45.0912981  19.0778480  51.1876123  44.5761176  19.2637668
  50.1891858  77.4439616  55.9480190  50.4022510  78.3732952  56.0327244
  50.9891564  77.0450644  55.6057262  70.4149049  38.2908060  25.6286560
  69.5965570  38.0991851  26.0867248  70.3831428  39.2335113  25.4657779
  84.6547231  58.8441343  29.6758008  84.6049056  58.1123538  30.2908206
  84.7995910  58.4318299  28.8241839   6.0323483  75.6033577  30.0642419
   6.6499764  74.9168427  30.3161621   6.0531051  76.2234522  30.7931328
  18.2505376  80.3509038  60.4081726  18.4057290  80.7422062  59.5485020
  18.1389815  79.4171317  60.2296877  64.4941711  37.0643187  51.9306898
  64.3253756  36.3079906  51.3688135  64.0483141  37.7906609  51.4949512
  20.0082350  16.1990166  30.1670098  20.6865025  15.5300140  30.2598596
  19.8467386  16.5019858  31.0605192  15.0372541  15.5199647  67.2140360
  15.0227976  16.4769995  67.2244072  14.4213307  15.2786028  66.5222168
  21.9016034  64.0520008  33.6209536  21.7479331  63.8393040  34.5414853
  21.0963256  64.4849057  33.3374953  73.3129978   7.1371138   4.6180540
  73.1318808   7.8369653   5.2454579  73.7491083   7.5767416   3.8881466
  46.4608955  18.3220994  65.0683355  47.1976805  18.8459611  65.3829002
  45.6863880  18.8346004  65.3000927  58.7218037  71.9740946  54.4261694
  58.4370652  72.8095646  54.7965002  59.2159586  71.5556307  55.1311016
  18.8990504  77.2044690  41.0414219  19.1449029  77.8897400  40.4199791
  19.3451221  76.4201386  40.7219219  19.2782366  32.2607136  59.6770334
  19.8899996  32.2576666  60.4132175  19.4667673  33.0760241  59.2123222
  44.4953353  73.5486902  47.9877615  44.5819385  74.3125798  47.4174976
  44.5133359  72.8007735  47.3906612  55.9761238  36.8733382  66.6468477
  56.4835310  37.1366048  67.4146128  55.2125931  36.4225292  67.0074320
  27.2676570  75.7525761  37.0897508  27.7205522  76.2177665  36.3863897
  27.0229871  74.9121745  36.7023325  48.2803583  15.2688396  19.5247829
  47.5168228  15.4485595  20.0733709  48.8526917  16.0248196  19.6557903
  10.8110983  73.5065390  19.1857076  11.7177445  73.2101495  19.2655766
  10.5914027  73.8421972  20.0547862  44.7378880  61.4859600  68.6909103
  45.1510245  61.7499943  69.5130014  43.9779002  62.0620937  68.6089230
  54.1450739   0.5130180  61.4793348  53.9416361   0.6596868  62.4030924
  54.1391850  -0.4391022  61.3810253  24.9684903  11.5379298  39.1920328
  24.1514394  12.0349324  39.1516209  25.6509302  12.1836615  39.0088940
  65.1241589  18.8647711  60.8494186  65.1591301  17.9142809  60.9570169
  64.7646332  19.1863394  61.6762018   9.2247779  74.3582643  23.0883312
   8.6747653  73.6592443  22.7346516   8.7826235  74.6266223  23.8937593
  64.6055739  72.9152091  41.1055503  64.3171590  72.2950323  40.4358993
  64.9806254  73.6441143  40.6113182  76.8347549   9.1343266  50.2507401
  76.4074087   9.7313619  50.8648682  77.4207163   9.6939486  49.7411299
  68.6336082  57.5536986  10.5562721  69.1660111  57.4095173  11.3385711
  68.5292428  56.6825159  10.1736770  32.8136539   7.5227165  46.9846630
  33.4526634   6.9653291  46.5405703  31.9667959   7.1263313  46.7798662
  53.6537933  34.2572761  50.4584074  53.2849455  35.1405501  50.4613876
  54.0440321  34.1636109  49.5894003  69.5337296  35.1681256  59.1278982
  69.1486263  34.8255754  58.3213043  68.8759089  35.7741547  59.4688272
  37.5003236  58.6543830   2.0017181  37.5001209  57.6977690   1.9682394
  38.2337510  58.9134093   1.4438425  73.4948819  58.4343107  24.8963581
  73.5270017  57.5014396  25.1083694  74.2324632  58.5702951  24.3016182
  29.2407813  43.0256714  11.4367900  29.7578066  43.7080635  11.0087047
  28.5980671  43.5047977  11.9598518  81.7325919  70.7441385   7.9619775
  82.2401660  70.9507449   7.1771751  81.1357015  70.0489696   7.6850496
  12.6093617  70.5755504  16.6853176  12.1034708  71.3609894  16.8936191
  13.5163107  70.8184226  16.8715702  45.0341994  78.5467516  63.2700872
  44.3979032  79.2588220  63.3357906  44.5024068  77.7510179  63.2546043
  31.2163210  26.1306286   7.4783862  31.6627693  26.9281197   7.7628565
  31.8181968  25.7299542   6.8511403  35.1844025   5.9684163  27.7563119
  35.9402823   5.8648956  27.1782446  34.7283530   5.1282835  27.7070308
  51.4594800  70.6084092  61.2722540  51.1263139  71.4590580  61.5579557
  50.6754310  70.0736017  61.1478281  75.3245306  27.5217748  33.1515002
  74.9264622  28.2206917  33.6704326  76.2158203  27.4480724  33.4926701
  59.2042637  17.6493955  47.7457285  58.7058926  17.4990153  46.9424582
  58.7961626  18.4202492  48.1400251  50.6544781  26.7952561  63.2971811
  51.5578079  26.5043402  63.1723166  50.2651358  26.1305189  63.8653040
  24.8488719  63.3798118  61.2453842  25.3000504  62.6186795  60.8802176
  24.6072633  63.9041145  60.4818630  78.9015231  75.8754988  30.2440715
  79.7151765  75.4603548  30.5301762  78.7891945  76.6172750  30.8385301
  35.9148240  22.6364970  56.3437748  35.5000687  22.8692532  55.5130959
  35.3300977  21.9837546  56.7288208  79.5252078  53.2599850  17.3873745
  78.9542668  53.0310412  16.6539989  79.3139070  52.6177605  18.0649696
  81.4684200  13.9748251  50.4379463  81.4182854  13.3054030  49.7556019
  80.5554867  14.1767335  50.6429243  55.6593084  15.3678894  23.0296636
  54.8001337  15.0347614  22.7706647  55.6506157  16.2867963  22.7617693
  68.5265970  22.6119876  50.5729532  69.0767527  23.3373094  50.2772045
  68.1004381  22.9417324  51.3640881  55.4993153   3.8505271  62.4146605
  55.8227634   4.2516395  61.6079903  54.5753956   3.6718205  62.2395468
  70.4762602  16.1744463  52.1374416  69.8196077  15.4822040  52.2138500
  71.2774467  15.7841909  52.4867773  66.3172674  21.7472696  49.3478489
  67.2228670  21.9240785  49.6025276  65.8970404  21.4438319  50.1525640
  60.5677813  40.6199145   0.4695306  59.6666663  40.9383164   0.4161869
  60.6249207  40.2058572   1.3306461  57.9375880  54.9473150  29.8420654
  58.3950942  55.7517405  30.0866447  57.5862163  54.6114393  30.6666599
  43.5266161  17.5194216  13.4234130  44.3690443  17.1838975  13.7299681
  43.7381792  18.0059886  12.6267159   4.7862393  79.4582967  22.1290183
   4.5595104  78.7439109  22.7244020   4.0932519  80.1060290  22.2572589
  34.0715288  28.2490392   6.8709646  33.6159321  29.0907414   6.8851886
  34.3296897  28.1318446   5.9567199  62.2662991  44.9188526  18.0014549
  61.9796055  45.8029752  18.2302986  63.2128923  44.9298237  18.1431423
  10.5654103  54.1816778  51.5832567  11.1621673  54.0397973  50.8484268
  10.0924808  54.9824185  51.3565731  66.5682309  60.6540032  21.0973106
  66.1556261  60.5916794  21.9587646  65.8794039  60.9933145  20.5258022
  73.5839844  37.5395322  64.3316317  74.2440462  37.1323609  63.7705946
  72.7929401  37.0205402  64.1862631  68.4772938  55.9541030   7.8668771
  67.6025098  55.6653352   7.6068817  68.5621207  56.8300469   7.4903713
  50.5541658   0.2245017  22.7956891  50.2405643   1.1208446  22.9159236
  50.1789141  -0.2610963  23.5302734  37.8638332  47.4779548   1.1493526
  38.4956973  47.5224586   1.8669878  38.3116519  47.8892566   0.4100834
  72.0785713   3.2814971  55.1408958  72.4165630   4.0945515  54.7654819
  71.1836433   3.4939039  55.4058838  23.8154793  28.8041878  61.5052605
  23.3546972  28.7957907  62.3442125  24.4754887  28.1158257  61.5876055
  49.3206167  14.7610915  51.3077068  48.7824059  15.1571035  51.9930792
  49.9291134  15.4538679  51.0507488  76.2514067  18.5183179  13.8600218
  76.5999603  18.5033274  14.7513795  75.8397198  17.6612842  13.7493908
  11.6371289  64.0245421   4.4326721  10.8037033  64.1327985   4.8908315
  11.6081944  64.6706136   3.7269912   4.0645876  26.4576467   0.8964668
   4.5378723  27.1594687   0.4496132   3.8870707  26.8067880   1.7698608
  70.0346279  22.7483964  65.2578449  69.2481375  22.2045708  65.3015757
  70.7588625  22.1225238  65.2573252   9.0151492  70.6890781   8.7852083
   8.9024201  70.6628211   9.7353874   9.7031298  70.0476344   8.6078201
  52.9629421  24.7088742  58.0527115  53.0740833  25.6560874  57.9710674
  53.7481976  24.3398523  57.6484489  37.4142766   4.3394095  56.0466146
  37.0568466   4.6727023  56.8696499  36.7620659   3.7095022  55.7399035
  80.8702278  19.2404056  59.9693155  81.4641666  19.9194145  60.2893400
  81.0346699  19.2030096  59.0270901  38.3156681  10.0561798  37.1249890
  38.7361741   9.7119570  36.3370037  38.8226366  10.8377004  37.3450780
  73.2132051  81.6189954  11.9727623  74.1123447  81.2968764  11.9093597
  73.2340548  82.4736603  11.5422451   6.9312706  76.8937500  32.2219501
   7.7732983  77.1417220  31.8401943   6.8453732  77.4513348  32.9952179
  48.8615370  12.3236334  40.0551081  49.2790937  11.6224897  40.5553865
  48.4512615  11.8776166  39.3141818  54.5069654  65.0572259  50.0139141
  54.9409444  65.7646639  49.5370197  53.5852105  65.1321049  49.7669268
  40.0677872  21.9839382  52.3918009  40.9194899  22.1202636  52.8068304
  39.5063043  22.6610780  52.7692318  19.3248072  47.2393675   9.6910415
  18.6461010  47.7823796   9.2901359  19.5534745  47.6993103  10.4987560
  81.6696358   5.5346900  23.6166215  82.2463131   4.8349634  23.9232969
  80.7860565   5.2109545  23.7919068  73.0720520  20.6693816  56.6435432
  73.4112740  21.3706899  56.0873699  72.2626877  21.0250163  57.0105410
  82.8515339  14.7375035  40.1561069  82.7186680  13.8149989  39.9380136
  83.4809494  14.7249055  40.8771515  39.1616321  15.0054514  56.0064268
  39.3121600  15.4982710  56.8130875  39.8018646  14.2945385  56.0370684
  71.2336254  17.4342489  36.1215067  70.9709263  16.6764700  35.5990195
  70.5634928  18.0934978  35.9410977   2.1122876  59.1447361   1.9201790
   1.6216174  59.6945103   2.5311027   2.1491614  59.6577199   1.1128889
  61.6108751  26.7390585  38.5034084  61.1777210  25.8876967  38.4418154
  61.5861845  27.0854402  37.6114202  68.9965773   7.0282972  64.8562860
  69.0482807   7.0031869  65.8117580  69.8560810   6.7269254  64.5619059
  47.0980651  72.4685730  45.2970648  47.2605044  71.9620450  46.0928488
  47.4436910  71.9225891  44.5908928  71.3821268  36.3493395  49.5183802
  70.7302237  35.8797026  48.9980984  71.1147118  37.2669244  49.4658232
  12.2025544  54.7179480  55.0845909  12.3947961  55.0543566  54.2093182
  12.1079452  55.5011148  55.6267500  12.9430476  66.4252789  26.0519634
  12.3794213  65.6604655  25.9352813  13.5362807  66.4024122  25.3011070
  41.4759874  19.3061841  60.6209946  41.4510489  19.8610461  59.8414183
  42.0489550  18.5786271  60.3789139  23.7481880   3.5854334  52.2950602
  23.5245013   3.9103115  53.1672096  23.6904240   2.6330912  52.3721266
  83.7971497  20.4305863  56.0392857  83.3814812  20.9968567  55.3890610
  84.6583462  20.8229113  56.1830091  85.0235653  25.0503778  23.4140563
  85.0206852  25.9786892  23.6474323  85.8996868  24.7464848  23.6513066
  56.2839025  58.2107373   4.3713651  56.3366025  59.0097828   3.8469778
  56.8779843  57.5991424   3.9363323   5.4121873  44.7483492  57.1997166
   6.2458417  44.5045090  57.6019573   5.5183885  45.6712723  56.9691420
  13.6929891   5.7769769  52.1303320  13.1245515   6.4772338  52.4508762
  14.5787046   6.0713977  52.3426104  75.9832335  20.8505297  36.5445209
  75.4425621  20.0842643  36.3528419  75.5310202  21.5763640  36.1145210
  25.5955448  47.5068297  25.2519642  25.0592842  48.2357319  25.5639873
  24.9915924  46.7653270  25.2114044  81.4519787  27.3981047  66.2480211
  81.1474800  28.1032896  66.8191862  82.0940495  27.8154063  65.6737137
  49.0322971  19.0848088  58.3696365  49.3859005  19.9316704  58.6417007
  49.2656469  18.4881723  59.0808344  75.3484392  47.0019388  67.1265364
  75.2103996  46.0569715  67.0616388  74.5145321  47.3442554  67.4484873
  72.2016430  19.8982561  49.1643524  72.3686647  20.7047820  49.6520519
  71.2734938  19.7168231  49.3121767  80.8980124  62.8586848   3.0299602
  80.8953469  63.4402116   2.2696624  80.5139249  62.0428474   2.7088342
   4.9653187  35.5450739  -0.0827612   4.5528117  36.0917740   0.5859600
   5.6289902  36.1102133  -0.4782214  80.1428032  38.5357833  61.4166832
  80.4005051  39.1758442  62.0801163  80.8860588  38.5025764  60.8144474
  52.1380377  12.3294210  64.1805220  52.7075863  12.7065980  64.8510313
  52.7403450  11.9582736  63.5357666  66.4070129  25.9250498  53.8678312
  65.6109381  26.0312748  53.3470488  66.1281061  25.4194713  54.6312666
  64.1402006  15.0117588  53.6929607  64.5565414  14.9134958  54.5492506
  63.2606173  15.3339386  53.8898611  84.9573272  77.2623070  25.9617172
  85.2498620  77.0785578  26.8544040  85.7665103  77.3576816  25.4593597
  12.5625887  64.2051347  14.0882908  11.9305935  63.9942344  14.7755561
  13.4078541  64.2219718  14.5371566  65.5644417  22.2214890  69.0137625
  65.7848930  21.7163181  68.2311821  65.7579136  21.6313648  69.7421551
  31.4450247  78.5081704  11.5875564  31.8911492  78.7962015  12.3839508
  31.8925425  77.6984961  11.3418327  36.9537640  28.8392162  59.9066162
  36.8503404  28.2865286  59.1319752  36.4950728  28.3664536  60.6011152
  65.3753757   2.2100145  51.7709255  66.0176420   2.1385922  51.0647917
  64.8133373   2.9397878  51.5105772  34.8979051  77.5944240  52.6519108
  34.6421487  77.2270472  51.8058252  34.1630752  78.1546364  52.9017544
  55.3298521   4.4457215  40.2845764  55.9386301   3.8883775  40.7693291
  55.4310465   5.3115302  40.6800079   9.0840242  29.0839505  68.2058620
   8.5507772  29.5975709  67.5991726   8.8173005  29.3861866  69.0740490
  77.0384645  47.4947643  49.6706343  77.6064491  46.7685461  49.4132853
  76.8248558  47.3186827  50.5869293  72.5251048  64.7326477  22.8341327
  72.6771920  65.4958470  23.3914791  71.9902652  65.0652202  22.1133171
  38.6363053  21.3395095  47.7229548  38.4395170  20.9873486  48.5909891
  38.4188509  20.6278896  47.1208382   0.7240494  20.2077401   3.3337675
   1.4470013  19.9617494   2.7566562   0.4635104  19.3881333   3.7540041
  22.6852605  11.0381627  54.0629196  22.0812890  11.1390579  53.3272123
  22.2456071  10.4243672  54.6512985  80.3897858  22.7920818  68.9089155
  81.1965466  22.6774526  69.4111443  80.4422092  23.6866450  68.5724020
  76.3255215   7.9428524  32.7194691  76.8713093   7.6568884  33.4519815
  76.8346310   8.6348128  32.2972941  54.4902652  54.1082652   0.6843649
  54.0669029  54.4487246   1.4724527  54.5632022  53.1665357   0.8394752
  74.9034173  72.9401304  33.7786627  75.0081403  72.0835973  34.1929269
  74.5996530  72.7421941  32.8927851  63.8751333  33.2220288   9.6418129
  63.6034101  33.9686789  10.1755844  63.0848258  32.6888855   9.5557533
  50.2070802  56.1390801   2.3296199  49.8400777  55.3506024   2.7294241
  49.4429892  56.6539927   2.0702730  15.5927887  70.9053739  16.9835601
  15.8421030  70.6254442  17.8643070  16.1533442  70.3923161  16.4015136
   7.4827614  62.7329953  12.1700893   7.9929867  62.9476936  12.9509960
   8.0331698  62.1172889  11.6861663   3.1930342  58.9240272  28.4749351
   3.5772362  59.7991820  28.4227310   3.6254158  58.4306605  27.7778946
  28.1606156  80.4076434   1.1066254  27.4124486  80.3858685   1.7032877
  28.5108859  81.2941619   1.1939526  55.7563305   5.5172980  55.7713079
  56.4816141   5.7571971  56.3480568  55.1320314   6.2375367  55.8592987
  79.9963617  13.8503921  42.6340914  80.2555466  14.2120516  43.4815884
  80.1641464  14.5571053  42.0106840   2.4758377  24.3773349   3.2516704
   2.5057354  23.9338012   2.4039541   2.5213328  23.6692818   3.8941799
  68.7297249  51.2525702  70.8096552  68.4910297  51.8033028  71.5552759
  68.5528088  51.7976284  70.0429487  59.6577072  34.6276617  59.5866156
  58.8529015  34.1692615  59.8282480  59.4369316  35.5558825  59.6633959
  26.9358039  21.8295360  26.0301900  27.1031761  22.3964834  25.2773356
  27.7982569  21.4923978  26.2725616  57.4005747   0.8494177  59.7046089
  57.8258801   0.1191214  59.2551470  57.2260761   1.4875078  59.0127802
  13.8698480  22.2624993  46.8897200  14.1043660  23.1900501  46.9194317
  13.0920789  22.2298193  46.3327360  17.3848143  54.4506689  10.1463924
  17.5607100  54.4338174   9.2056404  17.9410591  55.1538952  10.4815040
  43.4090042  11.6975856  45.7202387  43.6001682  11.7202437  44.7825956
  44.1730118  12.1030056  46.1303091  48.4865427  16.8440878  35.3915000
  49.1534758  16.9944656  36.0614419  47.6578665  17.0326710  35.8319092
  77.1709204   7.1810186  64.0694427  76.3414145   7.5792623  63.8057137
  76.9751215   6.2470478  64.1442442  48.2779789  28.7249947  52.1561813
  48.7810993  27.9123616  52.2084141  47.8813410  28.8172293  53.0224371
  60.3688002  37.3058796  54.0978765  61.0606861  36.6807270  54.3139887
  59.6233940  36.7606401  53.8462400  71.1604214  14.4703817  70.7499933
  70.2463818  14.7396696  70.6591702  71.6497564  15.2922440  70.7863808
  86.5900748  34.8939295   4.7804103  87.0210736  35.4414983   5.4366432
  86.2864106  35.5115421   4.1151510  33.5364389  24.8019147  46.9495821
  33.2994509  25.5848122  46.4524460  33.7328267  24.1446280  46.2820196
  57.6093817   8.3687681  52.0042229  58.3450699   8.9341265  52.2395134
  57.2660828   8.7468982  51.1946583  27.8730208  70.2606769  60.4714155
  28.3965880  69.7326369  61.0741472  27.2099168  69.6564074  60.1376677
  57.6532459  27.9068851  69.9068451  58.1947136  27.5295591  70.6001520
  56.9939041  27.2368431  69.7264433   1.4952562   1.2698875  56.6633940
   1.7331121   1.7852002  57.4341822   0.9352586   0.5727251  57.0048571
  61.9579601  36.5547824  57.1483517  62.0983601  35.7850099  57.6996899
  62.7182579  37.1115446  57.3162651  73.6268091  47.7270079  49.8781347
  72.7415609  47.3940372  49.7308016  74.0766144  47.0169973  50.3361654
  25.9196981  16.3895810   7.4975381  25.3042491  16.1056769   6.8216310
  26.5660509  16.9159997   7.0270715  65.0570917  27.9775333  64.1755438
  65.1878691  27.3749733  63.4433889  65.9293938  28.0874944  64.5539951
  57.7848244   1.4938290  67.9399252  57.2765589   1.1882469  67.1885777
  58.6050081   1.8104860  67.5614357  14.8338897  73.2073952  49.3450975
  15.4938752  73.8536097  49.5962238  14.6019275  73.4390093  48.4457779
  19.6167237  58.7735767  50.1096058  18.9998443  59.3287082  49.6326160
  20.1287658  58.3419461  49.4256878  24.3338903   1.6528047   3.4983144
  24.0243276   1.2640632   2.6802192  23.5885366   1.5812219   4.0946041
   8.8067204  73.0630333  66.5010786   8.1248576  73.0513669  67.1727610
   8.7137086  73.9176817  66.0801792  51.2961728  80.1763928  26.1442590
  50.8301455  79.3743388  25.9081292  52.1667916  79.8786831  26.4081144
  71.3784933  14.8431802  44.4017982  71.2801170  14.0785789  43.8344049
  72.2428656  15.1926434  44.1850662  51.9109917  23.6845255  60.2500010
  52.1347761  23.8093996  59.3277454  51.4155102  24.4691849  60.4846001
  44.5015723  74.7511627  42.9007053  43.8930089  74.0215201  42.7845049
  43.9416558  75.4994096  43.1077099  46.3219070  29.7332907  69.1107178
  46.3593006  29.2985225  69.9626637  46.6113758  29.0660763  68.4884119
   6.1960504   7.1786648  18.8789654   6.6613481   6.3745004  18.6486387
   6.2184045   7.7054977  18.0801034  74.5714474  30.1395965  39.8130965
  74.3923759  31.0741544  39.9168420  75.2741194  30.1009488  39.1642570
  37.1861210  73.5315068   2.2839342  36.6421643  73.3537515   1.5166364
  37.7348080  74.2709644   2.0224462  82.0871067  39.4038272  59.8346043
  81.5284252  39.6293879  59.0908146  82.9678726  39.6567035  59.5579576
  39.1663432  22.1814084  60.2770662  39.8801136  21.7727017  59.7874498
  38.5056996  22.3826027  59.6142673  78.4676552  14.9428022  17.5787687
  77.6310730  15.0115132  18.0388176  78.9836597  14.3358564  18.1094158
  15.3271523  21.3960906  16.4129005  14.6953812  21.3367756  17.1295391
  15.1543036  20.6223305  15.8765731  20.8802915  47.3645067  55.1364279
  21.5023637  47.9864550  55.5138397  20.0328040  47.8048944  55.2001190
  62.2409684  79.5817995  50.9840536  62.4333722  78.7120758  50.6336403
  62.9146344  80.1468572  50.6057501  59.3102932  27.3761749  39.9848318
  58.4382868  27.1295333  39.6765947  59.9097300  26.9632435  39.3632245
  78.1031745  29.2588313   7.7571378  78.6109441  29.2032667   6.9476257
  77.2190898  29.4873972   7.4701105  25.1709595  56.9398876   1.1463342
  24.3939247  56.5092166   0.7900177  25.7080975  57.1378036   0.3791700
  50.7963807  76.5769912  40.2808619  50.6237990  77.2017638  39.5765138
  50.0387914  76.6545255  40.8607578  61.1953878  21.5617323  64.4690609
  60.8672905  20.7208276  64.7875929  61.5812206  21.9761682  65.2408218
  39.5678496   8.6179984  59.9831724  40.0674963   9.0843236  60.6533432
  39.8673463   7.7112275  60.0487471  74.6019602  44.3296814  67.5170040
  75.1744270  43.5644245  67.5708723  74.1466141  44.3478918  68.3587599
  10.6981466  62.9985714  61.9297409  10.2177522  63.7295532  62.3184872
  11.5736863  63.3482838  61.7643642  62.4608278  45.4121208  40.3824663
  62.5664425  46.2269068  39.8913479  62.9624844  44.7660542  39.8853016
  81.3508949  76.2959672  26.7071342  81.7956195  77.1291132  26.5511870
  80.5378947  76.5377976  27.1507359  65.7789421  15.5781138  67.9400253
  64.8668766  15.8582318  67.8631592  65.9373999  15.0592172  67.1514416
  14.2756555   4.2400715  54.8635960  13.4437082   4.5619252  55.2107525
  14.2570493   4.4791901  53.9369297  10.5418760  80.8337963  48.5434914
  10.9110004  81.2550972  49.3196917  11.1612565  80.1350696  48.3328295
  83.9526448   0.3906743  68.5596927  83.9330206  -0.5407937  68.3401101
  83.0326113   0.6547467  68.5658138  70.8434248  17.2294295  67.5593758
  71.3788319  17.5007021  68.3050156  71.4623833  16.8149877  66.9582415
  53.3107471  10.8881116  68.2400560  52.8382921  10.5580378  69.0043020
  54.2338657  10.7452250  68.4490299  21.0434985  26.2968802  59.9213362
  20.6789708  25.4873443  59.5635605  21.6777754  26.5846515  59.2647409
  65.3073359  24.1892219  41.7839479  64.4795275  24.3284130  41.3239574
  65.0616932  23.7241554  42.5836992  63.8697910  36.4892197  48.5970449
  64.1175365  36.0544157  47.7810812  64.2762613  37.3539925  48.5406160
  74.5172977  22.6826620  35.2547312  73.5725737  22.6542640  35.4061294
  74.6551180  23.4847856  34.7509122   0.6968782  51.2891245  43.6979532
   1.4699457  51.7350435  43.3519030   1.0360143  50.7286501  44.3958664
  65.4258490   2.2109842  43.8609982  64.8518753   1.5912712  43.4107304
  66.0210419   2.5244439  43.1800270   8.4682932  46.7779024   4.8097263
   8.8943711  46.0116829   5.1939092   9.1901198  47.3622038   4.5777832
  75.8923531   3.6807629  20.5463743  75.8667612   4.4819158  21.0695672
  74.9733543   3.4833118  20.3655815  70.1010888  52.4664791   1.9550882
  70.4096215  53.0852528   2.6170240  70.3991025  51.6124363   2.2681938
  22.3414571  49.1801615  56.9303560  21.7270858  48.9625473  57.6313686
  21.8810470  49.8323865  56.4022827  26.6191728  78.1671022  42.0423126
  26.2371690  77.2908710  42.0925665  27.0300014  78.2986493  42.8968000
  80.7189941  28.2400990  44.6300459  80.1791573  29.0202451  44.5028687
  81.1116695  28.0781150  43.7722588  54.4243711  81.3371547   4.2230402
  55.1079767  81.0561116   3.6148201  53.6195868  81.3159211   3.7052570
  63.9716816  11.5956450  47.8703547  63.0809593  11.2716079  47.7367783
  63.8566017  12.4389768  48.3082819  60.4952812  25.4871297  17.2459054
  59.9683285  25.2127647  17.9964244  61.1387014  24.7869778  17.1362412
  34.6755910   7.1851683  53.0639219  34.3248582   7.0808733  52.1794176
  35.5423784   6.7807513  53.0270958  77.1845770  59.4228411  59.8432446
  76.9682884  58.5653543  60.2095413  77.5522900  59.2291164  58.9809847
  35.4441595  13.8366520  65.6576014  35.9450722  13.9892673  64.8563337
  36.0930729  13.5301852  66.2910175  48.1555300  31.8130352  12.9940735
  47.5711756  31.7330857  12.2401653  48.0056899  31.0138126  13.4990631
  54.3058545  72.9955442  62.3013020  54.4647462  73.3222778  63.1868744
  54.9106271  72.2598298  62.2053576   9.2769510  81.7271487  56.3292360
   9.5274312  80.9663085  55.8052015   9.5435459  82.4798178  55.8013630
  76.3915116  79.1472147  43.0375814  76.4232404  79.1983498  42.0822716
  76.4402825  78.2106302  43.2290554  52.6656580  32.0635414  56.1568832
  53.0622530  32.7067709  56.7444229  51.8882561  32.5021696  55.8112288
  20.8644581   3.6842209  36.2929010  21.3592958   3.6488813  37.1115065
  20.5355382   4.5821300  36.2504292  28.1271464  67.4235113  44.0272331
  28.9076907  67.1064622  44.4816113  28.0277545  66.8323941  43.2809544
  56.1950159  36.1329103  57.1472454  57.0345163  36.5015721  56.8723774
  55.9670067  35.5134320  56.4540720  79.2638343  80.9281118   6.5585790
  78.8713973  80.6636818   5.7265316  80.1341956  80.5298336   6.5501867
  62.9704475  16.1442161  67.3742962  62.9214001  16.6817176  66.5837765
  63.3007193  15.2991736  67.0692396  49.7689056  14.0458131  63.6213350
  50.6084824  13.5869765  63.6498785  49.9871874  14.9570429  63.8168955
  23.8865900  15.9735918  55.1589966  23.8552809  16.2652779  54.2478561
  23.7767935  15.0239539  55.1103783  26.8254319  42.3157497   7.7816330
  26.4343300  42.0450831   8.6123024  27.6501694  41.8320283   7.7363382
  64.7299576  36.4526081  31.2188601  64.8064089  36.1206245  30.3243351
  64.7324371  37.4048853  31.1219478  48.2884836  20.0502706  66.2739706
  49.1476345  20.4415655  66.4320278  47.9300165  19.8982215  67.1483898
  38.2428081  72.4085875  22.7088761  37.5014741  71.9924576  23.1487536
  38.9676101  71.7949648  22.8287125  82.2997189   0.9328937  64.4441032
  82.1654892   0.5719620  63.5677814  82.0976448   1.8640891  64.3531418
  59.6772957   7.0238739  64.6630383  59.6666956   6.0945237  64.4340706
  60.3704119   7.1011251  65.3186750  69.5971012   3.0859467  64.1926765
  69.7252369   3.9275983  63.7551403  69.2312622   3.3135855  65.0474119
  47.5289106  13.2865083  49.7464609  48.0613232  13.9333308  50.2094889
  47.3455286  13.6902559  48.8981771   1.3450509  17.9451573  12.1548114
   1.9650346  17.4966586  12.7298771   1.7975026  18.7473357  11.8939815
   3.8880768  39.4745177  10.5815349   3.2988158  38.9796913  11.1508785
   3.3280268  39.7873541   9.8711048  66.8118429  45.1047945  49.6304226
  67.6906157  45.0916195  49.2511892  66.8964529  44.6143532  50.4480648
  12.1498528  80.6735857   2.7923904  12.8179922  80.1918252   3.2799612
  12.6141110  81.4295705   2.4329649  11.4667454  33.0829527   4.8099027
  12.0175305  33.7009587   5.2904544  11.7539158  32.2212275   5.1118837
   4.3839875  64.0569861   9.6461521   4.8539963  64.4250877   8.8979421
   4.4327536  64.7371943  10.3178440  63.9251757  42.2200155  56.3931799
  64.0692616  43.0904341  56.0219049  64.0286827  42.3420429  57.3369122
  79.8010015  37.6638794  23.6173415  80.3608894  36.9718122  23.9691973
  79.0650749  37.1979690  23.2203913  18.5520170  32.2567034  63.8239908
  18.9989469  31.6423821  63.2416725  17.7369592  32.4683356  63.3688831
  53.6633301  11.1540198  23.3229804  52.9649115  11.1576378  23.9775276
  54.3549919  10.6199944  23.7136912  24.6803281   1.1025157  63.3344841
  24.7426984   1.5250507  62.4778605  25.2170179   1.6474736  63.9099979
  45.8835173  11.5125871  63.3966494  45.9324837  12.4674809  63.3517981
  45.0179911  11.3004661  63.0472183  55.1115949  70.1204164  53.9959574
  54.5894105  69.4310839  53.5856295  55.9798867  70.0287564  53.6036587
  68.7620163  10.8149588  35.5451751  68.5812998  10.1498425  34.8809505
  69.5587492  11.2485147  35.2394271  40.5373812  12.4417353  55.9637117
  41.4063263  12.0496881  55.8773088  40.1201487  11.9464135  56.6685581
  48.9382458  26.3635182  53.2711029  48.3151960  25.6421804  53.1832743
  49.7834110  25.9798193  53.0372238  63.1570768  33.5528302  50.5124378
  62.2711086  33.2644343  50.2930832  63.2848597  33.2671905  51.4170456
  14.7354807  66.2099087  71.2260248  14.9638762  66.7543256  70.4725808
  13.7786354  66.2220728  71.2490449  16.0696942  52.3257370  55.7377386
  15.6439692  52.4376268  54.8877525  15.3524310  52.3569388  56.3708210
  53.3048153  18.7174535  42.2346544  53.1734228  18.3762193  43.1192589
  53.2857418  17.9421639  41.6735888  63.5183590  62.5619228   7.7081857
  63.4342163  62.0060523   6.9334827  63.0362957  63.3582194   7.4851118
  64.4165897  10.2838087  37.8471518  64.6071672  11.2181258  37.7637124
  65.2766514   9.8637408  37.8554726  77.2562402  70.9088643   0.7648264
  78.1879752  70.7102068   0.6719194  77.1574920  71.7797311   0.3800235
  70.5423069  20.2935004  39.0263224  70.6376696  20.8255720  38.2363629
  69.6041822  20.1112318  39.0805221  25.3984523  22.8620052  46.1093950
  25.2310157  21.9591165  45.8392334  24.6171474  23.1134415  46.6019154
  39.4437814  14.8601568  47.3140049  38.6601067  14.4811416  47.7120447
  40.1567507  14.2871869  47.5961637  83.6954021  32.8883314  22.6122260
  84.3720531  33.3625007  23.0954766  84.1813755  32.2946262  22.0398879
   1.0999963  47.3083401  39.4558191   0.6236455  46.5161085  39.7042155
   0.5060575  47.7690220  38.8631630  77.9223769  55.9783788  -0.0628533
  78.5035127  56.0323568   0.6958328  77.1177094  56.4125271   0.2204309
  68.9082813  17.8632808  22.3801160  68.6671638  18.4451842  21.6593647
  68.3142424  18.1037879  23.0911040  73.8536453   9.4223100  43.0178595
  73.5991240  10.2438033  42.5976229  73.4909678   8.7411571  42.4515295
  41.2610865   3.2247323  54.0343523  40.9855843   3.0427653  54.9328089
  41.0094452   4.1363761  53.8866568  59.7930861  32.9211688  66.5484715
  59.5896578  33.6888528  67.0828009  59.9450970  32.2210073  67.1832132
  77.1336222  27.9377937  53.8773441  76.9580317  27.1613026  54.4088173
  77.3278952  27.5926685  53.0059242   7.4423177  73.7235160  42.2689342
   7.7402217  74.3750860  42.9037142   7.7280123  74.0661086  41.4220333
  72.1163177  23.4446526  68.2389498  72.4745607  23.7628651  69.0675831
  72.5786591  22.6220608  68.0782843  72.3499250  60.6122255  49.9334669
  71.9260216  61.2240505  50.5353069  72.3870039  59.7871876  50.4173756
  50.6367159   1.1402613  46.2823534  51.2591553   1.5474017  45.6798267
  50.1196146   0.5525360  45.7315207  84.4151402  15.5966234  19.8048747
  83.6324406  15.0461435  19.8289907  84.2191696  16.3179362  20.4028153
  39.5909786  37.8124666   8.4255350  39.3445277  36.8923306   8.3315068
  38.7601089  38.2869577   8.3982533  55.1050186  31.9805050  60.9256506
  54.6959209  32.7516937  61.3182497  56.0103226  32.2459030  60.7637215
  73.3493853  32.6147294  68.9442825  73.6017036  31.8383193  68.4445286
  73.6819506  32.4501443  69.8266315  51.9164848   9.0615368  30.5767822
  51.5959597   8.8130605  31.4438200  52.1605635   8.2326061  30.1650381
  29.2677212  17.1139860  60.1672173  28.7592244  17.1839702  59.3592787
  29.4352627  18.0207300  60.4240751  -0.0914678  61.7421992   8.1360231
   0.2220574  62.3443778   7.4612556   0.6884423  61.2567623   8.4049497
   2.4870298   6.0824358  40.9818316   3.1375787   5.4585361  40.6597042
   2.8036783   6.3318115  41.8500328  45.3439433  68.4207268  62.4626637
  45.2291924  69.2864246  62.8546238  45.1684720  68.5543652  61.5312243
  71.8939447  46.1569214  54.7886801  71.3988352  46.6748142  54.1539478
  71.6931534  45.2481413  54.5649958  65.8360672  31.3281727  39.7792292
  65.3256369  31.8437529  39.1548324  65.5052376  30.4354882  39.6797347
  69.3200827  20.0499630  49.1424370  69.1263008  20.6066585  48.3882713
  68.5063219  20.0374651  49.6462965  49.6637344  41.8571901  56.2122822
  48.7364721  42.0239019  56.3814831  49.7167158  41.7392492  55.2638578
  70.1294708  50.9486246  36.7920756  69.7488117  51.2968206  35.9857941
  69.3746710  50.7369089  37.3413396  74.8051453  75.4373932  19.2736626
  75.7132959  75.2827072  19.0137339  74.3398428  74.6467590  19.0004992
   8.9592298   9.3529380   1.2099109   8.2354267   9.2965377   1.8337427
   8.6785873  10.0134385   0.5765043   4.7406920   0.3494370  14.8684536
   4.3173440   1.1077750  14.4660411   4.2334469   0.1858628  15.6635509
  77.1022463  45.0279188  62.2626638  77.4189901  44.8562574  63.1494761
  77.1083403  44.1710424  61.8360996  85.6640625  71.6409397  40.6577349
  85.6987762  71.2864065  39.7692895  84.7341156  71.8054771  40.8137798
  83.3730602  64.1191387  41.0499907  82.6785088  63.5793924  40.6724882
  84.1632843  63.8575792  40.5773830   4.4744394  59.4199371  61.0243320
   3.6557863  59.2972898  60.5437040   4.1990468  59.6539927  61.9106770
  71.3908339  73.0483246  54.3320513  72.3457432  73.0379391  54.2667341
  71.1874580  72.3704672  54.9765539  67.9970980   6.8278015  52.4408531
  67.3553324   7.4962133  52.6808357  68.7041759   7.3153991  52.0183325
  80.2013683  58.5109949  54.7080755  79.4212770  57.9902411  54.5170069
  80.3858089  58.9746571  53.8912344  68.6609125  16.5331161  48.7971354
  69.3366623  16.8590844  48.2027149  68.2243395  17.3218036  49.1190147
  48.5917028   7.8201783   7.7804456  47.7127059   7.5324691   8.0270467
  49.0286907   7.9961598   8.6136947  66.2087011   2.6436213  57.0419312
  66.2341738   2.9634476  56.1400986  66.8623877   1.9448347  57.0667934
  48.5933781  31.9513011  51.9188595  49.3988371  31.4466524  52.0319939
  48.7837887  32.7993870  52.3197699  59.3469572  26.5320134  56.0708189
  58.9768982  26.2098598  55.2489281  59.4697809  25.7457018  56.6026640
  41.4533368  66.7852171   2.2789941  41.8487397  67.3874624   2.9092250
  41.3608494  67.3024972   1.4789329  50.0070095  41.9685650  53.1783533
  50.1202965  42.8590727  53.5106087  49.2988873  42.0400143  52.5382805
  72.1421385  42.9280567  39.3181229  72.2300577  43.5847139  38.6272550
  71.7210817  43.3947849  40.0400019   7.7914331  20.7390261  35.6357098
   7.5621793  21.0238242  36.5203381   8.0517289  21.5425372  35.1853228
   0.4175947  16.2116218  43.6408949   0.7998941  16.0512316  42.7781343
  -0.0568583  15.4060197  43.8461494  66.3153267  18.0978572  38.3745193
  66.3112879  19.0468466  38.4995580  67.0675659  17.7926493  38.8816833
  75.8142233  17.1118772  67.5571394  76.0066509  17.9573572  67.1517181
  76.6738987  16.7334342  67.7414417  13.4151783  52.2703178   9.3900524
  13.3861676  51.6598816   8.6533294  13.7763539  51.7567392  10.1125560
  40.4326280  22.1232427   8.9149652  40.1549562  23.0388034   8.9446483
  40.1832231  21.7695201   9.7687278  65.7934093  51.5528584  11.4861226
  65.3330278  50.7553148  11.7472863  66.7024946  51.3999367  11.7438233
   6.8341634  47.2212219  53.7361908   6.1727617  47.1089745  54.4189596
   6.3325021  47.4356508  52.9496908  75.8464098   7.5039554  47.1929693
  76.4191151   8.2159787  46.9078970  76.0955000   7.3462206  48.1036329
  52.3683596  44.0010309  55.6994390  52.0223999  44.8625994  55.9323502
  51.9619417  43.7996006  54.8565388  74.3264955  53.0755086  24.4038139
  74.0845340  54.0016146  24.4076381  74.9440425  52.9863019  25.1296936
  51.4469004  36.9263792  57.7562714  50.7507229  37.5825834  57.7252007
  51.1002827  36.2360430  58.3215380  68.9681816  64.3592262  50.1680803
  68.3720970  64.8062420  50.7689905  68.5501242  64.4411612  49.3109083
  61.8602562  30.2579880  21.5623188  62.3085213  31.0358977  21.2304282
  61.6735029  29.7375369  20.7809830   2.2865865  81.4796543  62.7209711
   2.8572080  80.7206345  62.8414059   2.7561376  82.2011280  63.1395769
  55.8847713  36.7787004  50.0430155  54.9364424  36.8118858  50.1687336
  56.2436199  37.2297955  50.8071995  22.8317013  50.6320365  28.2964836
  23.0607453  51.4959128  28.6392532  22.5633278  50.1319660  29.0672813
  71.5172815  42.3543262  31.9117284  70.6941223  42.2640514  32.3918319
  71.2885666  42.8712559  31.1392641  75.2755356  40.9045362  37.8778267
  75.2389908  41.7810726  37.4949741  74.3618679  40.6840038  38.0589581
  70.5032682  28.8738585  39.5010161  70.9272146  28.7813163  40.3542089
  71.2046909  28.7229300  38.8674068  24.6227970  71.6540773   4.3549429
  25.4330578  71.4784344   4.8333345  24.2218438  70.7927258   4.2385660
  10.8326426  77.1297129   9.3011985  10.1182118  77.2325833   8.6725221
  11.4219418  76.4957626   8.8924633  13.3570955  34.9776816  31.0496497
  14.1884706  34.8811460  31.5141153  12.7931115  35.4483128  31.6633773
  70.1061726  40.2938604  53.4638929  70.9525728  40.7065153  53.6358213
  70.2522039  39.3647122  53.6416292  56.1236048  37.6649737  53.6195755
  56.5720510  38.0874467  54.3521357  56.1064005  38.3314800  52.9327679
  47.4523115  34.1840315  57.2389936  47.2136307  34.7703457  57.9569769
  46.7309284  34.2636085  56.6148901  50.6938076  29.9328017  51.5408278
  49.8106623  29.5879960  51.6727209  51.2706757  29.1931915  51.7317009
  31.0111078  16.7708075  27.6237236  31.8294605  17.0504487  28.0340038
  30.6833347  17.5553096  27.1840034  57.1409893  33.7533259  46.6778755
  56.7939091  33.0464602  46.1337233  58.0905437  33.6373949  46.6441298
  73.5033941  35.4675937  40.4984522  73.8420725  34.7573233  41.0434723
  72.8730202  35.0431871  39.9164414  12.8598592  36.0193205  38.2516623
  13.2429502  36.8516397  38.5286331  11.9591138  36.0512042  38.5739756
  73.1295013  25.8675408  22.4363875  72.5010252  25.7842112  23.1535411
  73.9439201  26.1361003  22.8616214  75.2013779  46.6520452  45.2576780
  75.6268692  46.2552404  46.0177660  75.7686758  46.4261341  44.5205450
  10.2402303  42.0088816  39.2980814   9.2915914  41.9715881  39.1758776
  10.4077146  41.4382076  40.0480890  50.8272886  21.1713171  67.5512171
  50.4818630  20.9922147  68.4257650  51.1126518  22.0842195  67.5887346
   9.2471025  51.1186266  68.7082291   8.7139604  51.6467381  69.3024492
  10.0785825  51.0057020  69.1687918   1.2077704  63.2223614  14.9433170
   1.8816843  62.6822956  15.3561149   1.3060513  63.0533083  14.0063034
   4.5838735  53.4452581  48.6871433   4.4686315  54.3672609  48.9170694
   3.8822934  52.9922628  49.1549158  70.3796768  11.7984116  38.2229352
  70.9653807  12.3662484  37.7221870  69.9234867  11.2804008  37.5597715
  18.3931253  40.4463863  52.6902771  18.0361078  40.1297092  53.5200310
  19.2780588  40.0831413  52.6561069  15.1154509  63.6815937  18.6404644
  15.2144184  62.9663594  19.2688594  15.9934941  63.8075955  18.2807575
  44.3545914  28.6536455  66.4397764  44.7410154  29.5242238  66.3449001
  43.8965178  28.6851621  67.2796631   8.2741926  50.5083418  28.9650750
   8.9539239  50.0913143  28.4356594   8.7559221  50.9862423  29.6401882
  53.8288457  72.1139194  55.1781940  53.4713323  72.5825031  54.4239712
  54.1360814  71.2814255  54.8193169  67.0648670  17.7187538  14.4490004
  67.6151371  17.5067186  13.6950254  66.8474674  16.8694484  14.8332512
   5.8681772  78.4825563  53.5251713   6.5873525  78.5506630  54.1531706
   6.2882039  78.2131529  52.7083254   2.2355459  49.2466640  32.6804137
   2.2389028  50.1694298  32.9348254   2.1674535  48.7703228  33.5078788
  61.0565090  12.4350071  41.1960983  61.0614634  12.1903729  40.2707005
  60.1326227  12.4109161  41.4452600  14.9437727  66.8312561  65.3097935
  15.1297297  65.9903562  64.8920097  14.0876545  67.0856559  64.9654414
   8.1778428  60.6297159  38.3183026   7.6728914  61.4376736  38.4102726
   7.5993821  59.9459839  38.6561084  73.3640957  22.1979642  42.6844454
  72.8928614  21.5060830  42.2202587  73.5617113  22.8474498  42.0096493
  32.4804862  24.6204675  10.4945598  31.8248065  24.5015014   9.8074184
  33.2690366  24.8972333  10.0278412  53.0544281  16.0394633  24.8938894
  52.5257492  16.1227727  24.1002965  52.4890661  15.5744016  25.5105901
  78.1755441  79.3931420   4.5340429  77.4111264  79.6491464   4.0179382
  78.1316226  78.4376009   4.5693241  79.5985985  33.5941768  42.7064037
  78.7020540  33.3198118  42.5136089  80.0853825  32.7750540  42.7975750
  70.5170155  67.1518898  46.8202496  69.7218323  67.4366522  47.2706079
  70.2999878  67.2120810  45.8899260  58.8006401  13.7312973  56.6937733
  59.5112276  13.1525087  56.4175463  59.2428112  14.5181119  57.0125818
  66.5875530  49.8487282  62.4469185  67.4903393  49.5668602  62.2994232
  66.4372015  49.6926594  63.3792686  55.1656294  22.5767422  68.3021641
  55.3132629  22.7728271  69.2273569  55.8176756  21.9082403  68.0919981
  38.0634305  25.2903295  20.1373672  38.9234922  25.6148720  19.8705220
  37.8322217  24.6462989  19.4680417  60.2146959  23.7372208  60.0899792
  60.6970119  24.2419505  60.7448483  60.4871941  22.8315234  60.2372456
  82.5713634  29.4161868  53.3845234  81.6394329  29.6345997  53.3792067
  82.8534317  29.5919275  54.2821789  54.1903925  43.7778187  57.7001476
  55.0837517  43.6751509  57.3721266  53.6341810  43.5228634  56.9640398
  74.7471571  23.3087444  61.8865919  75.5205441  23.4857583  62.4221039
  74.0078831  23.5289431  62.4533510  76.8563502  31.1151190  12.0699821
  77.0845931  30.7125886  11.2320648  77.6616233  31.5465732  12.3556648
  14.8806951  31.9520378  27.9779863  15.6835744  31.8656850  27.4640226
  15.0661561  31.4844155  28.7923360  20.2801139  80.9372489  52.9831362
  19.3351609  80.9542210  52.8314638  20.6636245  80.9444936  52.1061516
  61.4148506   8.4106315  34.3166481  61.6956313   9.0109075  33.6259494
  61.7253288   8.8154138  35.1265846  70.6820536  38.8546896  60.9600925
  70.5628204  38.2016397  61.6496897  70.1926565  39.6182752  61.2661362
  79.3130875  53.3052826  69.9902439  79.9703217  53.7953758  70.4842949
  79.3352032  53.6907864  69.1143799   6.1045208  69.8426373  14.5259128
   5.9085694  69.3743308  15.3374134   5.9866371  70.7662399  14.7479377
  46.9373941  12.8025162  57.8728914  47.3387289  12.7230442  57.0075321
  47.0769501  11.9480062  58.2810211  78.1053543  22.3856902  57.5147295
  77.8671837  22.6664257  56.6311598  79.0433931  22.2022486  57.4630594
  86.4598274  80.8560848  59.7408152  86.9773006  80.0520420  59.6965027
  85.9314060  80.7574844  60.5328274  33.5071278  31.6004419  66.3533783
  33.5620141  30.6507397  66.2471581  34.3961644  31.9121647  66.1840343
  64.0669139  10.1539815   8.3958183  64.3585285   9.8931659   7.5222240
  63.1227764   9.9964917   8.3901058   9.8049147  75.0278701  45.4632664
   9.6021373  75.8235271  45.9552479   9.6416337  75.2629097  44.5498514
  73.3027649  11.2570488  51.5383863  73.1581116  10.3346598  51.3274240
  72.5573826  11.4965403  52.0890951  57.7676964  11.9019699  13.6120844
  58.0889130  11.1671627  14.1346860  56.8151283  11.8093836  13.6287010
  83.6642742  22.5308371  45.5740404  83.2134438  21.7422485  45.2721882
  83.5720253  23.1511140  44.8508692  77.2007132  32.2823334  43.1292963
  76.6118383  33.0049133  42.9117155  76.7133522  31.4949226  42.8870201
  52.7282000   2.7307355  30.1893306  53.5462332   3.1084231  29.8662090
  52.9718781   2.2943403  31.0056710   9.2661569  41.9039202  63.8149261
   8.7381742  41.2197685  63.4033346  10.1213167  41.4964247  63.9523125
  53.2298794  76.0649116   5.6746183  53.9181462  75.5463989   6.0913549
  53.3347359  76.9422014   6.0428558  15.2196977   6.9878483  35.3784442
  14.9694154   7.8143924  35.7912588  15.3167913   7.2031635  34.4508433
  36.5480843  68.7583788   1.5728698  36.6473904  67.8072842   1.5305505
  35.6261864  68.9123590   1.3664184  80.4666805  16.9739807  48.6461210
  80.3815746  16.8990898  49.5965862  79.5972109  16.7566550  48.3099318
   6.0471151  16.7823660  61.6406822   5.1808736  17.1341765  61.8458605
   6.6135404  17.1210349  62.3339987  58.0392361  28.6797118  57.7087402
  57.5642729  28.6726809  58.5397577  58.1276083  27.7555656  57.4755478
  85.0786209  53.9742565  53.0425739  84.9285507  54.5297909  52.2776604
  85.8977509  53.5179234  52.8501606  59.4746256  44.8291159  56.9466352
  59.5335722  43.9349031  57.2830009  58.6093044  45.1319742  57.2218275
  47.3919710   2.1914781   3.6662851  47.8661521   2.9796803   3.4014831
  47.1975597   1.7413819   2.8441845  56.3190842  23.1035185  54.4715738
  56.6275406  22.2052407  54.5906544  55.6861591  23.0465102  53.7557602
  64.7058868   0.2277934  53.5869122  65.5905914  -0.0053095  53.8683224
  64.8346329   0.9293983  52.9486275  82.7536774   6.8657929  58.0380249
  82.7444172   6.0281688  58.5012007  83.4949207   7.3397738  58.4150314
  65.0007772   3.3972216  31.0390115  64.4047213   2.6483673  31.0519648
  65.6734800   3.1790853  31.6840816  73.5857058  59.0893745  60.1250505
  72.7704096  59.2873144  60.5858564  74.2188740  58.9168787  60.8218813
  49.7104263  39.5993114  54.2408371  49.3997431  39.1396642  53.4608173
  49.8149586  40.5077171  53.9578104  79.0882349  58.1056309  62.9406929
  78.2165146  58.4924364  63.0226564  78.9279795  57.1635914  62.8848791
   4.5010939  49.0242030  15.2841793   3.7346974  49.4605412  15.6563125
   4.8817578  48.5415991  16.0179554  37.3457797   7.1429360   8.0000101
  36.9180044   7.4606002   7.2048174  37.4582370   7.9250586   8.5402618
  71.3951302  57.4189901  42.5205517  71.5946007  57.0089626  41.6789341
  72.2514296  57.5887823  42.9131842  42.9786110  22.5418830  53.4542704
  42.4444199  22.1899343  54.1663122  43.4148264  21.7759848  53.0809784
  50.1752472  53.6196566  68.0368090  49.8802757  54.3478107  68.5836315
  51.1294842  53.6947584  68.0322790  54.3435860  45.8256149  59.6547127
  54.2804050  46.6168404  59.1197395  53.9753771  45.1343727  59.1044044
  54.3998146  39.7137523  63.3795118  53.4679127  39.4973540  63.3485460
  54.4217062  40.6519127  63.5682058  31.1982425   5.5835879   9.8047672
  31.9150098   5.0023854  10.0590931  31.0642274   6.1464417  10.5673061
  55.2909422  30.6019950  57.8145599  54.9079180  31.4694309  57.9452515
  56.0742378  30.7628345  57.2884369  70.8151436  43.9813280  29.3345308
  70.5128050  44.6293831  29.9708104  70.3160572  44.1740322  28.5407996
  40.7193931  13.6147511   1.8790517  40.8434089  12.7060044   2.1529804
  39.9609502  13.5876954   1.2957273  74.3413067  63.0340433  69.8446465
  73.7896395  63.7684584  69.5753288  75.1748085  63.4370947  70.0876665
  85.2060127  12.8529406  61.9573402  84.7114563  12.2597492  62.5228167
  85.8670616  13.2372236  62.5331736  44.8061132  20.5312467  55.2534819
  45.3481627  20.4960513  56.0416317  44.6799183  19.6145856  55.0084543
  86.4251900  19.9718702  15.1838064  86.9790936  19.4511878  15.7654548
  85.9437084  19.3245327  14.6686709  79.1207886  30.5454755  44.2377329
  79.7093248  31.0389900  43.6665058  78.2928896  31.0244131  44.1998720
   4.3006418  29.7970676  53.6303806   4.8836324  30.5559754  53.6100340
   3.7070176  29.9311948  52.8915644  49.2899036  33.6649418  54.0017605
  49.7542620  33.7525892  54.8341799  48.3895350  33.4560227  54.2506075
  74.4586802  40.6653833  51.2875986  74.1782188  39.7562623  51.1823702
  73.6762810  41.1233854  51.5947056  49.3721581  38.9530683  57.0716953
  49.1040611  38.3318734  56.3945866  49.6696329  39.7226644  56.5864515
  75.2545881  30.7381272  28.7786388  75.0298548  30.8900881  29.6965909
  74.4146729  30.7580185  28.3199668   1.4892194  16.9723701  70.2090740
   1.8732545  17.0168865  69.3334246   2.1909139  17.2597623  70.7932472
  58.0293226  61.7414045  63.7297535  57.4109173  61.6198826  63.0093098
  58.2584190  60.8525705  64.0012550   9.8987672  16.6012311  44.4386816
  10.0167463  17.0304906  45.2860594  10.6972978  16.0876012  44.3171406
  80.7977295  11.2415791  57.8016472  80.4308701  10.5352259  57.2699404
  80.1672745  11.9568968  57.7175474  71.8938971  59.2120123  45.1586485
  72.7802181  58.8519526  45.1906538  71.4844704  58.9130783  45.9705830
  68.5562420  34.4640851  56.6971254  69.4610977  34.5865798  56.4099503
  68.0517149  35.0836205  56.1700010  71.5926933  33.7867546  50.0915289
  71.4455080  34.6862173  49.7990608  71.0390711  33.6933517  50.8667755
  48.3794641  45.0949574  48.8758087  47.5739622  45.5463505  49.1280842
  48.5468197  45.3865719  47.9796028   5.3782174  53.3557749  67.0650196
   4.4718454  53.0866385  67.2143221   5.3293321  54.3037081  66.9414568
  44.0769911  39.8027945  50.1459742  44.2992544  40.3100872  49.3652821
  44.7717762  39.1476798  50.2117538  65.3896904  68.5754156  48.7939167
  65.0166607  69.2720985  48.2538128  65.5630827  68.9931774  49.6375084
  47.9508050  19.9800694   1.0066972  47.3248371  19.6484387   0.3629432
  47.7421363  19.5044625   1.8107401  43.3796349  70.5618794  20.4063354
  43.8929024  70.7957395  21.1796985  43.7101784  71.1373122  19.7165142
  79.6988773  50.9878588  46.3899422  79.6717930  51.2645483  45.4740047
  78.8069153  51.1263418  46.7084551  66.3361931  48.6974573  55.9157372
  65.7122898  48.2531309  56.4898014  65.8801270  48.7706423  55.0773573
  59.1117573  14.3166649  44.4149923  59.1514874  14.1408801  43.4749126
  58.5659933  13.6136127  44.7672653  78.2869434  16.3289607  68.4704781
  78.9467812  16.1461985  67.8015661  78.7045383  16.9648695  69.0513992
  84.0882397  77.8343916  63.7220335  83.4622955  78.5211134  63.9518976
  83.9948273  77.7324343  62.7748775  41.6216691   7.0805562   6.4648901
  41.9022973   7.5729001   7.2363029  42.3647865   7.1330560   5.8638511
  83.5669804  39.3719077  30.7710719  83.6894703  39.7890568  31.6238427
  82.6213932  39.2400241  30.7025647   9.9917314  19.0276027  38.6967850
   9.0566537  19.1186142  38.8800120  10.4218576  19.2879319  39.5113134
  68.2691336  26.0603762  68.7038946  68.1670141  26.9574142  68.3858871
  68.6257410  25.5804157  67.9564333   8.3828733  58.8971424  51.4540863
   8.6170575  59.7154284  51.0161400   7.4581811  58.7685394  51.2428141
  51.7994976  23.7468553  63.2631350  52.4421024  24.3702722  63.6017275
  52.1248055  23.5164356  62.3928976  13.5214803   7.4516684  12.7082074
  13.3940313   6.5152168  12.5563943  12.6386831   7.8207856  12.6825964
  61.9404602  50.5140162  69.4885826  62.0595980  50.1286983  70.3566647
  61.5366697  51.3652372  69.6577311  76.5286541  70.9066391  55.1664352
  76.8170547  71.0617304  56.0658836  76.8064213  71.6876602  54.6878099
  76.6215849  24.1916347  50.1774168  76.4421034  23.5166645  49.5228672
  77.5622511  24.3526936  50.1036549  59.5558691  19.8617196   3.9917240
  58.8768578  19.2008126   3.8561508  59.2738676  20.6070948   3.4615111
  19.2600248   4.5166886  34.0173364  18.4920404   4.6466678  34.5737004
  19.9378297   5.0647593  34.4128466   3.3887670  33.0605388  39.5956206
   3.8871286  32.4632120  39.0378857   2.4822900  32.7640486  39.5142365
  83.8575935  61.5226221  14.9201548  83.8171577  62.4774551  14.8663414
  84.6871948  61.2940311  14.5009339  66.8439563   5.2229178   2.2738014
  66.0833248   5.1231301   2.8462778  66.5815528   5.8917058   1.6412626
  64.1791900   5.5389941  27.6198707  64.0631564   4.6644652  27.9913078
  64.5948013   6.0431254  28.3194099   1.9496534  67.6508713  38.0911374
   1.5921781  68.0721998  37.3095226   1.3786695  66.8970251  38.2392311
  55.2769566   6.6311067  63.4193945  55.6612778   7.3684597  62.9452229
  55.8627367   5.8967125  63.2356691  57.8033972  31.0452127  56.3743210
  58.0083275  30.1634669  56.6853809  58.4632444  31.6036153  56.7854452
  62.8187275  29.7268939  39.5209479  62.2404861  28.9871597  39.7071290
  63.5858154  29.3326879  39.1057301  78.1372166  24.1597939  41.7240715
  78.3794737  24.7300291  42.4537134  78.1449986  23.2780170  42.0964146
  60.5970462  15.9726918  19.4337688  60.7820876  15.1393903  19.8668991
  61.2265571  16.0134042  18.7138401  61.5220356  23.7235379  29.2527246
  61.1172628  22.9169393  29.5717692  61.3288927  23.7338877  28.3152699
  78.3755636  13.1516492  62.4765587  77.4947786  13.1708980  62.1022940
  78.8099480  13.9200962  62.1063805  78.4922504  22.8532982  13.5298574
  79.0566969  23.6256194  13.5638523  77.6578093  23.1503224  13.8927865
  77.1214342   1.3899669  57.5166273  76.2157679   1.3605492  57.2081804
  77.2328281   0.5775064  58.0103207  74.0309238  48.8816500  39.0879869
  73.6707449  48.0279684  38.8477159  73.3621407  49.2745018  39.6489072
  63.3808517  58.1849480  61.8220663  63.1744194  58.8898230  61.2082481
  62.7493238  58.2939005  62.5330734  84.7134209  24.0689659  60.8052158
  85.3768826  23.9201617  61.4789438  83.8839817  24.0744925  61.2829542
  75.1863194  44.0251827  43.6648655  74.7100019  43.5404634  42.9907703
  75.1511049  44.9365950  43.3744860  74.8246145  49.3351030  33.0098319
  74.9112844  48.4987211  32.5524640  74.7118855  49.9795961  32.3111534
  15.4775229  75.6775744   6.4121805  14.7098008  76.0652740   6.8323265
  15.1522007  74.8674472   6.0196291  73.6804724  14.8256278  59.1480446
  73.2411528  14.7728455  59.9968338  73.3307409  15.6209826  58.7463856
  51.7664337  45.6480217  49.1620779  51.2166595  45.2755928  49.8514795
  51.1655474  45.8006239  48.4327793  65.2786350  60.7154322  39.6088505
  66.1044884  61.1644745  39.7892928  64.6835375  61.4113808  39.3300223
  30.7704351  69.0519428  70.6413031  31.0993192  69.2202568  69.7582722
  30.4807660  68.1398916  70.6192064  71.5122604  28.2748246   0.0049524
  70.9083319  28.2149506   0.7451683  71.2383890  27.5725698  -0.5850186
  14.7655192   7.1387415  44.5561504  15.3495684   7.8366308  44.8529005
  14.7587052   6.5093164  45.2772665  66.9874191  52.5720119  46.2877655
  67.3200989  52.8957558  45.4506588  66.2755108  53.1717873  46.5106678
  84.0039539  14.1024542  51.1778879  84.1308689  15.0300372  50.9785986
  83.0580997  13.9707112  51.1127329  54.8428869  18.6159194  30.3498244
  54.5862341  18.2297635  29.5124197  55.7987785  18.6511815  30.3143692
  14.5932515  24.0034926   5.8132873  14.8270162  23.9972699   6.7414842
  13.6641439  24.2334044   5.8018242  59.9925709  54.2513895  40.5909824
  60.8995676  54.4658089  40.8091831  60.0245428  53.3386898  40.3042936
  75.9510183  34.5437789  32.3492861  76.1923933  34.9924421  33.1596351
  76.5295601  34.9197865  31.6858578   1.4268300  63.4294462  55.4422617
   1.6407773  64.1338158  54.8304462   0.4701421  63.4207582  55.4724312
  72.3796892  77.0637560  30.9645462  73.1285477  76.4701271  30.9093118
  71.6222191  76.4858437  31.0566807  40.5055863  70.0768001  41.9485664
  39.9405581  70.4328508  41.2628555  41.3523347  69.9515183  41.5201330
  51.8437386  40.0825834  63.0943680  51.4273214  39.3921089  62.5785494
  51.2221813  40.8100033  63.0668831  84.8006328  41.6710055  23.8460479
  85.2600368  42.2075618  23.2000671  83.9669021  42.1211780  23.9819275
  74.3339252  60.5945396  65.7437420  75.1744652  61.0208035  65.9111357
  73.9248800  60.5245590  66.6063118  79.1885471  72.8857183  61.1752415
  79.4299173  72.5215769  60.3235531  79.7034216  73.6894798  61.2466908
  20.9472593   9.8488534   5.1551233  21.6641935   9.2869342   5.4492078
  20.6042035   9.4113505   4.3759332  58.0902815  71.9529819  65.4710913
  58.2947397  72.6392508  66.1062813  58.4477139  72.2774601  64.6445370
   3.3500764  40.0133085  35.2001977   3.6099431  39.8680210  36.1099195
   3.8940618  39.4081306  34.6961427  82.9625934  16.8402033  47.4372673
  82.9359668  17.2363977  46.5663195  82.1536391  17.1316748  47.8578234
  30.1789132  19.0823393  53.5666704  31.0726872  19.0569811  53.2249784
  29.7589436  18.3058100  53.1967115  75.9921074  50.3516817  66.1822271
  75.1543999  50.2273703  65.7361031  76.2024641  49.4896889  66.5413189
  78.2403803  24.9739146  46.7974949  78.3450031  24.4948983  47.6195812
  78.3419561  25.8938432  47.0417166  38.8298019  11.2992061   2.0208488
  38.7435420  10.9354890   2.9020391  37.9454406  11.5853227   1.7922054
  76.2422555   0.1511221  30.4540277  76.5068477   1.0709410  30.4409242
  77.0321267  -0.3288813  30.2051616  13.7843511  28.7464952  48.8091230
  13.5752580  28.1416440  48.0973196  14.7392747  28.7228990  48.8707399
  81.5036488  49.4889402  65.4501629  81.5691853  48.7734175  66.0825920
  80.8637238  49.1827345  64.8075294  62.4477911  40.9966660  64.8172569
  62.6203299  41.2176466  63.9020348  61.5748978  41.3501453  64.9885464
   1.8402765  44.9768162  68.6714840   2.4369714  44.7106791  67.9719448
   1.6036699  44.1587830  69.1086054  76.5252972  36.8114328  40.8170652
  75.9320831  37.2794962  40.2294922  76.3595581  35.8859777  40.6373644
  66.6638184  53.2573175  62.9654264  66.5784931  53.2603645  62.0120430
  66.9771481  54.1357994  63.1806660  83.2812500  12.2244394  57.8904247
  83.3279991  12.4649668  58.8157320  82.4783516  11.7084444  57.8173494
  27.1366349   6.9977598  24.3937755  26.3669815   6.9017820  24.9547124
  27.5625172   6.1410170  24.4228196  66.8729179  60.6156548  15.5056797
  66.1532610  60.9959717  15.0020061  67.6205795  61.1844404  15.3220688
  77.1137953  69.7848701  50.3151083  77.3254776  68.8793087  50.0884485
  77.0431757  69.7826004  51.2696981  73.3213084   3.0233984  60.0330925
  73.0434268   2.8255777  59.1387320  74.2026561   2.6554518  60.0969791
  62.8711971  16.8451560  26.6121135  63.6563953  16.7953122  27.1572910
  63.0993923  16.3608277  25.8186470  58.0135425  22.0214093   2.2931419
  57.1660121  21.6082013   2.4580036  58.0998786  22.6757491   2.9864107
  26.8409767   5.9578924  56.0323477  26.8699208   6.6237478  56.7193937
  26.3734665   5.2234392  56.4301491  82.5755119  56.9405413  61.1324644
  81.8518829  56.3335657  61.2879705  82.1748447  57.8084707  61.1814594
   1.1980572  66.6399987  21.8502555   1.7317047  66.9962461  22.5605617
   0.3064719  66.6375764  22.1985469  55.4442167  70.3160667  62.3602676
  56.0478973  70.5413389  61.6524124  55.6072187  69.3878365  62.5277519
  67.4323066  23.5183871  10.5105625  67.4584373  22.5722135  10.3680645
  68.3430560  23.7605918  10.6782184  75.8813143  54.2515373  64.2399740
  75.5267000  54.2391205  63.3509731  75.1104403  54.2105007  64.8059273
   1.4947698  35.6597519  30.9194303   2.3541067  36.0813189  30.9120417
   0.8742330  36.3824940  31.0132384  74.6192169  60.6338739  70.6057358
  74.4639969  61.5634537  70.4383516  73.7873411  60.2102423  70.3941870
  65.8308697  51.0758591  41.2179518  65.6938934  50.1436424  41.0493088
  66.3239193  51.1009932  42.0380116  41.0526451  24.1518033   2.4205862
  40.4149612  23.6044610   1.9623218  41.1505111  23.7384618   3.2783733
  44.3453630  17.2545398   2.7332483  43.9133771  16.4308560   2.5070463
  44.0477212  17.4446547   3.6229072   9.7189233  58.2802105  67.3542976
  10.0335309  58.0391359  66.4830112   9.0831563  57.5998974  67.5760984
  14.5466325  29.4610643  67.5559235  14.5625207  29.5540476  66.6033792
  14.0768239  28.6412144  67.7087402  82.8812790  34.5431709  57.3772097
  83.1149006  34.6534181  58.2988930  82.1826839  33.8888383  57.3838091
   1.9516275  70.7816505  31.5544629   1.7795560  70.8484221  30.6152272
   1.2253377  70.2590227  31.8944597  65.1738358  40.3890419  52.9911709
  66.0294676  40.6619835  53.3222628  65.3286600  40.1815939  52.0696354
  60.4762348   6.2154544   1.9686399  59.5989688   6.2573779   1.5880190
  60.3271755   6.0131085   2.8922592  74.7233152  55.3574371  57.5397730
  74.6754551  54.9533892  58.4061956  74.4486952  54.6659708  56.9375372
  71.0354614  47.7726316  30.5762148  71.8508101  47.8051138  30.0758362
  70.3910589  48.2001400  30.0121117  80.6797498   4.7242765  69.8233557
  80.7303708   4.5971327  70.7707262  80.5696052   5.6688051  69.7139978
  68.0612612  63.6235619  66.0059118  68.1036901  64.3070459  65.3371143
  68.9543915  63.2831287  66.0574579   9.8014734  47.4310350  59.8667097
  10.2322576  46.8418694  60.4860115  10.5087945  47.9777479  59.5246077
  51.9397593  44.0708160  52.6774549  51.1467981  44.6066761  52.6599503
  52.1545506  43.9307022  51.7552471  63.0137920  42.6725674  41.9079447
  62.3756361  42.1858263  41.3863373  62.8143692  43.5923100  41.7331982
  53.9030918  15.8295787   9.0093265  53.7429222  15.4404080   8.1496082
  53.6452373  16.7459453   8.9092193  82.5440502  69.8335123  31.0896254
  83.4743595  69.6095562  31.0650563  82.3606586  70.1907015  30.2207088
  12.2151849  25.9428763  50.7802820  11.6817949  26.4808154  50.1951742
  11.6623781  25.8052301  51.5495014  77.2410250  20.3581977  59.1799736
  77.5754786  20.8887482  58.4568644  76.3084316  20.5699039  59.2210102
  74.0628624  60.3296423  43.3561659  74.0158081  59.4026136  43.1224394
  73.6992168  60.3724289  44.2405653  38.5208986  69.0410852  70.8630991
  38.5971830  69.9028921  70.4535913  38.6396501  68.4221935  70.1426077
  44.2063936  19.6679080   8.7299953  45.0557931  19.2673409   8.5448156
  44.1003784  20.3308547   8.0477224  47.0230182   9.1823066  17.5600277
  47.2607931   8.4300244  17.0180259  47.7988942   9.3460095  18.0961738
  84.3807030  28.4795547  61.6187191  84.5148468  27.6244640  61.2099934
  85.1555443  28.9858437  61.3747358  35.7256928  57.9706092  22.6483570
  35.9313908  57.9436143  21.7139087  35.1161137  57.2445305  22.7804886
   5.5550614   4.3763952  43.0439997   5.0436678   3.5749559  43.1553698
   5.4192534   4.6219473  42.1288586  61.4008951  45.4516411  52.3557806
  60.4901266  45.2606821  52.1315670  61.6379690  44.7758484  52.9908609
  27.5719163  44.4974947  30.2634144  28.1231687  44.2370033  29.5255136
  28.1910035  44.7050381  30.9633350  72.4196959  43.1793976  35.4014468
  72.6897526  43.6471939  34.6112132  72.0811319  43.8624859  35.9802341
  14.6445558  54.0496922  30.3376079  15.0853822  53.9812994  31.1844993
  14.6632478  53.1598806  29.9853110  78.0272563  69.5383227  14.0016876
  78.1380638  68.9330161  13.2685028  78.7602409  70.1486457  13.9212833
  53.9106512  34.1173220  64.5695829  54.7322464  33.9112353  65.0153923
  54.0064240  35.0311375  64.3012571   1.4048669  27.1596766  51.2777424
   1.6866872  26.2997866  50.9656525   0.6992910  27.4113226  50.6818676
  83.5021400  75.7400656  28.1281376  82.8275681  76.0275412  27.5128865
  83.0989456  75.8416605  28.9903116   2.5433633  32.8671789  50.8442450
   3.4872625  32.8496957  51.0023165   2.1624372  33.0912590  51.6933107
  17.3718736  35.6400919  59.2745495  17.6902196  36.3622308  59.8162174
  16.6853807  35.2303886  59.8009586  55.6275415   7.8545868  59.1684628
  55.6774759   7.6816636  60.1085901  54.7337246   7.6113236  58.9273357
   7.8262040  71.7365980  55.8855438   7.9668233  70.8452415  55.5662584
   7.7992055  72.2732878  55.0934172  46.3329077  73.4649277  30.5461216
  45.6100845  74.0541649  30.3303409  46.0029507  72.9374695  31.2735462
  13.1128731  66.3185723  28.8576255  13.5069886  65.5360539  29.2430721
  13.2991209  66.2443240  27.9216610  56.7631610  25.0413096  12.4744259
  57.4086936  24.6879971  13.0865417  56.9235977  25.9849656  12.4753605
  28.7868402   9.4374305  62.3604774  28.9990899   8.5324997  62.1318197
  27.8306672   9.4564104  62.4004698  47.0206213  28.9500093  59.9776697
  47.6579618  29.1501355  60.6632185  47.4560261  29.2046022  59.1641378
  10.5428216  38.1824946  70.2973461  10.6640432  38.0524302  71.2378931
  10.8906743  37.3849154  69.8984718  23.4954913  25.8454717   6.2462173
  23.2291730  25.4926885   5.3971897  23.8098749  25.0842107   6.7339454
  80.2124310  54.7831011  10.8315945  80.4897499  55.2916384  10.0695503
  80.9441185  54.8522329  11.4448535  76.8975449  75.5366468  67.3823738
  76.8209362  74.7090387  66.9075823  77.8274679  75.6031370  67.5992966
  77.1668434  81.0991287  14.5725679  78.0017138  80.7873631  14.9218810
  76.6751623  80.3009892  14.3790281  77.1877527  27.1719694  43.7838650
  77.3539543  27.5179911  44.6607256  77.7628517  26.4099789  43.7140989
  46.4189275   2.5557387  15.7037101  47.0282873   3.1774009  15.3056560
  46.3285144   2.8548873  16.6084514  67.9321369  40.9007609   0.7367311
  67.2505363  40.4614890   0.2281128  67.4872955  41.6464198   1.1396251
  50.1981386  10.1018107   4.0412746  49.5979961   9.4186652   4.3402229
  49.6272548  10.8230842   3.7765394  59.0713008  32.1413100  16.2100731
  59.5406898  32.9603208  16.0515438  58.5375865  32.0154107  15.4255138
  66.4080143  51.3841152  51.4129448  66.6696262  52.2965622  51.2895298
  67.1555853  50.9778261  51.8514729  85.6458378  39.6801877  20.4406190
  86.3763142  40.0696039  20.9212351  85.7891464  38.7363601  20.5105257
  80.3979111  47.0155048  10.4183042  81.1224937  46.5603209  10.8472908
  80.1594830  46.4484644   9.6849227  59.4720348  22.9916299   4.5309196
  59.1196235  23.8502086   4.2966352  59.2322238  22.8770984   5.4504858
  70.3196239  37.7303839  35.9101725  70.1514244  37.3954368  36.7909408
  70.4211998  36.9460368  35.3709960   2.1064947  41.6947079  41.0150146
   2.1950338  41.0969877  41.7573881   2.1967313  42.5672960  41.3979959
  82.5705624  80.6383705  64.9902487  82.2391891  81.3356781  64.4243860
  83.4371758  80.9413242  65.2612257  67.7331257  53.8631153  55.0612307
  67.4337816  53.0670929  55.5005169  68.0201006  53.5665751  54.1975498
  30.2419987   7.5692968  40.6832695  29.3045273   7.4716215  40.5164480
  30.3165856   7.5707083  41.6375589  62.1788836  36.4110255  19.2109203
  61.8455458  36.2987924  18.3206832  61.4723253  36.0932326  19.7730732
  36.9635961  62.7855968  57.9736662  37.8059194  62.4185944  58.2420826
  36.5120027  62.9752636  58.7960529  64.1891193  43.7586689  58.8481426
  64.6939802  44.4025278  59.3449306  63.2768679  44.0180588  58.9775467
  26.2381592  81.4446958   6.5347610  25.6579724  81.9836982   7.0724378
  25.6468430  80.8857115   6.0306631  21.0039041  67.8557253  56.7764902
  20.1078794  68.1431437  56.9518471  20.9022043  67.0335102  56.2970591
  62.9504204  61.7917967  43.6932850  62.8117895  61.4811230  42.7985764
  63.2194853  61.0118866  44.1786480  58.5552454  39.2422271  66.1720133
  57.6351547  39.2298675  66.4356756  58.7418795  38.3402705  65.9114885
  65.9153732  14.8647941   8.2120119  66.1931117  15.3788913   8.9701687
  65.2120193  15.3804934   7.8175865  15.5703447  64.8846149  35.2805090
  15.6728837  64.1039371  34.7362089  15.1567075  64.5649052  36.0823345
  50.1353534   9.0963948   0.6038271  50.7757457   8.7704766   1.2362085
  50.4135545   8.7233985  -0.2326645  83.7995148  63.6443758  47.8130913
  84.3448639  63.6381149  47.0264626  83.7728405  64.5635939  48.0787230
  60.4081329  43.1615413   4.5166479  60.0260909  42.4049819   4.9615131
  59.9646934  43.1899703   3.6688362  48.2659760  74.3394263  21.7900978
  48.0672875  74.9632533  22.4883781  47.4735680  74.3201764  21.2534938
  63.4213018  49.1699123  64.0798759  63.7780619  48.3000040  63.9003849
  62.9578114  49.0717602  64.9116039  62.1048832  56.5675068  43.9347935
  61.9637680  55.6626844  43.6561918  62.8637314  56.8582726  43.4289980
  80.6312752  52.9659843  59.5316219  80.4754734  52.3044968  60.2057076
  81.2394142  53.5834455  59.9379921  57.0570548  33.0925429   6.8167291
  57.1321472  32.8688014   7.7443777  57.0914062  32.2500813   6.3636146
  61.8293476  64.9425364  55.3489304  62.5708532  65.1569462  55.9150028
  62.1288061  64.1919184  54.8359728  66.8284702  68.0348206  57.7092266
  66.1344528  68.1031084  58.3648968  67.2111464  67.1695948  57.8547382
  34.4773944   5.6549800   5.6328188  33.8516649   5.3256190   4.9876676
  33.9777501   5.7039082   6.4478002  66.6504272  36.5684474   8.5578857
  66.6846164  35.6848061   8.9242731  67.0317539  37.1244014   9.2373977
  67.2753096  75.8398914  59.7347307  67.5523376  74.9648523  60.0063848
  66.5271091  76.0396767  60.2973223  83.6769383  73.2237609  27.2142635
  83.5821908  74.1218336  27.5316272  83.7325852  73.3106406  26.2626396
  86.0455132  81.3706207  49.1514444  85.8736610  81.6293621  50.0568438
  86.9966602  81.4299297  49.0618181  80.8211040  44.5148802  45.7296801
  80.4986477  44.8594713  46.5624571  81.4552689  45.1663828  45.4303503
  18.0606553  27.7289629  49.5594883  17.5861451  27.2757554  50.2563953
  18.5494897  28.4171009  50.0108624  76.1370230  56.1359930  68.3521080
  76.3336849  55.5864429  67.5934601  75.4684353  56.7454910  68.0394793
  46.5497287  26.8627704  17.1360813  46.6674884  26.8500102  18.0859218
  46.2528356  27.7521432  16.9434677  67.2364616   9.8756808  37.7442598
  67.5237608  10.1408505  36.8705440  67.4075842   8.9344805  37.7772760
   1.1898038  75.5851793  47.3563385   1.3164041  76.3652897  46.8163109
   0.9639070  74.8957253  46.7319536  19.5795343  61.7844868  59.9290228
  18.6839864  62.0837736  59.7719812  19.7185228  61.0941601  59.2806721
  58.8402828  27.3520434   4.6686254  58.0324634  27.1812690   5.1528774
  59.4867690  26.7703164   5.0684915  65.1178217  65.3978062  50.4386854
  64.6175194  65.8691502  49.7725248  64.8970222  64.4772148  50.2972937
  81.8423462  42.0535994  26.4542913  81.1863995  41.3845491  26.6500735
  81.3415432  42.8661299  26.3820624  27.6922233  69.6873720  45.8717918
  28.1503922  70.4466410  45.5114794  27.4911124  69.1448994  45.1092196
   9.9438856  56.7866135  50.8654261   9.7822187  56.7921305  49.9219894
   9.5374009  57.5930023  51.1828041  52.9100879  30.1486075   8.0090128
  53.6067661  29.9346745   8.6295734  53.3345683  30.1158011   7.1517072
  20.2312467  33.5613251  48.0837631  21.1250017  33.4602380  47.7563190
  20.2124498  34.4408178  48.4610844  78.5849237   3.7055641  47.0028400
  78.5932255   4.5973596  47.3504925  78.4875965   3.8180131  46.0572624
  53.0141528  12.7636540  15.6598220  52.6604827  13.4773791  15.1290165
  53.0661472  13.1259740  16.5442691   1.5985486  79.1892433  61.0524130
   1.1690996  78.8274956  61.8276167   2.5294397  79.0145874  61.1908627
  76.6634417  36.7953467  51.7426729  77.0508814  37.6179004  51.4434671
  75.9812546  37.0620966  52.3588657   8.4876058  49.7606039  48.6998844
   8.5215089  49.8801947  47.7507877   7.7728841  50.3286600  48.9874887
  74.7680759  69.3810558  61.1626625  75.2474403  69.6299744  61.9529057
  73.9369106  69.8512077  61.2286425  54.0249904  13.4191478   3.9946352
  53.4753688  12.7160705   4.3407999  53.5039791  13.8060964   3.2910381
  61.8205722  59.0001834  15.8161007  62.1269496  59.1296447  16.7136512
  62.2827133  58.2175601  15.5158077  55.9357627  38.7130034  16.2770687
  55.0143321  38.5447038  16.0799060  56.2107643  39.3463004  15.6140934
  73.0370140  47.3371553  68.4951591  72.4425077  48.0067730  68.1569147
  72.9548979  47.4024725  69.4465923  58.5772991  38.3638954  38.9444900
  59.4618416  38.0778170  39.1724706  58.0489826  37.5669217  38.9886093
  69.8857975  38.7404799  48.6605644  69.4798183  38.4010315  47.8629494
  70.1530600  39.6309900  48.4329796  59.5416444  15.9291201  36.6476727
  60.2821153  15.7515554  37.2276759  58.8013952  16.0651140  37.2390819
  48.5665162  17.1309150  12.8571163  47.6115735  17.1460641  12.7931915
  48.8014921  18.0138219  13.1425892  44.2826500   4.3955736  47.3358774
  43.9930477   4.3388014  46.4253092  43.7967244   3.7041025  47.7853107
  83.1548023  53.8511896  55.1612759  82.9600811  52.9296875  55.3320074
  83.7043381  53.8386726  54.3776417  74.7217321  42.9066515  55.3808975
  74.7913122  43.4339809  56.1767101  75.3723049  43.2817698  54.7873688
  73.5303164  43.8679743  29.1148496  73.7817287  43.1671381  28.5133052
  72.5762224  43.8096476  29.1651654   8.2937518  59.8187848   6.1977325
   8.7491980  59.0013082   5.9964119   8.9907399  60.4716928   6.2621389
   7.7968213  51.9670057  66.5133572   8.2254979  51.6508579  67.3086691
   7.0247648  52.4371862  66.8281364   4.9393461  35.1928949  44.4477701
   5.1454351  36.1063981  44.2496061   5.0758455  34.7316122  43.6202335
  80.8913136  71.3320684  70.7804871  80.8674145  71.0999203  69.8521709
  81.4850330  70.6916094  71.1723232  70.2752917  71.4933260   4.0230022
  69.6852820  72.1267994   3.6145483  69.7096293  70.9716447   4.5923076
  82.7947044  15.2675223  66.4914036  82.9262638  15.1710367  65.5482101
  83.4932137  15.8590710  66.7713881  31.8445871  60.3562975  59.9170065
  32.6332567  60.6647205  59.4707966  32.1432683  60.1195049  60.7950449
   1.3535306  61.1511660  39.6931195   1.5604398  62.0811081  39.6002483
   1.1914823  60.8513594  38.7986445  31.7912426  69.6654900   1.1620222
  31.5309944  68.9758594   1.7726884  31.0852185  69.6925242   0.5162416
  20.4092500  16.9091761  36.0560274  20.8323572  17.1315014  36.8853545
  21.1345003  16.7291677  35.4578304   3.2850168  40.5998611  66.2055588
   3.4588239  40.7271290  67.1382046   2.3447893  40.7541561  66.1139059
  72.8050375  43.1139755  50.7708549  73.2953596  42.8847313  49.9813843
  72.1104479  43.6952019  50.4610825  77.0679855  62.1439886  24.6068740
  77.3680544  61.5971088  23.8808513  77.2328234  61.6162872  25.3882766
   5.8306215  18.9785719  35.1153326   5.4200170  19.1481936  35.9631920
   6.6236017  19.5146537  35.1217127  84.6854019  49.6430874  58.9197302
  83.7762070  49.6997547  58.6258173  84.6785545  48.9588118  59.5890188
  74.9837160  49.6955442  48.2437181  75.7510090  49.3827009  48.7229061
  74.2842817  49.0902948  48.4900904  82.8422451  60.8891058  64.5970440
  82.7496243  61.7560148  64.2019129  81.9463158  60.5583811  64.6616411
   5.9264276  45.4057407  45.7116985   5.4516313  45.7801628  44.9696636
   5.9198568  46.0970688  46.3737059  21.5288535   9.2551260  60.6223822
  22.2099343   9.9213152  60.5299377  21.9331446   8.4520750  60.2939177
  13.0404374  26.2623477  20.7152200  13.6170099  26.4827919  21.4467931
  12.6327703  25.4353476  20.9723353  73.4742785  41.5997505  24.9886274
  74.3812656  41.3457537  24.8180676  73.4667778  42.5504112  24.8771930
  39.8347457  10.1116908   6.6080890  39.3677505   9.2922223   6.7712532
  40.6625160  10.0134099   7.0785890  56.3846286  15.7807649  27.5568901
  56.9483455  16.4482606  27.9479061  55.7863983  15.5301488  28.2608352
   7.5983808  46.6522074  58.1072378   8.3974550  46.5388060  58.6218739
   7.4239156  47.5928068  58.1399155  40.3315147  16.0673154  24.5618473
  39.6491083  16.5202249  24.0664421  40.1906236  15.1399911  24.3709217
   2.4566607  75.0666143  40.9587097   2.1396975  74.1798056  40.7874155
   2.9944186  74.9808819  41.7459106  67.7516699  79.4045258  39.7685552
  68.4793186  79.4132853  40.3903913  66.9856834  79.1858244  40.2992821
  11.0512063  68.4765911  26.4560413  11.7185113  67.8421402  26.1945033
  10.7991598  68.9091539  25.6402040  79.1881990  56.3783169  69.1385412
  79.3799925  56.3053274  68.2035971  78.2855034  56.6947317  69.1738749
   4.6988771  57.9955006  31.1138034   4.3543432  57.9471350  30.2220702
   4.8595426  57.0840931  31.3582611  19.2737672  76.5966797  45.3996420
  18.7586114  77.2636175  44.9457169  20.1787469  76.7805529  45.1478004
  40.9316524   9.7383941  15.0891529  41.4141115   8.9212907  15.2148853
  40.9170755   9.8643744  14.1403995   9.0863607  36.7841864  18.2565153
   8.5865209  37.2202873  17.5664413   9.4036863  35.9780622  17.8494513
  36.9819721   6.1196101  25.8828960  37.7083143   6.3188422  26.4736210
  37.3393186   6.2640250  25.0067173  75.0130081  38.9193726  41.9160843
  74.8514462  38.5457540  41.0497475  74.3625832  38.5029793  42.4815893
  63.6137056  65.6572008  33.2416844  63.0714560  64.9325466  32.9301238
  63.7637234  65.4634905  34.1669965  54.5311213  42.2869730  63.9577007
  54.1623783  43.0311441  63.4818125  54.5699263  42.5802708  64.8680305
   3.0810830  14.9742556  60.3451777   3.3225057  15.4551482  59.5535421
   2.6861379  14.1643071  60.0223207  72.8251498  80.1432784  21.3327156
  73.4535735  79.4596775  21.5651069  72.0538323  79.9508412  21.8658767
  58.4718498  24.8332560   9.4685684  58.0394157  24.2587912   8.8367258
  57.8623279  25.5618823   9.5861087  38.2596763  32.7106536  25.8404670
  38.0441936  32.9489053  26.7421470  39.1589197  33.0159152  25.7204471
   1.3141614  34.9298251   2.4646936   0.4531937  34.5345939   2.3277317
   1.1322480  35.7428420   2.9360090   9.6595952  54.1391277  61.5456867
  10.3150842  54.8344135  61.4896202   9.6225641  53.9193678  62.4765825
  70.4245361  24.0548289  20.1512180  70.7235511  24.8073495  19.6407924
  71.1096462  23.9223731  20.8064399  76.6053486  59.7012472  63.7425995
  75.8623934  59.5144987  63.1686878  76.3553047  59.3272161  64.5874739
  17.2702119  56.6393137  56.6231441  16.3446519  56.4212132  56.7327404
  17.6871393  55.8077621  56.3974905  32.5644436  75.5587299   4.9022327
  32.4736729  75.9250219   5.7819019  33.4794369  75.2822979   4.8511348
   0.7042119  51.9795275  36.1344171   0.2461622  52.2855759  35.3516293
   1.4358041  52.5881672  36.2371612  78.4079981  81.5806103  55.3265858
  78.4796238  82.5164223  55.5146360  78.0129194  81.2075138  56.1145878
   9.8224447  56.2576962  37.2813511   8.9330671  56.2169695  36.9298291
   9.7174833  56.6330099  38.1556249  32.7660122  21.3655500  52.4360323
  33.3305111  22.0731955  52.1248722  31.9198552  21.5343218  52.0215797
  17.1367820   9.6324075   4.9622236  16.5677770   9.0705169   4.4361530
  17.4733861  10.2796948   4.3425832  53.9026245  29.5873607  28.1320987
  53.7991222  28.6361373  28.1584583  54.2209895  29.7692359  27.2479091
  80.8117676  22.8224754  65.4079008  81.6520882  22.5794721  65.7965231
  80.2949524  22.0171428  65.4319096   2.4846456  66.1947680  46.0974932
   2.7940461  66.9649029  45.6206417   2.2493265  65.5680132  45.4133606
   5.3051749  10.4589968  39.2414856   5.5139819  10.8132486  38.3771157
   4.3905106  10.7017736  39.3852639  64.1336139   5.4839957   2.1896730
  63.7107547   5.8920968   1.4341055  63.6125453   4.6995414   2.3610101
  62.4747410   0.7293825  54.8652649  63.2774868   0.2723150  54.6144247
  62.7311554   1.6498117  54.9226713   5.1430986  53.5213375  56.7035198
   4.7501180  54.3707418  56.9043016   5.9084413  53.7319565  56.1686182
   2.6268766  43.8732052  58.5209227   2.9352662  43.2732534  59.2000294
   3.3853147  43.9999485  57.9508877  80.9432030  65.9626436  67.5404501
  81.8451118  66.2370634  67.3746395  80.8787823  65.9152794  68.4943008
  20.4454706  27.5407720  40.9517050  20.3516862  28.3473897  41.4584637
  20.8369443  27.8216791  40.1246214  85.1161194  72.7978134  47.6770306
  85.2270222  73.7342262  47.8415298  84.7791958  72.7500486  46.7823601
  83.3810234  65.8614159  61.6874933  83.0430126  66.6524458  62.1073246
  83.3120918  66.0399103  60.7496119  78.4167862  59.8862076  49.2639256
  78.0158520  60.6510735  49.6768045  77.6863718  59.4279337  48.8483381
  77.5882387  60.3394699  18.1429231  77.2076559  59.5639706  17.7306271
  76.9166374  61.0149384  18.0484092  78.0939293  59.2442322  57.1106100
  78.0109119  58.2918882  57.1594191  78.2062054  59.4273710  56.1778259
   4.2522428  34.7867322  65.5986023   3.5527704  35.3997755  65.8247566
   4.8829172  34.8684335  66.3140106  56.5362724  27.1459783   6.0194002
  56.1210140  27.1563065   5.1570259  56.3307365  26.2809098   6.3738618
  76.3205338  64.8145103  52.7379560  75.7302189  64.7585344  51.9865370
  75.9994888  65.5639553  53.2394457  80.0288185  23.1226552   7.4310146
  79.8137554  23.1962026   8.3608375  79.2214187  23.3665336   6.9784103
  77.4702740  76.0808420  24.5500326  77.2910452  75.8750057  23.6325693
  78.0563974  75.3826904  24.8420525  78.3120823  73.9318466  40.8136559
  79.2263508  74.0273046  40.5467558  77.8248262  74.4818974  40.2002525
  16.8620393  53.5860682  52.2756481  16.0085866  53.2757711  52.5782442
  16.8596456  54.5229244  52.4719286  17.6224992  60.8875322  53.4178162
  17.7078721  60.5422688  54.3064833  17.9654024  61.7794704  53.4734249
  65.5652380  61.1762810  61.5740108  65.4659128  61.3058662  62.5171804
  66.2922525  60.5590248  61.4923096  32.1758779  31.5955079   3.3933721
  32.5863870  31.7042220   4.2512165  32.3886665  32.4010861   2.9222046
  13.4295740   2.3255758  48.4871387  13.8487282   2.3108892  49.3475580
  13.0331650   3.1948690  48.4286404   8.5645482  72.5382042  48.5773659
   8.2143972  71.6522455  48.6706972   8.0739972  73.0579281  49.2141390
  60.3637203  42.8003753   8.8306795  60.8437618  42.8400290   9.6578537
  60.8639320  42.1867526   8.2926403  41.5985330  22.5238383   4.5515810
  41.8027814  22.0428098   3.7496315  41.5872224  21.8547023   5.2359472
  74.1599941  75.1825857  30.4631233  74.2227459  74.2603397  30.7116270
  74.9480438  75.5835867  30.8297372  64.2781067  73.3070517  59.6447039
  65.0750446  73.5806036  60.0988913  64.5728636  72.6404524  59.0242195
  22.6064625  22.2819834  61.1916208  22.7533760  22.3837976  60.2512598
  22.3780003  21.3587599  61.2997675  24.5466525  71.6142924  17.0074916
  24.6639831  72.3130931  17.6510310  23.9228780  71.0143597  17.4164188
  67.2633130  80.3990155  36.1017013  67.8813798  80.0251406  35.4736519
  66.9943959  79.6572603  36.6436505  54.8435075  82.0674746  32.3669243
  54.8539216  81.2682464  32.8935719  55.7029778  82.4623706  32.5138974
  79.3305438  25.3876825   1.9152532  78.9008182  25.6185468   2.7388225
  78.6657947  24.9030776   1.4258657  43.8669968  27.5595737  15.0994194
  44.3440151  28.2764053  15.5175555  42.9645395  27.8735161  15.0424659
  75.2908897  31.7656255  48.3549213  76.1376715  31.9280171  47.9392004
  74.8069239  31.2422085  47.7161360  63.9757299  58.5450125   8.3091778
  64.9044514  58.3454514   8.1913406  63.7925625  58.3050489   9.2175269
  10.6932027  69.0871377  35.8811045   9.9621279  69.7041936  35.9128118
  11.3884027  69.5626266  35.4263091  72.2977066  11.4025903  59.7903442
  72.7223206  10.7735872  60.3736877  71.5835094  10.9099686  59.3860149
   9.2561760  27.6082130   7.9243932   9.6908846  27.7914067   8.7572799
   9.3523779  28.4167071   7.4210916  63.1568241  11.6415453  24.1478515
  62.9384518  11.0140467  23.4588003  62.3093987  11.9249797  24.4910216
  56.0013825  47.3595734  16.8572354  56.2211282  48.2873602  16.7726457
  56.7716557  46.9675369  17.2686112  84.8028311  60.3492112  45.3462744
  84.8291788  59.7843428  44.5739651  83.8698659  60.4697151  45.5231571
  72.7769130  35.2956773  20.1520668  72.1953958  35.8896490  20.6266914
  73.3519977  35.8735307  19.6504818  35.0632930  17.8155267  51.9948196
  35.8621311  17.4934709  51.5772486  34.6398902  18.3491135  51.3223267
  48.9522743  11.7307210  36.5400887  48.3119249  11.0351777  36.3904142
  49.5899725  11.3441062  37.1401739  33.1955153  62.9750235  39.2766428
  32.8876359  62.7440603  38.4002280  32.5616748  62.5689633  39.8679066
  60.2614069  18.9430296  64.6087265  59.6356106  18.4798825  65.1656008
  61.0285950  18.3711708  64.5835638  12.8319413  59.7014089  36.5993977
  12.7092320  59.5780463  35.6581473  13.3498199  58.9449043  36.8746018
  72.8168154   8.2409805  30.9580135  72.4600554   8.3563435  31.8387198
  72.2623539   7.5692260  30.5610871  38.2284648  65.9145505  44.2561007
  37.8659636  65.2602561  44.8533678  37.8593499  65.6897969  43.4020090
  57.8782463  20.6332660   9.7465563  57.1201277  20.1268578  10.0381672
  57.6002884  21.5460372   9.8228431  50.9493971  11.2977386  41.6989136
  51.7340946  11.8099523  41.5036869  51.0338640  11.0740006  42.6257563
  50.3014851  18.4044158  36.9765377  51.1183119  18.8660789  36.7871022
  49.6451950  19.0976918  37.0464516  73.7218428  24.7321486  37.3686790
  73.1110048  24.6858692  36.6331768  74.5795774  24.8504233  36.9605899
  29.6667726  67.2927458  20.6781793  30.2210385  66.5177770  20.5862761
  28.7790353  66.9726689  20.5178642  65.6267994  71.5438683  14.6416126
  65.9589737  72.4046619  14.8964153  65.7408946  71.0023220  15.4225956
  70.8843136  11.3947237  18.4485149  71.0226393  12.3417807  18.4350920
  71.7235279  11.0341275  18.7347317  48.1250048   4.1271052  35.5457783
  48.3923244   3.3869749  36.0907364  48.2864571   4.8968679  36.0913324
  52.4355173   8.2766145  26.2630272  52.9838324   7.5824487  25.8973551
  52.6090670   8.2483119  27.2039366  28.3779025  23.6328816  36.1437106
  27.4425149  23.5006356  35.9894633  28.7798858  22.7963352  35.9095454
  32.3578603  81.7473053  25.6012297  32.0530183  81.6342178  24.7009420
  33.3044250  81.8645798  25.5206418  59.5750141   6.5573621  24.1182590
  60.3800726   6.7738813  24.5886183  59.8606586   6.3857841  23.2209277
  79.1670895  22.2352314  33.4848809  79.1892958  21.4634824  34.0506911
  79.3277884  22.9705167  34.0762901  68.0195284  25.5872893  46.4888096
  68.8362598  25.1413703  46.2644434  68.0806446  25.7388067  47.4319649
  40.9588725  78.9115442  43.3551979  40.4921491  78.5172720  44.0920544
  40.8461387  79.8542373  43.4770727  21.7148787  74.8954190  50.2959299
  21.4585168  75.4127438  49.5324612  21.4772422  75.4409773  51.0456800
  69.5454550  17.9079723  29.6413183  69.6236849  18.6415732  30.2511883
  68.6047459  17.7388036  29.5895576  84.0082550  29.1458631  30.9558249
  84.0835285  28.1916332  30.9519911  84.9133015  29.4575095  30.9562540
  57.2723675  15.8385289  46.1570549  57.1620941  16.2235200  45.2876568
  58.1572390  15.4736650  46.1469507  15.4360110  74.3788279  30.2193451
  15.9069068  73.5472716  30.1645422  14.5294578  74.1550363  30.0088501
  67.4133778   9.5861548  32.0534682  67.5325012  10.4437888  31.6454172
  66.5324402   9.3172443  31.7929530  73.4182262  19.3173039  36.9231558
  73.0456305  20.1766443  37.1204925  72.6843548  18.8129544  36.5720272
  69.0685129  26.0077620  53.9967060  68.1482410  26.1269212  54.2314959
  69.4913244  26.8241334  54.2631721  40.7396650  22.6576519  19.5936000
  40.9493017  21.7405391  19.4170070  39.9599123  22.8309488  19.0661657
  85.9149799  79.0883042  16.6342533  85.8095393  78.7369556  17.5183725
  85.9058032  78.3170806  16.0673654  22.8895528  79.1312445  25.3138804
  22.4603993  78.3125291  25.5624080  22.8679854  79.1320844  24.3569255
  22.0808990  76.4318867  37.1248770  22.8617103  76.8774517  36.7961884
  21.3888270  77.0910181  37.0718384  39.8429561  10.1878285  40.8670616
  39.1512275   9.5276332  40.9104824  40.2383089  10.0641000  40.0041485
  54.4703763  24.7508605   4.9764238  54.2181366  24.1396184   4.2843328
  53.8082593  25.4411216   4.9393736  37.3712117  66.9968457  56.5805531
  37.7319629  67.6165242  57.2146559  37.7138383  67.2910376  55.7365799
  78.1870324  57.4543161  33.5869789  78.0941731  56.5863009  33.9796138
  79.0830953  57.7175040  33.7968421  28.3668191  77.8177483  60.6255674
  28.7243707  77.1803771  60.0073910  27.8427703  78.4083138  60.0844240
  66.2891436  13.5756195   3.2034820  66.6319656  13.6912191   4.0896755
  67.0612144  13.6241972   2.6397648   9.7038171   5.6225735  59.7547817
  10.5616662   5.3693205  59.4139051   9.1091058   4.9443239  59.4345903
  12.3101423  43.3087873  58.4217596  11.9261358  43.8267422  57.7143049
  11.6079233  43.2269430  59.0670681  81.6899545  73.7521530  49.0160608
  81.5633447  74.6997668  48.9688158  82.6000363  73.6456056  49.2928696
  63.9665604  18.2546139  17.3374093  64.7631645  18.2313335  16.8072093
  63.5542011  17.4038804  17.1876097  37.3348546  17.0805848  28.2045531
  37.6979637  17.9015291  27.8722358  37.8166389  16.9163716  29.0152001
  63.6225843   3.2505190  39.1334319  63.5534191   2.4183485  39.6013427
  63.2552099   3.8960472  39.7372222  54.5202589   4.9775037   9.4584143
  54.5239115   5.7652003  10.0022459  54.5833874   5.3054810   8.5613763
  58.1749773  25.1191163  54.0821695  57.4463463  24.8031116  54.6164560
  58.5304070  24.3308783  53.6715794   2.5997255  17.3994863  28.5372806
   2.5237462  18.2329762  29.0017724   2.1102998  17.5322306  27.7254486
  61.7865849  21.1538863  69.1618347  62.3399496  21.2823105  68.3914328
  61.2492228  20.3916216  68.9463806  57.8612859  76.2595845  50.0514174
  57.7694852  77.1904458  50.2546453  58.3978803  76.2392117  49.2590237
  61.7495155  22.7901483  26.1964607  62.0041704  23.5432792  25.6633759
  60.8030272  22.7183914  26.0730124  61.8605137  10.2451265  29.6952128
  62.5330114  10.9210956  29.6112728  61.0673332  10.7247388  29.9340987
  68.6729336  36.4942646  68.9639187  68.2331467  36.0343075  68.2488966
  68.0277729  36.5106344  69.6708345  39.4129045  78.3188815  60.4924059
  40.0798709  78.7562974  59.9632072  38.5928542  78.4809534  60.0260544
  28.9623353  26.7580485  28.3753943  29.4776437  26.8638349  27.5757098
  28.0611322  26.6592836  28.0682898   5.1902482  26.7548180   9.8791921
   5.7597349  25.9885073   9.9476045   4.3978689  26.5076900  10.3559470
  63.5072851  12.0650852  50.7739830  64.3279076  12.3754525  51.1567163
  63.0281878  12.8640997  50.5542707  58.5038280   2.4790825  39.1983557
  58.9794350   3.2704544  39.4508696  58.0025434   2.7374375  38.4249258
  40.0928736   5.3003585  25.9883285  39.6620846   4.5021141  25.6826162
  40.5481339   5.0357419  26.7876720  68.7510109  29.1515470  31.5033507
  68.8258457  29.5981956  30.6600618  68.1605673  28.4174323  31.3339949
  29.3976552  57.8341217  22.5371718  28.9058120  58.0666728  21.7496181
  30.0379140  57.1886082  22.2378159   1.1841709  70.6787224  21.6272950
   1.1282093  70.5441208  22.5733304   1.9941957  70.2382715  21.3702059
  50.9095056  69.7802563  38.0550718  51.7793710  70.1758273  37.9995131
  50.3224093  70.4398210  37.6855779  30.6113717  35.8557630  22.1857166
  29.9915311  35.2266669  21.8165731  30.3443239  35.9465861  23.1004119
  85.7187694  59.1763123   1.4420782  85.7149261  59.5923491   2.3041282
  84.9372714  59.5180829   1.0076986   4.5685861  26.5102911  45.6975269
   4.7897527  25.7386518  46.2189579   3.8440702  26.9194698  46.1706781
  81.2383897  70.4311163  46.0710859  81.4577729  71.3261886  45.8123446
  80.9991319  70.5007846  46.9952822  60.2104902  21.7537522  18.2815385
  60.9102440  22.3469996  18.0083418  60.3252649  21.6677499  19.2279327
  44.9751813  77.1820093  31.8435383  45.5877454  76.7924113  31.2196755
  44.7643239  78.0375822  31.4696860  83.7886994  38.0617465  10.5965744
  84.0305083  37.1531902  10.4169021  82.8652280  38.0192079  10.8448253
  40.4851062  71.5692611  28.1408954  39.6041829  71.8966730  28.3225870
  40.5025012  70.6971378  28.5350132  34.3222768  66.9264169  48.8059616
  34.5971019  66.0618467  49.1112852  33.4483821  67.0451922  49.1780186
  44.6405172  29.7095156  58.3165312  45.3703737  29.2655659  58.7483311
  44.2978477  29.0626788  57.6997566   2.3142240  21.8445039  30.7653308
   2.8231332  22.2455907  31.4698648   1.8262193  22.5714827  30.3785634
  40.7093573  40.1241493   6.4287281  40.5153036  40.8638191   5.8529991
  40.2728701  40.3409338   7.2525704  41.7045069  19.6032286  65.5303860
  41.1056995  20.3472710  65.5941343  41.1346006  18.8495564  65.3773499
  15.8549697  22.3506184  59.4215775  16.3470275  21.5297003  59.4358730
  15.0130326  22.1184082  59.0298367  69.8935843  14.6834791  31.4520836
  69.5394087  14.9277365  30.5970216  70.5690098  14.0344727  31.2550402
  80.6927204  25.0256371  58.0970621  80.0945377  25.2909923  57.3984957
  81.0381126  24.1808176  57.8085852  37.3838861  72.7631695  41.1778545
  36.7636830  72.6010598  41.8886995  36.8445642  72.7734370  40.3871250
  59.0534258  21.4314270  41.2594223  59.9774122  21.2578869  41.4393282
  58.8503122  20.8844352  40.5006218  58.9599991   7.2912633  45.1358223
  58.9191198   6.4390945  44.7018099  58.0457067   7.5167316  45.3074789
  39.0412433  80.0812854  36.8227029  39.5845658  80.7460607  37.2459126
  38.1448466  80.3978102  36.9345927   7.3587415  24.3692183  52.5675488
   7.5333211  24.7555280  53.4257555   6.4894674  23.9777875  52.6534414
  60.8735997  76.9215668  22.4520016  61.1013181  76.3851745  21.6926169
  59.9912602  76.6370870  22.6902628  57.8103406  65.1550777  13.9194942
  58.0579621  64.3669028  14.4029152  56.8547589  65.1770575  13.9705527
  77.9692309  42.7599205  15.9118305  77.1346610  43.2143536  15.7968555
  78.5343259  43.4019540  16.3415847  75.8652496  14.8409450  51.1692858
  75.5860186  14.4845867  50.3259182  76.1028099  15.7484651  50.9790087
  72.0813751  33.5596681  66.3499308  71.5709877  34.0159464  67.0189238
  72.6059723  32.9261732  66.8395329  81.5686703   2.3762245  45.4257679
  81.4752960   1.8944381  46.2475920  82.2287941   1.8868142  44.9348927
  56.6980362   1.1423250  28.8849211  56.7898798   0.4984000  29.5871735
  56.4707661   0.6240375  28.1129384  25.6000898  21.2409329  38.8170648
  25.2335927  21.1436963  39.6959591  26.4610669  21.6344833  38.9587760
  47.6840455  81.4640110  41.6652584  48.6102874  81.5719219  41.4492512
  47.6511724  81.5317455  42.6194954  76.1677837  20.1700926  46.8555927
  76.6780472  20.7416773  46.2818766  75.6046820  19.6747053  46.2608337
  29.3655164  75.2021123  22.5026512  29.1160972  74.8135395  23.3411217
  30.2937371  75.4131533  22.6031399  58.0695581  11.8317020  27.8253269
  58.0886841  12.6422310  27.3164964  57.1634102  11.7582965  28.1249022
  65.0083590  23.8905954  33.5261536  64.1445017  23.8815498  33.1139660
  64.8336029  23.7233400  34.4522858  66.6817665  26.9168329  50.7026100
  67.0893908  26.1692882  51.1399317  66.4068508  26.5757322  49.8515511
  43.6328561  74.9474074  59.5727777  43.0082042  74.7985793  60.2826309
  43.2901771  75.7110293  59.1083622  61.5438604  10.3261125  50.8700037
  62.3098230  10.8979368  50.8195162  61.8912792   9.4466811  50.7212305
   2.6183930  37.9052226  17.3173938   2.7135792  37.1131052  16.7885051
   1.7094174  37.8855501  17.6167427  11.4233405  75.9549786  67.4126625
  11.9372708  75.1513697  67.4921751  12.0729453  76.6401167  67.2550917
  54.1678238   2.7931800  52.0230770  54.9907637   2.9818666  52.4740744
  54.3657827   2.9293770  51.0965300  57.5301600  21.4276648  14.3954253
  57.4587631  20.4769325  14.4805253  56.7590284  21.7673612  14.8495114
  70.5093145  12.6167369  68.7555742  70.2938652  13.3705556  68.2064199
  70.7517242  12.9969764  69.5999002   7.2717855  24.3822169  59.4634390
   6.7182729  25.1629734  59.4470215   7.9785154  24.5766711  58.8478470
  48.7636948  35.1242948  51.6901588  49.1550732  34.7248983  52.4670362
  47.9566669  35.5281734  52.0092583   8.9391882  68.9670737  30.6927729
   9.2785270  69.3630762  29.8901129   9.5327122  68.2371159  30.8691883
  18.0324647  12.9990506   8.6902773  18.8021562  12.4629998   8.8812172
  17.3032377  12.5198317   9.0837431  26.4691312  66.3216550  48.8642311
  26.6834313  65.4957624  48.4303999  25.5717713  66.2029083  49.1754723
  65.6351566  35.0310469  55.5343723  66.0409927  35.8369923  55.8537149
  64.8351431  35.3226781  55.0971508  51.7724473  71.1355574  56.6413927
  51.4566190  72.0367951  56.5761566  52.5579411  71.1168678  56.0946894
   0.4844472  13.3930731  12.7697909   1.1735628  13.5994816  12.1383309
  -0.2917292  13.2321846  12.2332215  -0.2400439  58.6254950  43.6531162
   0.5828053  58.5348721  43.1725550  -0.2308553  57.9039259  44.2819929
   3.4392736  32.3859382  47.8829193   4.0108678  32.3140788  48.6473465
   3.2867429  33.3258629  47.7854204  52.1118259  14.7369003  48.1334162
  52.5598907  15.5278540  48.4331846  52.3090124  14.6898890  47.1979237
  62.3433971  47.5840521  58.3831882  62.1900320  47.2306061  57.5069523
  62.1301460  46.8614626  58.9736271  79.7777455  70.1702030   0.4842363
  80.0182050  70.0700601  -0.4368414  80.4527562  69.6879800   0.9617887
  28.2969475  31.1713219   9.6448034  28.6268902  31.7276478   8.9392042
  27.9483318  30.3997183   9.1983396   2.3509581  79.8894511  30.4149771
   2.7589185  80.4286791  31.0924983   1.6742856  80.4511334  30.0370097
  80.1222801  23.2578754  36.5095162  80.3447247  23.9542961  37.1273780
  79.4350481  22.7576756  36.9496775  45.9496552  77.5329716  67.6260805
  46.1948831  78.3116309  67.1262980  45.6169087  76.9215972  66.9690228
   0.4963014  64.1826820  48.6293554   0.2249524  63.3469391  48.2496929
  -0.0379946  64.8357725  48.1774426  78.3915854  51.1207771  19.1265833
  78.9477110  50.4834747  18.6784792  78.6290359  51.0383081  20.0501895
  59.0910101   7.5076663  35.5575657  59.5526266   7.7653092  34.7595906
  58.9649725   8.3268267  36.0364413  46.0466439  81.0368193  19.5953858
  45.8363778  81.9691328  19.5423567  45.7227189  80.7667333  20.4546618
  86.3016224  14.9476063  55.0265741  87.1407318  14.6883345  55.4072380
  86.1233807  14.2809916  54.3631840  54.6845913  29.6291804  10.0316894
  54.6288443  29.1703987  10.8699274  54.7131634  30.5564189  10.2675784
  76.3472223  35.9196424  64.2265987  76.4882326  35.6989646  63.3059216
  76.4402390  35.0869656  64.6894455  18.4983728  11.7351317  60.6771135
  19.2246816  11.6709542  60.0569534  17.8527162  12.2853470  60.2336931
   8.9982316  34.6591377  52.9927731   9.9155233  34.8660064  52.8138542
   8.7697313  33.9985371  52.3388386  26.4967153  31.0658264  34.5666838
  26.5918920  31.1782980  33.6208916  25.6243608  30.6873870  34.6762943
  56.9286060   9.2818099  57.3462915  56.5318298   9.1125709  56.4917994
  56.4689207   8.6928725  57.9446888  83.1532288   7.6894003  18.9258480
  83.1138897   7.0865500  18.1833827  83.9622593   7.4561560  19.3811452
  67.1224778  48.5312314  16.8570171  67.1839588  48.9421757  17.7193294
  66.5486353  47.7770086  16.9915043  14.4730343  81.7793166  63.2191040
  15.1224054  82.4586045  63.0371322  13.8449921  81.8496072  62.5001784
  43.4908063  70.6028814  39.5216179  43.4321506  70.1803572  40.3785133
  43.6761720  71.5208931  39.7194195  85.5112362  13.8604379  35.9241819
  86.1736870  13.8710344  36.6150355  85.9914207  14.0892553  35.1283813
  68.5540533  15.8100915  39.0730906  69.3774414  16.2259579  39.3286657
  68.6743021  14.8860908  39.2921638  25.8896548  77.2009824  23.9697027
  25.9832532  76.6643698  23.1826067  26.6506822  77.7813939  23.9557743
  33.2305629  79.1067721  67.4549580  32.5169665  79.1629274  68.0904531
  33.6166818  79.9826278  67.4503756   7.6236532  14.6185279  55.4600334
   8.3801172  14.9049020  55.9718752   7.9220674  13.8254702  55.0147915
  36.1873531   5.0081897  38.0622387  36.7199397   5.7895571  37.9137468
  35.3290033   5.3479302  38.3153033  80.7176685  16.3753426  56.0513496
  80.8952618  15.6890321  56.6945219  79.7652054  16.4700961  56.0590029
  32.4675900  79.1229312  61.4649773  32.3325641  79.2213981  62.4074793
  33.0963189  78.4054266  61.3867664  56.2437773   7.9338497  45.3156662
  55.9327698   8.4638256  46.0495806  55.7778835   8.2811719  44.5550489
  60.3421116   2.3129575  67.7198982  60.4357958   3.2411110  67.9343414
  60.1579952   1.8906774  68.5589504   4.1493986  29.6985531  49.4594002
   3.5361192  29.6834826  50.1941729   4.3802831  28.7799454  49.3212509
   0.2157686  38.3830738  28.4721398  -0.2732089  37.5777984  28.3028507
   0.2049444  38.4740424  29.4249439  61.5386581  19.9851251  42.0851707
  61.3971901  20.0950027  41.1448765  62.4652576  19.7580183  42.1630430
  51.2215567  13.4542847  59.8004627  50.4121447  13.4482527  60.3113937
  51.1461067  12.6944315  59.2232609  49.9360663  77.4602820  66.8549204
  50.3873116  76.6864587  66.5175724  50.0742156  78.1293811  66.1845112
  75.3774118  20.4200935  51.1926222  75.1225758  19.8036301  50.5061340
  74.7702122  21.1533856  51.0934925  42.8323943  62.9963810  38.1994367
  42.5752456  62.6029665  37.3655725  43.7669999  63.1779213  38.1005073
  50.7011992  67.9922767  53.8532639  50.3121955  67.1604569  54.1234159
  49.9543435  68.5352464  53.6010313  37.5256419  23.2521462  58.3807802
  37.0361567  22.6853132  57.7846813  38.3221507  23.4753156  57.8991175
  14.5418355  16.1007643  34.5176435  15.4037759  15.6962776  34.6160293
  13.9235971  15.4027295  34.7338939  47.0992422  17.5611687  37.8188276
  46.1724949  17.5079870  38.0523562  47.2429514  18.4859669  37.6180077
  71.6700220  57.2074175  31.4391899  71.4194012  56.6508198  32.1764946
  71.5943098  58.1000566  31.7763734  34.5665080  81.0352061  20.4483557
  33.7199456  81.4794875  20.4017043  34.3560559  80.1072438  20.3443003
  23.0511513  35.8353068   4.7618471  23.0025998  36.1652117   3.8646112
  23.3280316  36.5908764   5.2801977  59.9929333  41.5323400  61.3045835
  59.9770069  42.2880602  61.8918324  59.4502163  40.8769274  61.7429018
  42.8026390  13.4281003  20.4495192  43.6768436  13.1712949  20.1561737
  42.2085571  13.0119944  19.8248947  52.7336740   3.6154553  57.8232050
  53.5323524   3.8483897  58.2965803  52.6075363   2.6850754  58.0095243
   5.7882990  63.1285035  61.9549205   6.5797867  63.1104242  62.4929311
   5.1604284  62.5879538  62.4343111  72.5967550  12.7294600  54.3059444
  71.7558289  12.2740638  54.2648554  72.6696539  13.0161452  55.2162886
  66.4733028  17.0725167  30.3488851  66.7204046  17.9969335  30.3739119
  66.7724991  16.7218232  31.1877704  47.4001217   7.6285660  25.5998969
  46.5767384   7.7512211  25.1274228  48.0224228   8.1990290  25.1487374
  23.8839204  54.5565243   4.3656763  23.2358224  53.8595815   4.2633426
  24.5576722  54.1761918   4.9292731  34.6771485  79.7672771  41.2702179
  35.5679423  79.5843893  40.9714270  34.5655543  80.7074539  41.1293411
  32.7955825  76.6817362  65.7038689  33.6106784  76.5923990  65.2100325
  32.9837996  77.3558719  66.3568211  10.0857923  20.2347088  53.3189344
   9.4373414  19.7991347  53.8721228  10.9295652  19.9717450  53.6865187
  73.8745594  17.7514124  45.2623081  73.7313318  18.6962152  45.2069569
  73.5504293  17.4107742  44.4285583  41.0813284  25.5064368  55.7192850
  40.3712320  25.4630756  55.0788879  41.8717861  25.6254315  55.1927376
  15.0643387  58.8279458   5.0751625  15.0189772  59.5302458   5.7239662
  15.2366820  58.0385359   5.5883489  20.0914580  81.3464219  31.6698432
  20.5450732  81.9298755  31.0615253  20.5995709  81.4022109  32.4791241
  14.6887770  54.6281393   5.7306085  14.8225251  55.3070624   6.3919769
  13.7402716  54.5019169   5.7053505  61.6504996  64.7380097   6.7617689
  62.4282353  65.0759967   6.3177810  61.1765807  65.5204447   7.0435987
  37.5813205  74.6188839  61.9110012  38.2483537  75.3035630  61.9611597
  37.1834714  74.7348447  61.0481548   7.1086881  45.1283932  40.5393553
   7.1646592  45.3243113  41.4746189   7.5461194  45.8656979  40.1135969
   1.6250553  63.1567963  11.2389980   1.9347706  62.3168524  11.5778194
   2.4133578  63.5865434  10.9071289  72.9994631   1.1733101  19.4535530
  72.0716095   0.9383683  19.4647336  73.0132246   2.0802148  19.1476667
  56.7989016   3.8115272  17.2160888  57.4592352   4.3927979  16.8388379
  56.3837767   3.3976066  16.4594030  83.9218140  39.2334175  55.2691507
  83.2992172  39.3881512  54.5587492  83.6622620  38.3879066  55.6351757
  60.3425646  13.2734025  59.5585299  59.6259880  12.7600741  59.9316835
  59.9286079  14.0855181  59.2664003  77.3672915  19.4323933  49.1494465
  77.2955799  19.4375265  48.1949520  77.8904009  20.2073383  49.3545008
  61.0118539  76.5693195  33.0727220  60.2403790  76.0359896  32.8813839
  61.4349992  76.6919674  32.2229338  27.8147180  77.9651122  34.5630646
  27.3837001  78.3503420  35.3259897  28.1518609  78.7157155  34.0740252
  78.4324925  37.6503728   8.2826028  78.9486020  37.1342798   7.6633201
  78.2480615  37.0467009   9.0021835  67.2375584  49.2284870  68.7363052
  68.0042028  48.6775875  68.8944244  66.8578196  49.3652964  69.6042395
  11.2078006  63.9783008  65.5632925  11.1008937  64.4014401  66.4152050
  10.7732684  63.1309731  65.6605148  82.2226674  75.8605642  30.5808830
  81.6715009  75.4074628  31.2189579  82.6043756  76.5899659  31.0692549
  62.8889036  13.3672392  37.8579092  62.6997375  13.3803213  36.9196796
  62.0581913  13.1236804  38.2663584  56.4434671  18.4436667  33.7262750
  56.5437841  19.2769098  34.1865730  56.3320065  18.6892891  32.8078651
  41.6055924  73.1322331   9.4498903  41.9245488  74.0248985   9.3170464
  40.9960944  73.2025213  10.1846063  80.9395790  25.7792830  30.1696205
  80.5524158  25.1074743  29.6083665  81.7232037  26.0625172  29.6985078
   4.2996404   5.2046007  26.5600538   4.7462365   5.6067699  25.8150458
   3.6974046   5.8802801  26.8715143  51.1115891  68.7978072  45.6497383
  50.9331185  69.4819040  46.2950230  50.2537162  68.4180672  45.4597712
  67.1534491  37.6905870  37.9742002  67.0472622  36.7428851  37.8916359
  66.3936090  37.9733014  38.4830689  84.6947002  30.6725335  36.5499520
  84.0598011  30.6753016  35.8336186  85.1233482  29.8190093  36.4867902
   3.0953595  -0.1717358  60.8652592   2.9771421   0.7730808  60.9631205
   4.0167997  -0.2744431  60.6272888  46.7864329  65.8145626  16.8767476
  46.5349872  65.0409014  16.3723099  46.0913522  66.4495392  16.7038333
  64.0825558  29.6639347  57.8144741  63.1833172  29.3593001  57.9361296
  64.5452261  29.3630981  58.5965681  32.7365628  75.1418026  14.4438587
  32.7550450  74.5051821  15.1584278  32.3821392  75.9373649  14.8409687
  14.4392004  65.1858623   7.0095525  14.6701422  66.1103733   6.9191251
  14.2388668  64.9007233   6.1180387  39.8741031  22.3726344  11.8921912
  39.4072056  21.5644383  12.1044600  40.7771349  22.2054982  12.1620560
  67.3449802  29.8265839  35.5984402  67.4697399  30.0286889  36.5257049
  66.3964081  29.8532391  35.4730153  71.9072199  20.3245926  41.3787270
  71.4277267  19.5706558  41.7220831  71.6093063  20.4055142  40.4726744
  58.3968735  20.0557494  38.8699031  57.6516390  19.4584918  38.9342546
  58.7122011  19.9494493  37.9724073  66.6226530  52.7210617  29.8574567
  65.6689787  52.7243519  29.9394822  66.8418407  53.6090755  29.5752978
  56.9852066  28.0673194  66.6538048  56.9050837  28.9541125  67.0051003
  57.2149563  27.5293970  67.4114895  77.2577286   5.8209097  49.0382051
  77.4092436   6.0764855  49.9481249  76.5004635   5.2366817  49.0764427
  67.4255466   5.6018859  33.7032986  66.5471458   5.5292302  34.0766144
  67.5500393   4.7834334  33.2228088  36.3775444   2.4178103  60.2552366
  36.6897535   1.6284190  60.6975222  35.5804443   2.6577413  60.7277822
  37.5976951  62.5313158  41.0484886  37.4996573  62.0455987  41.8674469
  38.5436589  62.5796897  40.9104776  52.9913194  62.4578352  24.1234469
  53.5697419  62.4795373  24.8858023  53.1764657  61.6164942  23.7061977
  38.4347081  11.7198980  22.7138829  38.4925032  11.5205371  21.7794609
  37.4968386  11.7039800  22.9046202  26.0273279  60.3938770  68.2230811
  26.7191614  61.0551226  68.2045816  25.2557291  60.8633256  68.5400932
  83.2267666   8.8256419  70.1751471  82.8040886   9.6843034  70.1585531
  83.9704037   8.9361477  70.7676268  50.1237583   8.6067015  25.2491832
  50.9682465   8.5507804  25.6963372  49.9319935   7.7065742  24.9860692
  64.1567230  37.8873563  16.7946744  64.5582008  37.0312667  16.9435453
  63.2976627  37.6876068  16.4227295  71.8896914  23.8667011  35.1839113
  71.0197926  24.2129493  35.3829765  72.2043705  24.4103861  34.4616842
  73.3628559  59.1006517  39.5146370  73.0033875  58.2505846  39.7684073
  73.5389948  59.0161276  38.5775876  71.4777565  26.8233418  52.7161217
  72.3613787  26.8999982  53.0760717  71.0707951  26.1237645  53.2272053
  63.1980133   3.1380695  28.4457135  62.9197168   2.6697066  29.2327452
  62.4021435   3.2166052  27.9197311  78.7818352  49.7832590  64.6670915
  78.5226075  50.3701043  65.3774752  78.1711451  49.0487247  64.7283097
   5.3347108  55.3378439  31.4761543   5.5440423  55.2511406  30.5461574
   4.3826387  55.2476454  31.5167809  11.5045077  77.0869444  37.8575873
  10.6085736  77.0070453  37.5302458  11.7305095  76.2054832  38.1545401
  67.8500271  64.7566605  47.6935959  68.5816765  64.5836353  47.1011591
  67.2839212  63.9898634  47.6053953  14.2176721  40.7799435  48.9659595
  14.2806146  41.2072277  49.8201847  13.4422777  41.1680794  48.5605621
  71.6101789  32.3691201  44.0983629  70.7237482  32.3649526  43.7371683
  71.4856339  32.5084639  45.0371408  13.0827424  45.8047199  40.0986719
  12.8656194  44.8768997  40.0079441  13.4638784  46.0452032  39.2541981
  74.8251009  77.9135323  54.8806334  75.5837631  77.3597240  55.0649261
  75.0791121  78.4183836  54.1080809  61.3433361  46.4791536  61.4930916
  60.4014969  46.5985107  61.6152954  61.4136982  45.7912588  60.8312130
   3.1849286  40.6772995  43.6907864   2.4056146  41.0977507  44.0542793
   3.8991830  41.2819242  43.8920450   8.6534211  12.0937371  29.3698859
   9.2759893  12.5575244  28.8099313   8.0296419  11.7001486  28.7597919
  83.4353161  74.8847771  45.3177786  83.6708641  73.9774227  45.5113363
  82.5473404  74.9803925  45.6621504  76.1464357  39.7201085  70.4330969
  77.0400858  39.9515676  70.1800156  76.1107063  38.7679267  70.3419828
  77.9596949  41.3373280  31.7413449  77.7708101  41.9763088  31.0541368
  78.8830233  41.4773273  31.9513464  51.9684219  12.3881805  19.7658527
  52.7387285  11.8532753  19.9575353  51.9344282  13.0239558  20.4805994
  71.7309713  38.2327318   1.2234064  71.4012957  39.0961981   1.4723518
  71.4607573  37.6576519   1.9392976   6.0808370  45.6813383  17.1517730
   5.8342740  45.0631809  17.8397524   6.9441602  45.3859520  16.8625355
  72.8226852  39.5660400  31.8573022  72.2551584  40.1402426  31.3430691
  73.0438232  40.0805473  32.6335859  10.1066491  63.3678198  39.7532773
   9.4427965  63.2453823  40.4319048   9.8251054  62.7983284  39.0372872
  16.7307184  54.4014454  17.1730328  15.9561250  53.9015675  17.4306285
  16.9494436  54.0719557  16.3013530  58.1387409  14.8096908   9.9098240
  57.4603065  14.1748441   9.6797405  58.9612754  14.3693602   9.6958480
  35.0044608  26.8414664  53.4091139  34.3874121  26.9671035  52.6882124
  34.6677780  27.3970199  54.1121340  24.5532033  24.9266362  12.5348520
  24.5767686  24.2882299  11.8220305  24.1489122  24.4565678  13.2641077
  75.4881055  80.1385183  19.4721901  76.2333543  80.7037905  19.2689824
  75.2774198  80.3385702  20.3842354  61.3900375  20.5507159  39.2063999
  61.5549517  19.6932030  38.8143468  60.7976198  20.9848046  38.5925221
   5.7433310  20.8199053  17.0917153   6.3599196  20.4680948  16.4496279
   5.8121291  20.2267580  17.8398323  76.1218977  20.8061862  23.4227943
  75.4025316  20.1775980  23.4829903  75.9491062  21.2913847  22.6159739
  60.7367182  19.5057440  29.3320656  61.2036180  19.6319366  28.5060453
  60.6899929  20.3809285  29.7169065  81.7623043  61.1092567  60.2539587
  80.8612728  61.3480043  60.4716015  81.7361927  60.1599884  60.1337767
  64.4274473  56.4556789  48.7621784  63.7889004  55.8872843  49.1927814
  65.2232265  56.3616800  49.2857504  10.1855275  34.7824764  36.1704183
  10.1038358  35.3580093  36.9308901  11.0001657  35.0564837  35.7490873
  68.6426592  41.0126638  27.3152423  68.2875776  40.3150606  26.7643356
  67.9770517  41.1473894  27.9898119  37.9842075  27.4334872   6.6750847
  38.8935741  27.2765744   6.9293819  38.0287774  28.1754554   6.0719905
  75.4943355  18.0212796  19.8221813  76.4468654  18.1084168  19.7857891
  75.2783283  18.1379331  20.7473598   3.6282060  12.8377831  44.2959404
   4.3002794  13.4999049  44.1342735   4.0822313  12.0028543  44.1820049
   0.8022973  56.9733810  34.9949503   0.9498117  57.8803682  34.7269106
   0.9300325  56.9801760  35.9435654  56.4259815  45.7733870  67.2406435
  57.0188046  45.4051638  66.5855074  55.5518913  45.5271864  66.9380188
  66.4605665  41.6867399  34.6991348  67.2030783  41.7818117  35.2956820
  66.1315680  40.8033133  34.8651123  70.0411088  77.8610103  52.3748255
  69.2370660  78.0296208  51.8835783  69.8872716  77.0196266  52.8045225
  69.3351507  25.5791545  35.1163673  68.5071039  25.5493665  34.6371174
  69.4503784  26.5031338  35.3382230  69.1610670  43.1052399  55.9737206
  69.9254656  42.5322819  55.9133387  68.7057734  42.8146744  56.7639828
  12.6782415  43.3440495  39.2781734  13.2242582  42.5789356  39.0973353
  11.7804429  43.0197334  39.2073178  85.6185246  16.1023283  47.1007776
  85.5719566  15.4419184  47.7920961  84.7091579  16.3654959  46.9592905
   7.7933500  43.3034515  38.6346912   7.2892282  42.5798225  39.0067816
   7.7000711  44.0124321  39.2709923  60.6908512  42.0596838  40.1083899
  60.4315376  42.9599142  39.9119782  60.0605536  41.5194750  39.6318078
  60.3792381   4.5517817  29.9439478  59.8216391   4.0005064  29.3949389
  61.2315607   4.1162851  29.9331737  14.8235407   2.4464350  20.7541919
  13.9246884   2.7749376  20.7736969  15.3522864   3.2092123  20.5200219
  86.6259670  37.6754045  47.2531033  86.2191105  38.4829712  47.5670052
  86.0584259  37.3827529  46.5400314   4.1077993  53.8132572  37.2390509
   4.9319455  53.4575653  37.5714588   4.0109823  53.4220791  36.3708115
  15.2914133  36.2368606   8.3390413  15.4888096  35.5660106   8.9926658
  15.0288859  37.0011677   8.8520227  68.2654667  56.2985563  30.7712865
  68.9959192  56.0601044  31.3420844  67.5125599  56.3606548  31.3590837
  72.9755497  81.5399170  43.5612726  72.2258615  81.4270401  44.1456127
  73.7392330  81.4489460  44.1311359  84.2766571  48.4802580  40.8948326
  85.0938129  48.9573574  40.7503557  84.0791321  48.0814171  40.0473976
  59.9567652  47.0012712  47.4910069  59.3885326  47.1164560  46.7293835
  59.3531942  46.8984079  48.2267761  31.7225072  23.3104515  40.2071857
  31.4808080  24.0941501  39.7135949  31.1296079  22.6318073  39.8844767
  26.5421960  24.3495846  56.1722040  25.9618852  24.6035743  56.8898153
  27.3156164  23.9889765  56.6057968  77.6380301  57.6717091  18.6947083
  78.4448481  57.2183180  18.4503484  76.9893360  56.9737911  18.7860203
  69.3695498  69.2176104  39.1227579  68.6364460  69.6786165  38.7150097
  69.5512533  69.7146845  39.9203372  64.0262658  78.0291314  36.4218879
  64.8819501  78.3053790  36.7500901  63.6960179  77.4284379  37.0899725
   5.3695104  43.6066866  28.7829518   5.2076242  44.3290472  28.1761384
   5.2324674  43.9873362  29.6504521  79.4737244  29.4447589  25.3354287
  79.0061522  30.2538776  25.5426335  80.2807331  29.4966173  25.8475590
   2.2218702  50.2242565  69.2810965   1.3842485  50.0494957  68.8520384
   2.6969621  49.3951368  69.2256594  22.9404106  42.6454879   1.9115911
  23.4540596  43.2257581   2.4734531  22.2532883  43.2066491   1.5521608
  46.3026387  69.0324647  25.1141930  45.5068166  69.4741972  25.4104662
  46.0929591  68.1000288  25.1673841   8.4407995  17.9719174  29.8553276
   8.0408475  17.1702194  29.5183587   9.3494603  17.9298294  29.5573235
  69.6111727  28.9666390  55.0492144  68.7284088  28.6279249  55.1983070
  69.5456505  29.4523573  54.2270136  20.7405374  50.6709337  55.5284119
  20.7829091  51.5796566  55.2306509  19.8739335  50.5895567  55.9266710
  38.2383249  47.5048542  17.0386827  38.4992978  47.7322865  16.1462700
  38.3022687  46.5503407  17.0710254  70.9322119  71.9695425  39.8114181
  70.4878521  72.4736023  40.4931068  70.7120848  72.4219370  38.9970994
  22.9368789  67.6956613  58.4701490  22.3187453  67.4505742  57.7816200
  23.3242661  68.5154982  58.1635094  81.6251087  19.8077941  31.3233376
  81.7921543  19.6826661  30.3891683  81.7328358  20.7487535  31.4619803
  52.6685190  52.0254898  22.8412867  52.7453804  52.6299000  23.5795379
  52.6484156  51.1572170  23.2436943  83.8334465  35.0942469  31.6785645
  82.8911877  34.9325752  31.7259526  83.9484119  35.9582305  32.0742249
  15.4595277  21.5727711  55.8641768  15.6622312  22.1154618  55.1021862
  15.9368417  20.7572889  55.7112360  18.7571428   9.5467883   8.4580570
  18.4004209   9.2173666   7.6331544  17.9867933   9.7314727   8.9953554
  81.5593338  23.0379152  47.5502253  81.9803905  22.7273726  46.7486620
  81.6231060  23.9916801  47.5002337  86.3382530  50.8525896  48.5618591
  86.7649746  49.9958515  48.5735083  85.6888103  50.8062553  49.2635059
   4.2685029  36.5576291  30.1720333   4.8847101  36.0671306  30.7160258
   4.0380094  35.9530926  29.4665956  72.9387379  46.9696665  64.7083473
  72.4364853  46.1735106  64.5348406  73.5495234  46.7211056  65.4021692
  81.3703156  49.1532278  32.3967266  80.9212017  48.3091068  32.4412727
  82.1213818  48.9950371  31.8247890  11.5484903  67.9459715  41.0089493
  12.2865007  68.3121014  40.5215883  10.9109304  68.6587906  41.0494041
  52.2057667  27.2135754  10.4912983  52.2541085  26.7216440   9.6716056
  51.8964520  26.5763863  11.1351524  78.0773115   5.4847926  39.4960284
  78.0885887   5.4800928  38.5389066  78.6516714   4.7609693  39.7458792
   4.4453809  39.1572356  25.6506538   4.0114019  38.8228798  26.4355731
   5.3799245  39.0649843  25.8359861  22.4468515  36.3951063  25.2113891
  21.9790456  36.6325045  24.4107461  23.3723733  36.4759564  24.9809337
  75.3275013  24.8792291   0.9148045  74.4826412  24.5950770   0.5659381
  75.2105618  24.8674369   1.8647614   0.7963083  25.8710766  33.5650420
   1.1163804  24.9948049  33.3507204   0.0834844  26.0240483  32.9447842
   9.9515054  65.1067209  60.1524591   9.8999688  65.0443983  59.1986847
   9.8218343  64.2090797  60.4584980  22.8771589  29.6368814  52.1405697
  22.7038858  28.9057708  51.5475416  23.7595651  29.4718695  52.4727678
  11.7249009   0.4339471  49.2240572  12.2434423   1.0661225  48.7263632
  11.4487359   0.9129565  50.0054121  71.3693953  30.3395820  23.5968828
  72.2916985  30.0834727  23.5954022  70.8948326  29.5247889  23.7616038
  73.4236622  34.0455914  30.9684587  72.9226351  34.0138865  31.7834425
  74.1400480  34.6535635  31.1512160  69.9713659  46.3892221  60.1232862
  70.6571913  46.6988087  60.7149220  70.3201866  45.5767822  59.7565508
  25.9237573  14.2368579  20.0300813  26.2340638  13.8895750  19.1938174
  25.0112531  13.9527762  20.0836086   0.3196618  74.0853119  51.8157768
   0.0410364  74.7654152  51.2025404   1.2451646  74.2707634  51.9747972
  66.2465525  13.9478385  37.9443812  66.8701172  13.8252711  38.6601877
  65.5303860  14.4494689  38.3338714   5.5002401  60.9262419  45.6823492
   5.2163312  60.0739193  46.0127687   6.4046762  60.7854223  45.4023647
  79.8843193  48.3309746  69.5926714  80.7209969  48.6151600  69.2246389
  79.3122435  48.2242870  68.8326836  83.5756874  41.2320709  50.6010389
  83.7018204  41.6823626  51.4362383  84.2872429  40.5929041  50.5636835
  62.4695158  64.5106125  38.9150357  62.4346018  64.9622488  39.7582674
  61.6344309  64.7197580  38.4965587  85.7197189  34.8961949  23.3824229
  86.4078999  35.5003858  23.1038642  85.1252079  35.4347062  23.9047170
   5.0706766  22.5790834  52.8525448   4.2817113  22.8405643  53.3273029
   5.0864313  21.6245055  52.9215813  85.6503010  14.0064430  69.2355967
  85.5579090  13.3953214  69.9665070  85.8190346  13.4482384  68.4765387
  83.8446712  14.9408507  16.2381601  84.3603230  15.4540598  15.6161094
  84.1300011  14.0379322  16.0983098  14.5985315  30.9928250  60.3270245
  15.4419610  30.8920121  59.8857737  14.3175790  30.0971365  60.5142164
   2.2978303  41.6504383  19.1824877   2.9773996  41.7960691  18.5243046
   1.6054914  41.1851454  18.7130201  67.7585888  53.8469839  43.9290619
  67.0478249  54.4677782  43.7688780  68.5467243  54.3890619  43.9640284
  40.9125741   2.6295293   3.8045011  41.4357551   2.1332324   3.1750570
  41.5463575   3.1868756   4.2560707  47.3424241  17.6693487  55.1988840
  46.4580915  17.8704739  54.8927307  47.9161928  18.0008090  54.5081186
  10.8578203  48.0697680  29.6228623  10.7762811  48.3811808  28.7214184
  11.7756650  48.2230854  29.8471355  16.8592737  33.2060957  40.5568600
  16.4393804  33.9758635  40.1729584  16.4074037  33.0777264  41.3908720
  62.4979687  23.7879348  56.2856817  62.7882671  23.4614348  57.1373606
  61.6655159  23.3420658  56.1293125  74.2769003  42.2927999  41.5579128
  73.6530399  42.5988007  40.8995867  74.0210199  41.3861036  41.7271948
   0.9430692  46.6375732  46.7872000   0.1699445  46.8741465  47.2995901
   1.3458059  45.9213209  47.2781372  80.0983906  39.2919421  34.6206045
  79.6254587  39.9846888  34.1594481  81.0222816  39.5105958  34.4987226
  70.0858743   9.7153728  66.5347441  69.8106153   9.1100328  67.2232403
  70.9271008  10.0566833  66.8381666  13.8010118  45.3988934  63.6030293
  13.4791467  44.8704386  64.3333530  14.5260236  45.9025383  63.9730692
  40.3252395   0.3274692  46.2706123  41.2710508   0.3736842  46.4103637
  39.9881872  -0.1060998  47.0546089  75.9134388  62.7861738  63.1380653
  76.1954308  61.9584417  63.5273933  74.9699879  62.6831484  63.0135012
  63.7398958  69.7230196  30.0071073  63.4482861  68.8347006  30.2122593
  62.9786301  70.1371336  29.6006393   8.1350324  17.6907957   8.9187354
   8.2558248  17.2292769   8.0888927   8.9937589  17.6547480   9.3400586
  75.5751228  16.5029371  53.7690258  75.6555891  15.5843806  54.0259504
  76.4114618  16.7090118  53.3515263  57.6093578  15.7265735  68.5913563
  58.1650352  15.0866699  69.0363073  56.7177963  15.4069161  68.7298203
  85.6818676  36.3220239  27.6865244  85.5516529  35.3906131  27.8647065
  85.3653526  36.4411116  26.7910528  51.2500048  20.2905464  39.4260597
  50.5059910  20.7241940  39.0081763  51.6894436  19.8281181  38.7124181
  79.2274618  28.5553765  33.9901590  79.0752411  29.4999719  34.0185261
  78.9713717  28.2979989  33.1044912  72.1538925  29.9362040  55.6148911
  72.6533556  29.1238785  55.5318403  71.2514400  29.6834683  55.4201174
  85.4419708  52.8892279  37.3845506  84.7841167  52.7315950  36.7073369
  86.1080837  52.2189617  37.2320271  60.5795193  53.4924173  21.7877221
  59.9983263  53.8477755  22.4601555  60.0756550  52.7851725  21.3850355
  65.8384848  24.1625667  46.0018110  66.6215992  24.7106862  46.0520840
  65.3044224  24.5698857  45.3198290  15.0678727  24.9539590  49.0550041
  14.2814538  25.2709651  49.4991684  15.6238935  24.6222878  49.7600317
  10.5787880   8.4500615  66.8106951   9.9740893   8.1316583  67.4809106
  10.8009130   7.6719586  66.2993761  59.8111518   2.1173490   6.3552652
  60.5239662   2.0421517   5.7208620  59.6236308   1.2147534   6.6129289
  46.5876627  58.5738230  68.5924530  46.9865417  59.2372894  69.1554308
  45.9195518  58.1638193  69.1417789  57.6036794  78.8884885  38.6189198
  56.7665631  78.6692287  38.2097960  57.7151925  78.2295994  39.3042397
  77.2195578  52.9604149  59.5878553  76.9823027  52.7409840  58.6868572
  77.8952551  52.3232508  59.8195553   4.7378538  56.0013342  28.7302566
   3.9074228  55.5337381  28.6409235   4.8957345  56.3767338  27.8640127
  59.6686316  26.4983511  48.6941004  59.9414921  26.5190244  47.7768469
  60.4861259  26.5570855  49.1885519  66.0664797  39.1123700  35.5886483
  66.3444662  38.7014055  36.4072227  65.4952431  38.4639287  35.1770163
  19.6714589  24.0219235  47.3178291  19.8843858  24.6670437  46.6435051
  18.7253282  23.8986707  47.2411489  57.3104334  40.4595137  49.3002510
  56.8406916  40.7100105  48.5047483  57.7535200  41.2608433  49.5791388
  81.6183853   5.0924987  44.8026180  81.4293671   4.2061073  45.1105356
  81.9357967   5.5532551  45.5792665  26.7003384   4.4064550  37.4682713
  26.3935318   3.6018400  37.0503116  26.4648953   4.3022661  38.3901954
  79.9688966  80.5938418  33.8071704  80.2186734  81.2220926  33.1295681
  79.4918210  81.1150522  34.4529033  12.9579542  38.1303382  67.8393364
  12.5013826  37.2897100  67.8726959  12.6339624  38.5473561  67.0409918
  19.2608824  59.9653633   1.8348489  18.4998312  59.7320254   2.3664365
  19.0051213  59.7427924   0.9397064   5.3123948  24.0359998  65.8839226
   5.8870218  24.8015237  65.8813286   5.6229875  23.5008979  65.1535606
  55.2241373  23.1346750  49.4637442  55.4286146  22.8056192  48.5884523
  55.8534908  23.8415217  49.6069622  73.3455133  51.8482208  35.3314519
  72.7924442  52.3163557  34.7059941  72.7909565  51.1396933  35.6580663
  64.9946117  13.0336308  30.1799369  65.1913214  12.2452629  29.6739602
  64.4163036  13.5439634  29.6130610  48.0451775  13.6016023  27.7257538
  48.0530977  13.8774562  28.6423087  47.4306536  12.8681064  27.7016902
   2.2591572   9.4443953  11.3155113   3.1998234   9.3502343  11.4655815
   1.9283944   8.5463393  11.2976394  83.2438469  69.2263699  16.1771631
  82.3890209  68.8142872  16.3024461  83.8495445  68.6777639  16.6755462
   9.4238851  47.7959108  41.9781590  10.0223157  48.5244703  41.8128777
   9.1694257  47.4925375  41.1066961  59.9670362  30.8233571  27.9274869
  60.2006960  29.9136448  27.7429414  59.0347862  30.8785200  27.7174973
  82.4931240  71.3850212  67.3011303  82.6563835  71.7198849  66.4194012
  82.7072716  72.1174765  67.8789616   4.3689153  67.0846081  41.7476511
   4.8966501  66.6105318  42.3902893   3.7532613  66.4316225  41.4147758
  80.3954506   2.8076416  51.5328407  80.9308815   2.1111369  51.9128704
  80.1410389   2.4721873  50.6732035  84.0035915  48.5894489   7.1463233
  84.8188591  48.5823774   6.6448045  84.2203236  49.0636063   7.9490900
   0.5442426  35.8923984  40.9575319  -0.2141097  35.3636241  41.2055922
   0.8382509  36.2890100  41.7775869  36.4796979  55.9219070  70.0399494
  36.7163808  56.5204163  69.3314314  35.5494172  55.7435627  69.9021053
  58.8979006  32.9909706  64.0528297  59.3104362  33.8285065  63.8416958
  59.0973425  32.8524041  64.9787092  84.6717453  37.3416996  45.2940369
  84.5336533  36.4864492  44.8869658  84.3946743  37.9713130  44.6284151
  83.3680439  45.8185720  50.0337553  82.6469231  45.2141142  50.2093697
  84.1499615  45.2664661  50.0387239  66.4569283  20.5728626  36.5251637
  65.7463789  20.3255033  35.9334135  66.8379498  21.3558888  36.1277652
  11.3419260  19.4870579  63.5858794  11.9470514  19.5278871  62.8453471
  11.1046423  20.3994023  63.7518765   7.8895852   7.5754565  60.5791807
   7.5645254   7.5159204  59.6808338   8.6822412   7.0388848  60.5831289
  59.0989453  79.7517954  18.3620644  58.7290914  80.6337641  18.4016716
  58.8214833  79.4137348  17.5106180  78.0917406  55.5609131  37.8131628
  78.7281847  55.7086182  38.5126996  77.3898792  55.0607157  38.2296085
  51.6654873  15.9455764  27.3079085  51.1778831  15.6909037  28.0912447
  51.0065365  16.3307762  26.7302942  55.2018976  45.5418587   9.6099520
  54.2646694  45.4339314   9.7717631  55.3582573  46.4792871   9.7240269
  22.1486661  32.5250340  42.6033306  22.4291608  32.9057693  41.7711067
  21.4088056  33.0670047  42.8773880  33.7202451  31.5600371  26.6356325
  33.9035985  30.7331491  27.0815825  32.9091165  31.3977003  26.1540294
  75.1082897  23.4692550  10.1434433  75.5007744  22.6335883  10.3961289
  74.6287584  23.7536502  10.9215176  57.9127026  43.6741781  70.4540586
  57.9167700  43.7414455  71.4088869  57.0362949  43.9610672  70.1974726
  71.4619160  51.3216209  43.0947065  70.8255672  50.6084490  43.0429745
  70.9525108  52.1109438  42.9111099   4.8032663   1.7383273  57.8622055
   5.6777093   1.4530192  58.1271362   4.6886823   1.3751961  56.9840050
  81.3577992  72.3256470  43.7509203  81.1413056  72.7645786  44.5735359
  80.5096204  72.0934023  43.3729172  75.3081799  38.1627512  48.7694073
  76.0831070  38.6189580  48.4413910  75.2021360  37.4163032  48.1796598
  74.6109152  64.4226551  50.3958416  73.6808014  64.6203232  50.5056143
  74.9293613  65.0954580  49.7940493  24.6167285  66.7840512  41.2113714
  23.9409358  66.1213071  41.3538647  24.8536069  66.6900606  40.2887201
  30.9516713   5.5733657  38.9980173  30.5020139   5.6506562  38.1565499
  30.7743642   6.4029396  39.4414163  52.0555099  11.6833365   9.5407138
  52.1844943  10.7465184   9.6889530  51.6816028  12.0063031  10.3605495
  16.6934106  58.0081749  39.6425653  17.1877096  58.7076330  40.0699568
  16.4426133  57.4215937  40.3561878  65.0046206  49.3394279  44.4456148
  64.6522665  48.9565277  43.6422062  65.5851460  50.0379467  44.1434574
   0.5475805  46.8715048  20.2781057  -0.3215888  47.1635818  20.5527973
   0.4644296  45.9220028  20.1899958   9.4319627  29.3756151  30.2031159
   9.4553468  29.9086738  30.9978056   8.8368795  29.8441768  29.6178341
  72.9179335   6.7395127  56.8045473  72.5220585   6.5034902  57.6434803
  73.8396978   6.8954802  57.0101118  11.3197133  40.6252623  37.0326352
  11.0259530  39.9131417  37.6008058  10.5671499  41.2142706  36.9782686
  77.7632332  19.8005235  30.3173208  78.3636665  19.0582538  30.2484059
  76.9658041  19.5051312  29.8779130  82.0825386  27.8113699  42.0719767
  82.2554016  28.3843517  41.3249540  82.0942116  26.9278455  41.7038965
  14.8225108  76.8172033  26.5718208  15.4214039  76.1598547  26.9260059
  14.4795647  77.2689708  27.3428760  59.0977955  22.8853250  45.2754974
  58.4785843  23.2011127  45.9335899  58.9921808  21.9340086  45.2842379
  72.5878191  33.3265662   1.1061694  72.4472427  32.4448419   0.7611622
  73.0542946  33.7855411   0.4076186  86.6481304   0.6485312  33.7700844
  87.5919437   0.5124932  33.8534760  86.3041306   0.4855409  34.6483374
  74.6056747  52.8684235  11.1862683  74.0749216  52.1394062  10.8652174
  75.2897501  52.4534750  11.7117095  85.6064987  22.1274137  53.9698553
  86.1405468  21.9456148  54.7431421  85.8764935  21.4670634  53.3316755
  60.2293491  80.0728416   8.5893363  60.4848337  80.8127213   8.0383927
  60.9165382  79.4213963   8.4492707  84.3042088  29.9052501  47.5823975
  84.6575642  30.7223797  47.2307253  84.8944092  29.2275858  47.2527504
  13.1833169  70.2892160  61.6613579  13.4419725  71.1475992  61.9967747
  13.5843465  70.2403736  60.7935905  70.3820801  56.8020153  53.5679054
  70.8857822  57.0635414  54.3386984  69.4926119  56.6706753  53.8962889
  80.6159401  46.5800142  32.8484750  79.6609545  46.6345310  32.8841472
  80.8571148  46.0865307  33.6324000  60.8044672   6.5616930  57.0245886
  60.3286457   7.2935295  56.6318512  60.7252264   6.7031580  57.9679537
  67.1061611  69.4589806  45.9717035  67.3824358  68.5494947  46.0846043
  66.2504196  69.5040512  46.3982153  70.2747631  73.4268570  29.6220732
  69.5240593  73.7150335  29.1028142  70.1942062  72.4734879  29.6509504
   8.4871671  40.7969475  59.9006939   8.4464834  40.4861736  60.8051252
   9.1030404  41.5292454  59.9265385  12.4126432  29.7114038  43.2484770
  11.4870164  29.9552131  43.2463264  12.4179551  28.7889957  42.9928017
  82.1217537  53.0119991  51.9167852  83.0218029  53.3122063  51.7902279
  81.5811634  53.7464523  51.6259670   2.5038907  44.4789171  42.0215511
   2.3612211  45.2019644  42.6323605   1.8047235  44.5706892  41.3742733
  71.3570261  54.7858000  46.1939192  72.1550894  54.9905157  45.7066679
  70.6495237  54.9264765  45.5647278  30.7862375  60.0073957  18.2184088
  29.9880407  60.4678392  17.9593396  30.9532163  59.3955660  17.5014639
  80.8388901  48.4224987  27.8093719  80.2881336  47.6410007  27.7628922
  80.4535007  48.9456558  28.5122347  41.0666368  21.2419534  55.0087118
  41.2074945  20.4858828  55.5785799  40.5111501  20.9100533  54.3033648
   2.9240129  24.2803121  38.5674667   2.8675649  23.5805917  37.9167461
   2.6901147  23.8581133  39.3940663  83.4966946  46.3154125  17.0688748
  83.3955288  45.5277824  17.6033306  84.3227863  46.1845255  16.6033936
  66.7959213  62.7587080  29.8935628  66.5418339  63.6792183  29.9593830
  66.1433077  62.2921753  30.4157472  73.8189554  51.2932539  46.2231350
  74.2972326  50.7789087  46.8734646  73.3540678  51.9546747  46.7356157
  17.2039792  48.7072897  37.6082730  17.7024457  49.3187380  37.0661521
  16.6297433  49.2654133  38.1326604  12.6693437  56.0864449  52.4046087
  11.7853639  56.4071751  52.2258711  12.7615163  55.3144789  51.8462181
  75.6166983  12.0467436  40.9309340  75.8080101  12.0929396  41.8676853
  75.7845163  11.1338830  40.6969404  80.3144360  10.1067793  25.7092738
  80.2256203  10.3796363  26.6224527  80.7349968   9.2481726  25.7556701
  68.2466125  31.1073804  40.8456230  68.6224222  30.6980443  40.0662374
  67.3267794  31.2490392  40.6218433  71.6206026  73.7637615  43.2104921
  70.9785366  73.9997768  42.5409508  71.1147785  73.2906342  43.8711929
  71.7513847  26.5714788  67.9813671  72.3226357  25.9413600  67.5422096
  70.8691168  26.3348556  67.6952887   1.8029306  33.8109970  33.0390525
   1.7569349  34.2968965  32.2156334   0.9854410  33.3140182  33.0698824
   6.3425252  64.7757483  40.7357740   6.2737176  63.8520813  40.9773064
   6.6929052  65.2023411  41.5177441  80.0364113  29.6278000  29.2469835
  79.2662811  29.5086765  29.8028135  79.9522066  30.5193472  28.9089227
   9.1529939  59.1675806  70.0370407   9.0777395  58.9561701  69.1065168
   8.5340593  58.5777664  70.4674816  68.0871010  21.5182257  61.3960648
  68.1780863  20.8175230  60.7503319  68.5442829  22.2636104  61.0066795
   1.9626043  23.7254834  27.7023768   2.8629300  23.7152362  28.0272412
   1.8329046  24.6189260  27.3843098  60.1363611  55.1381922  32.8110528
  60.3445578  55.6605721  32.0364523  60.9677982  55.0621223  33.2791972
  67.9859686  27.2294092  27.6279402  67.0957756  27.2477865  27.9792857
  68.3807707  28.0463004  27.9329848   2.9664323  38.3586740  28.0131698
   2.0786378  38.1478119  28.3023095   3.5310361  37.7972031  28.5443950
   1.0801885  72.1424103  69.5763111   1.7780778  71.5886879  69.2262220
   0.2927015  71.8567562  69.1131687   4.9556723  81.5856011  12.5560604
   5.0806942  81.8114932  13.4777866   4.4998875  80.7441051  12.5753818
   9.9643323  27.3957133  23.3686376   9.0128991  27.4565077  23.2830691
  10.1081846  26.6026282  23.8849258  24.7382352  67.4617195   6.7850798
  24.5599077  66.7163658   6.2115967  23.8787649  67.8512001   6.9458914
  60.1202917  36.4591646  62.2094345  59.4018173  35.8280158  62.2504330
  60.8509588  35.9663796  61.8359137  69.4491673  65.9421778  65.0910234
  68.9605761  66.4871454  65.7078886  70.3668451  66.1610842  65.2528238
  67.1077871  37.6827741  41.2717152  67.5689793  36.9642901  41.7045164
  66.9734764  38.3317161  41.9624138  77.0595789  25.9245229  36.4966345
  77.3965549  25.1290298  36.9087863  76.8845367  26.5172696  37.2275543
  63.1116676  43.0524015  46.3101768  63.9508533  43.4509754  46.5406752
  62.4981403  43.3922386  46.9615793  18.1364114  62.0141954  26.8289375
  18.2812173  62.0184679  25.8827639  17.2486360  62.3554058  26.9369125
   5.5224416  24.0246487   8.0992824   5.3689763  23.2315302   8.6127466
   6.2950132  23.8225532   7.5715309  56.1992121   1.3870242  63.1386232
  56.0340738   2.3291330  63.1759501  55.8327818   1.1127513  62.2979498
  51.5521002   8.0187511   2.5898343  51.5065050   8.6688673   3.2909065
  52.0610619   7.2991747   2.9631978  31.3689515  29.3287134   6.1315471
  31.4205549  29.4108868   7.0838159  31.8656633  30.0764799   5.7993531
  68.1851768  23.3919382  53.4115982  68.8347197  22.8544450  53.8648367
  68.3346033  24.2777514  53.7421083  73.7896878  79.9682244  29.0439105
  74.7033174  80.2233688  29.1720629  73.8285119  79.0343584  28.8374662
  53.1248036  82.1176560   0.7375990  53.7614003  81.6249736   0.2196823
  52.7618256  81.4741834   1.3462196  68.6686761  67.7209539  16.7892885
  67.9483277  67.1332581  16.5613639  68.5862405  68.4503527  16.1749482
   8.8684366   6.6910237  10.2992940   9.5251558   6.0985672   9.9333012
   9.1257188   7.5576103   9.9845439  64.1776276   7.0535529  13.4577465
  63.2926464   7.2548157  13.1535637  64.5145035   6.4273107  12.8169894
  65.0750256  50.7997131  47.5035286  64.5234394  51.0211992  46.7532444
  65.7333136  51.4941120  47.5301313   9.0266702   6.9689280  40.0486565
   9.7483919   7.5959432  40.0017786   9.3982408   6.1509144  39.7184658
  65.9368801  23.4007549  61.9591904  65.2703619  23.3466053  61.2743139
  66.6423607  22.8311849  61.6523981  75.6993253  70.2832527  13.0566287
  76.5606744  70.0918062  13.4276330  75.4061753  69.4494815  12.6890373
  43.2935769  65.9400148  33.2782030  42.7419765  66.4570029  33.8653111
  42.7131421  65.2557070  32.9449606  35.4207243  38.6791420  62.0932843
  34.6884455  39.1322741  61.6753538  36.0883249  39.3558201  62.2057863
  83.8556957  26.6412377  12.2355032  84.2552757  26.1187553  12.9309046
  84.4129276  26.4900541  11.4720464  83.1091309  22.4094033  38.2696676
  82.6620102  21.7323136  37.7618647  82.4038506  22.9655457  38.6005974
  10.3429029  22.5995517  41.9719601  11.1229799  22.9793835  42.3762512
   9.9718282  23.3120441  41.4514875  77.5900698   7.7791876  27.1953392
  76.7155409   7.5059044  27.4723697  77.7727509   7.2479010  26.4203596
  57.4339444  73.7419022  28.6717653  57.7710492  73.6535759  27.7802539
  57.4785096  72.8567935  29.0334654  65.0734043  27.5088429  70.8939457
  65.2725649  28.0176401  71.6798782  64.4060850  28.0224586  70.4388428
  79.3460083  15.1865745  45.0244331  79.7665405  16.0461962  45.0035906
  79.0476370  15.0877631  45.9285593  68.8550377   8.4083027  21.1163187
  69.6339846   8.8825363  21.4071393  68.6726284   8.7590730  20.2445841
  37.9305512  71.6087897  35.9673381  37.5715215  72.1184148  36.6937065
  37.5148208  71.9771476  35.1877809  68.4549665  65.6931591  35.6095910
  68.8835859  66.2442827  36.2644053  67.7376366  65.2721691  36.0833383
  85.2313287  76.5437205  50.9232712  85.4248960  76.7194064  51.8440866
  86.0837514  76.5757514  50.4890013  71.1672497  13.1731391  42.3341179
  71.8724489  13.3406937  41.7089367  70.8556795  12.2952175  42.1140909
  32.9618985  79.9260431  35.4447818  32.9871423  79.7266611  36.3806462
  33.8141734  79.6401909  35.1159239  38.0259607   2.0482813  35.9678483
  38.2231233   2.2992618  36.8702698  37.3547075   2.6703835  35.6874371
   1.2517831   5.0252134  10.4881775   1.1135480   4.0836608  10.3852165
   1.4050958   5.3434789   9.5985508   9.2908094  20.2908325  46.1726093
   9.8296068  19.5009041  46.2166357   9.0223977  20.4484320  47.0777893
   0.3540132   0.9432819  27.3596311   1.1498353   0.5153250  27.0437837
   0.1992414   1.6520402  26.7351818  14.8309698  43.1771632   0.4185711
  14.8801747  42.8365828   1.3117729  14.4960728  42.4448329  -0.0988926
   2.0336530  37.4230218  11.0883224   2.2731397  37.8244090  11.9236481
   1.1459443  37.7375555  10.9172332  68.9966726   6.3644451  27.0452881
  69.8298979   6.0386449  26.7049575  68.3325720   5.8562791  26.5794921
  46.8739182  19.0641181  69.4799166  46.7580134  18.1421344  69.7095873
  46.1634500  19.2490928  68.8657135  71.5178776  44.6843624  41.7754602
  71.8684053  43.9519119  42.2822952  70.5677938  44.5890188  41.8424129
  81.6457462  22.7306151   4.6341062  82.1709347  23.3682156   5.1177126
  80.8187675  22.6880574   5.1142353  50.4925115  71.8774064  28.0739498
  51.3114030  71.6514607  27.6328254  49.8085410  71.6205723  27.4555182
  10.3046892  13.6005914  27.9253411  10.0962541  14.4753969  27.5974655
  10.4809186  13.0854416  27.1380687   0.5245127  26.1513996  64.5067604
  -0.0008617  25.7534194  63.8126244   1.0008587  25.4184365  64.8967512
  31.5769870  72.3392875  26.9083524  30.8030803  71.8294497  27.1478605
  31.2413795  73.0299075  26.3368249  69.2832232  30.4255748  45.2731180
  68.6462212  29.7908401  44.9451303  69.2008209  30.3773165  46.2255430
  86.4176750   1.9590420  52.6179218  85.9815216   2.2763905  53.4086752
  85.7433796   1.4608574  52.1560049  59.1777897  13.6331761  69.8151398
  59.9475050  13.9223814  70.3051710  59.5304918  13.2994199  68.9902544
  40.0117070  79.0968384   3.9438432  39.3008525  79.6613465   3.6401236
  40.6310470  79.0780745   3.2142532   2.4565980  68.8922119  57.2916222
   2.0264623  68.9987040  56.4431667   3.1037233  69.5968580  57.3222017
  77.7939892  40.1126385  44.6829510  77.7475929  41.0606432  44.8069429
  77.5905848  39.7481823  45.5443573   4.4632718  21.2309766   4.9368748
   3.5768506  21.4861083   5.1926088   4.6924779  20.5240417   5.5401474
  64.2536402  41.6900539   9.9858719  64.7584152  41.1711454  10.6121039
  64.4518661  41.2982368   9.1353309   2.0175509  72.7416189  62.1305752
   1.8139510  71.9823272  62.6767015   2.5962405  72.3986079  61.4496279
  55.6205702  22.3805285  16.0048270  55.5829144  21.7770243  16.7468488
  54.7674322  22.2913599  15.5800438  82.2211456  18.7492359  17.9401791
  81.5631104  18.0874765  17.7273297  82.5188828  18.5167325  18.8196826
  15.7923982  25.5136561  26.8446803  16.5585611  24.9465013  26.7576361
  16.1528013  26.3686371  27.0799398  20.8194253  26.9316459  14.8811877
  21.4099405  27.6071835  14.5477498  21.2803838  26.5607429  15.6336403
  85.4811494  69.5542895  66.6628646  85.0679890  68.8236963  67.1230449
  85.4643504  69.2969668  65.7410540  74.0566683  13.4916830  28.6985517
  74.1813326  14.1928446  29.3381310  74.7212410  12.8407753  28.9241385
   8.2589528  23.6997461  43.5710669   7.4916456  24.0189171  43.0960894
   8.9966009  24.1613603  43.1722975  68.9364195  44.0461445  31.5192986
  68.6786318  44.7675133  32.0932364  68.9716911  43.2825565  32.0954251
  61.6065216   5.2076346  51.5578032  61.7409229   5.9410453  52.1580362
  60.9516048   4.6603724  51.9911861  13.2681749   4.8394424  41.3189983
  12.3875234   4.9699092  40.9673309  13.1514833   4.2080379  42.0288897
  84.1133881  18.2785916   5.1011813  84.6509361  17.4885309   5.1566499
  84.3358135  18.6605012   4.2521220  74.2702150  10.4078817   0.5336158
  75.1195145  10.3914225   0.0924219  74.0102196  11.3289690   0.5183946
  77.6635971  51.8745001   7.0996557  78.2864037  51.7282815   7.8116737
  77.7945843  52.7895101   6.8509994  14.9644563  18.5407400  35.8250976
  15.7757566  18.4134412  35.3333402  14.4045827  17.8124201  35.5561686
  62.3503351  54.7299051  41.9009161  62.9746866  54.9982643  41.2268305
  62.6179361  53.8412046  42.1350861  77.5309372  29.6082187  30.4135537
  77.3023844  30.3294277  30.9999442  76.6985178  29.3463922  30.0201607
   0.3160760  56.4230871  45.1577377   0.0751779  55.6174707  45.6151009
   0.7024476  56.1247015  44.3343830  23.2555005  30.7388520  16.6948295
  23.9115713  30.1553106  16.3136601  22.8037164  31.1166716  15.9402633
  71.5005684  36.8750954  45.0047636  71.8953133  36.0124636  45.1323223
  71.5949249  37.0454621  44.0675831  47.2312886  72.7765591  24.4645381
  46.6332108  72.7091773  23.7202311  48.0151565  73.1919850  24.1050839
   1.7924783   1.9162516   5.4950893   0.9235666   1.8145953   5.1066476
   1.6498945   2.4772869   6.2574160  61.2931401  79.6998788  31.2183762
  62.2318513  79.6738553  31.0329747  61.2390096  79.7637874  32.1719050
  86.6189343  81.1965290  37.1432519  85.7528550  80.9229633  37.4454045
  86.5281636  81.2728573  36.1934280  30.9279535  48.0878544  35.9885240
  30.7091520  48.0694962  36.9201994  31.1451337  47.1802616  35.7755733
  28.8703916  16.5842164  52.4866724  29.0752694  15.6595361  52.6253223
  28.0049512  16.5790856  52.0777512   1.9927785   3.1919846  41.4166594
   1.6243169   4.0649533  41.5522909   2.7860925   3.3439964  40.9030676
  25.0745389  17.8400850  57.4121571  24.3847463  18.3660841  57.8167915
  24.8920152  17.8867996  56.4736843  73.8581085  25.7884336  29.8492551
  72.9211760  25.8748460  30.0250936  74.0953493  24.9410582  30.2259541
  17.5025842  18.3611667  13.9331520  17.3897550  18.7852967  13.0824971
  18.3535478  17.9269755  13.8733065   9.9453256  27.4265122  62.6937914
  10.0807092  26.9069052  61.9013834  10.6316087  27.1328235  63.2929468
  18.0306718   4.2062646  47.0632029  17.9472158   3.3243573  47.4258423
  17.3265645   4.2674071  46.4176559  48.7697554   5.2157462  29.9087238
  48.9759493   5.6086040  30.7568860  48.0015898   4.6702561  30.0778294
  52.3384047   8.8921887  10.1037085  52.7457762   8.1544024  10.5575287
  51.4418364   8.6032748   9.9336392  52.1749973  22.0902443  19.5647621
  51.4996386  22.4019694  18.9623094  52.8095627  21.6447401  19.0034366
  66.2762642  23.3416343  25.2130127  65.9433651  23.6099172  24.3566036
  65.8188200  23.9067888  25.8355713   8.8729856  33.5607219  23.5333920
   8.2470891  34.2224479  23.2391071   9.5314882  33.5284877  22.8394389
  86.7671967  29.9739528  56.2591505  86.0177708  30.5632281  56.3448954
  87.2632122  30.3234315  55.5188370  23.8620622  79.8009020  55.9460735
  23.1581265  79.2560468  56.2979889  23.7414224  79.7646664  54.9971962
   0.2466962  23.0695438   1.0078958   0.9648225  22.4367452   1.0171194
  -0.5321124  22.5509501   1.2097634  80.2964115  39.4565701  57.6709366
  80.1684284  39.5306706  56.7252302  79.5486975  39.9180007  58.0507088
  57.1226788   6.6112506  48.4893227  58.0159521   6.2903839  48.6132050
  57.1264839   7.4862075  48.8774824  74.9819715  81.0449964   0.8402246
  75.1406915  81.7142243   0.1745130  74.9427373  80.2239005   0.3498225
  19.2044258  67.4561548  35.6692076  18.4663439  68.0645943  35.7048178
  19.9731994  68.0177402  35.5699921  57.8992099   0.7172597   2.6296316
  57.2416086   0.9742082   3.2759796  58.2306409   1.5455831   2.2828375
  25.2218843  71.7107630  65.3631353  24.6349001  71.9156265  64.6353245
  25.1843762  70.7573986  65.4400396  44.3564533   1.1183083   6.8924318
  44.3878900   2.0035708   7.2551284  44.4788669   0.5449784   7.6490913
  35.9633242  25.8081496  27.9484401  35.4656683  25.1182664  28.3873401
  35.3641950  26.5540851  27.9192577  80.0828444   4.8573125   3.7926994
  79.3260084   5.1301158   4.3113647  80.6236397   5.6442750   3.7258897
  65.5495685  67.9381760  17.6293121  65.8581656  67.4025114  16.8985115
  65.6810635  67.3882373  18.4016452  11.2463077   0.9924996  23.4181724
  10.4469617   1.3809932  23.7736354  10.9421619   0.4236615  22.7109562
  46.8694454  70.8359869  20.6767212  46.5834742  71.6322334  21.1244331
  47.1344667  70.2463301  21.3826309  48.9551165  33.9583182  68.8310575
  48.7082031  34.5548606  68.1243706  49.4551160  33.2669592  68.3971739
  67.7211612  65.1322658  33.1776462  67.5615662  65.9398373  32.6891838
  67.9614609  65.4271467  34.0560184  23.7159329  48.1292392   4.7590194
  22.8383117  47.7486773   4.7934471  23.6231028  48.9838369   5.1800619
  45.8337121  77.1896489  22.6190124  44.8888498  77.0419677  22.6597057
  46.1580651  76.9019850  23.4724079  48.3982664  65.2978857  57.5180851
  48.6231773  65.7638843  58.3233772  47.5020330  64.9931725  57.6600395
  58.7409704  79.9175032  21.1933647  58.8580554  79.6189673  20.2914749
  57.7919477  79.9460562  21.3149105  44.4731479  45.0550307  14.0392051
  44.4715565  44.4578360  14.7872577  45.2202290  44.7746922  13.5105167
  72.2811805   4.4104970   8.6958633  71.5592001   4.7105611   8.1436525
  72.1301638   4.8361791   9.5397888  85.6658117  47.1754980  47.9315233
  85.2872061  47.7783108  47.2915983  84.9594606  47.0160961  48.5575342
  11.3678157  22.2433114  64.0557480  12.1881604  22.4756241  64.4908285
  10.6922519  22.6953721  64.5612049  23.9314151  53.7567902  64.5548487
  23.0180883  54.0061951  64.4139099  24.0774894  53.9008284  65.4898071
  14.6179181  67.6438196  34.9726043  14.3472093  67.3847325  35.8534084
  15.0437003  66.8650849  34.6141182  15.0322795  38.7613225  69.7418976
  14.2898226  38.7899423  69.1384363  14.6642411  39.0197802  70.5868721
  75.3412901  19.7124064   4.4934927  75.0150274  18.8372386   4.2840372
  74.5910512  20.2888310   4.3482004  46.6760962  79.5488008  13.7751518
  46.6986757  80.2207334  13.0938087  47.4767786  79.6922930  14.2796836
  13.3545053  59.8450708  65.8958387  12.5086272  60.2905941  65.9430933
  13.3888543  59.3114853  66.6897821  84.5049177   8.1830180   5.3498159
  84.3822871   8.2123101   4.4009576  85.4023157   8.4874356   5.4848514
  32.2225748  14.3046821  19.7000061  33.0231606  14.0010035  19.2721401
  32.2304116  15.2538884  19.5768009   7.2503740  16.5704072  67.4087143
   8.1055576  16.2422276  67.1308804   6.9538248  15.9402847  68.0654001
  59.2577737  74.6804483  17.5382553  58.3536833  74.9916251  17.5832210
  59.1809171  73.7523778  17.3168789  24.0184727  64.3981369  28.8132320
  23.7257969  63.6213286  29.2898307  24.2095929  65.0405415  29.4966255
  59.0779319  22.9792941  52.7753006  59.1904746  23.0698836  51.8290649
  59.0003707  22.0359862  52.9180465  30.3791814  62.5612505   3.0523477
  30.0295378  62.3133452   3.9082227  31.3141540  62.3642595   3.1093774
  58.5816132   1.2034905  42.1425472  59.0225622   0.5631411  42.7008854
  59.1221544   1.2459338  41.3537155  48.3864766  75.3012355   3.5767637
  48.3192449  76.2393959   3.3990894  48.8331717  75.2488978   4.4217191
  33.4459927  53.1507762  29.7544132  33.7830060  52.3578043  29.3374572
  34.1778701  53.7669428  29.7239814  79.8106780  31.4787245  62.0878172
  79.8562172  30.5961084  61.7201948  80.1462134  32.0451880  61.3929987
  78.7887155  33.8851035   6.7929063  79.1786276  34.7493327   6.9244609
  77.9535113  34.0625012   6.3602481  36.0328041  24.7157205  10.6247745
  35.4852568  24.5434773  11.3907753  36.7414843  25.2673066  10.9560810
  65.8765678  10.6447614  46.4227520  65.2689402  10.8369077  47.1369682
  66.2990461  11.4830602  46.2356601  80.2466002  31.4766049  48.3510828
  80.0594624  31.4703417  49.2897892  80.5087193  32.3782396  48.1651211
  56.8035022  17.1127665   8.6967359  57.1923167  16.7707026   9.5017563
  56.0149814  16.5854323   8.5687242  59.4046467  78.2022198  36.6672454
  59.8459929  77.7775391  37.4028335  58.6112922  78.5781963  37.0486389
   2.7160366   7.2679723  20.1782642   2.5269707   7.9995263  19.5906292
   2.2777732   6.5181220  19.7759090  45.8711865  54.8389196  67.2367477
  45.1610615  54.6600866  67.8531694  45.4526236  55.3182077  66.5216827
  17.1590381  35.7260306   1.0833727  16.5317052  35.8162327   1.8006931
  16.6177242  35.5640890   0.3107248  46.8674832  73.9802916  17.0102249
  47.5060611  74.6787198  16.8665348  46.8748229  73.4777291  16.1956058
  68.7641917  15.2814353   9.4731269  69.3856703  14.6620906   9.8557602
  67.9222970  15.0486720   9.8646198  71.5711525  42.6426125  67.1040154
  71.8591323  42.8477335  67.9935217  70.6989505  42.2644758  67.2158527
   1.8003909  64.2217588  67.1279287   2.0873925  63.7170458  67.8889322
   1.4035025  63.5733509  66.5463114   6.6650826  34.8779345  66.9326305
   7.3587555  35.0765586  66.3036633   7.1139497  34.4335485  67.6518440
  74.0250247  47.5661732  25.9497963  74.3849748  48.3620377  25.5582939
  73.2120364  47.4095072  25.4694400  28.2615755  60.6553371  16.6927753
  27.4532215  61.1316092  16.8824039  28.0276442  59.7335728  16.8016658
  80.5798682  46.1960983  53.7751055  81.0821715  46.5361357  54.5155811
  81.1742934  45.5818224  53.3443451  37.3602264  70.9473045   3.3961378
  36.7904603  70.5986293   2.7105556  37.3491543  71.8944271   3.2580505
  72.6304220   6.7326749  10.4475151  72.6504801   6.3543761  11.3265644
  73.5199128   7.0566571  10.3058372  86.0832463  56.8876994  40.6573520
  86.8027483  56.8417228  41.2869774  85.8740221  55.9735549  40.4655586
  18.3696413  58.8655424  60.5372667  17.7047920  59.5392036  60.3944826
  18.7450719  59.0769053  61.3920212  15.3798509  26.5864420  55.4230261
  15.3896236  26.1693382  54.5615387  15.0621760  25.9050250  56.0154629
  17.7428802  20.5345214  27.0400844  18.6270507  20.8999360  27.0093475
  17.8205665  19.7667849  27.6064525  12.6749929  14.0664542  15.5103241
  12.2844203  13.1942046  15.5638157  13.5266527  13.9226354  15.0977455
  59.0277811  15.5243361   4.1694532  58.8016191  16.4292586   3.9545141
  59.6390458  15.5978454   4.9023805   3.5777577  12.2877086  17.4407802
   4.0434035  11.8376840  18.1456886   3.0668648  11.5999377  17.0139442
  74.1111957  11.9892991   7.6011453  74.1085480  11.1069787   7.2300182
  74.4520985  11.8749726   8.4882484  50.2651231   1.0500110  49.2374263
  50.7072882   0.2424586  49.4993053  50.7493626   1.3495219  48.4679828
  82.9329406   6.1204207  16.5442310  82.0256840   5.9297240  16.3060032
  83.3573686   6.3396085  15.7147442  75.2477215   2.7780116  33.3915077
  74.8140846   3.6249507  33.4958397  75.9875570   2.8114188  33.9979396
  11.5081390   1.1498940  19.0432773  11.0273679   0.4211057  19.4356571
  12.2260650   0.7339156  18.5660205  57.6239480   2.4943507  55.3036056
  58.4385728   2.8538192  55.6548916  57.1051357   2.2757876  56.0777507
  77.2175036   2.0355761   0.3767810  77.4649809   2.3885310  -0.4778590
  76.3448511   2.3933947   0.5401168  18.2023835  70.6859875  67.9865932
  17.4314022  71.1382341  68.3290720  17.9494762  70.4165840  67.1035910
  10.1441896  35.8916306  57.5094604  10.2261364  35.4114294  58.3334303
   9.7276282  36.7179489  57.7542210  79.3957021  27.8034353  63.9536190
  79.6331712  26.9216585  64.2405128  79.3251642  28.3080792  64.7639227
  79.3701683   1.7638457  10.2190529  79.6036039   2.6039803  10.6139217
  80.0746571   1.5884078   9.5952354  12.6114591   2.7466023  43.1236396
  12.5384124   2.6128734  44.0686355  12.0140251   2.1024335  42.7437053
  42.2426154  49.1565319   7.5949165  43.1264950  49.5058342   7.4810096
  42.0802904  48.6511751   6.7983695  34.7007132  15.1394427  45.1415968
  34.6683311  16.0459316  44.8358774  35.2459598  14.6885777  44.4968796
  11.5887797  60.4217243  67.8966856  11.1784208  59.6088219  67.6016808
  10.9039187  60.8690929  68.3937407  28.4490633  62.2023153  68.0386829
  28.0939555  63.0369663  67.7329206  29.0885377  62.4450064  68.7083101
   1.5425309   1.0450471   1.8273674   2.3487671   0.8178962   1.3641010
   1.8052014   1.7279447   2.4445282  71.8205016  51.3562508  19.0806804
  71.5556472  50.7666554  18.3746563  72.1716779  52.1251460  18.6315570
  57.2379988  61.7597349  24.7692142  58.1878059  61.7764910  24.8867641
  57.0185059  60.8290859  24.7250686  43.9744102   3.1059564   0.5088888
  43.6449455   3.4081471  -0.3374924  44.1563879   3.9096702   0.9958826
  27.1476158   2.5839246  69.0851436  28.0235084   2.6193345  69.4695697
  26.8087848   1.7256940  69.3398319  16.5412366  75.7191324  49.7974920
  15.9777617  76.1436939  49.1505957  17.2964704  75.4147577  49.2942905
  24.1484936  69.3173750   1.7935310  24.7577452  69.6029933   2.4743162
  24.6151286  69.4754227   0.9728609  37.6582264  81.0784133   6.4532219
  38.1455850  80.4795416   7.0189653  38.0082815  81.9442590   6.6629778
  39.5262980  41.6958761  67.2035933  39.8803115  41.1764908  66.4816856
  39.0419722  42.4019480  66.7756653  85.3276239  13.1073201   0.7319675
  84.9009787  13.5565150   1.4616476  86.1836611  13.5292685   0.6585489
   1.0787853  30.4432118   3.7534509   1.5200027  31.2391055   4.0502964
   1.3212331  30.3648770   2.8307853  48.2271677  70.5759247  31.3762127
  47.7717429  71.2355574  31.8993793  47.5285082  70.0212605  31.0291420
  27.9223951  13.3752168  11.7244754  28.7414297  13.7354911  12.0645080
  27.5200637  12.9426635  12.4776397  48.9743774  56.8250783  14.6408878
  48.0896466  57.0586844  14.9217926  49.5398849  57.4643476  15.0742088
  43.0350500  72.8129013  28.4325634  42.1266764  72.5895055  28.2296310
  43.4720223  71.9676621  28.5367714  46.5048283  60.4767330  20.9299026
  47.3469227  60.3337522  21.3619457  46.6871779  61.1386044  20.2628837
  37.8709888  49.2215490  62.9468060  37.2605777  49.9052715  62.6708508
  38.7268114  49.6502638  62.9467344  61.9280134  42.2973121  16.1864792
  61.7199530  41.8690646  17.0168720  61.2621604  42.9788554  16.0950409
  30.1946325  69.0715583  10.8502422  29.8920740  68.1695803  10.7447754
  29.3954640  69.5760544  11.0020481  54.6663086  25.4184401  22.1217189
  53.8099621  24.9915088  22.1468959  55.2017231  24.9177897  22.7372776
  80.9197133  76.3035472   3.5314355  81.5877049  76.9861134   3.5956655
  80.3869336  76.4149793   4.3188129  81.2724672  33.2406581   8.9921985
  80.9547006  33.3919776   8.1020485  80.5048882  33.3785737   9.5472084
  70.2638021  42.6135683  61.3893509  70.5263224  43.0854893  60.5990314
  71.0354819  42.6454353  61.9547939  82.2766338  30.8470452  50.8159099
  83.0094825  30.2315438  50.7979618  82.5361572  31.5460217  50.2156578
  81.8700324  57.7107585  40.2519642  81.8601523  58.1096328  41.1220394
  82.2590314  56.8469489  40.3888927   1.6251381  43.9831508   8.2283579
   0.7541164  43.6519587   8.4471260   1.8946679  43.4654200   7.4697147
  72.3904143   9.6170295  45.3737865  71.4926051   9.9385655  45.4561649
  72.5073443   9.4710076  44.4350467  27.8550291  70.2001333  68.0901957
  28.2936954  69.3638897  68.2467318  26.9404697  69.9651718  67.9333258
  46.4050417   6.3752394  69.8103523  45.4684513   6.1814432  69.7720003
  46.4612370   7.3177557  69.6531057  54.0715198  19.9147809   0.2865873
  54.2461754  20.7928765   0.6252323  53.1407331  19.7724641   0.4586683
  23.3723815   4.5445216   5.7789217  22.8269895   5.2740062   6.0732494
  22.7473911   3.8655198   5.5247913  65.7127760  17.2610343   9.2888389
  65.6853573  17.0727933  10.2269493  64.8201881  17.5306714   9.0724693
  67.0188906   5.3026748  68.7603331  66.2778642   5.9072554  68.8002729
  66.9987490   4.8433203  69.5998669  53.9445125  25.4095138  17.5019107
  54.5089848  25.9396947  18.0645023  53.0730482  25.7905066  17.6097332
  59.3957951  63.8009071  70.5141926  60.1530459  63.4777117  71.0024023
  59.7695305  64.3714952  69.8426390   9.9492204  65.4858494  47.9851103
   9.8502612  65.1183271  47.1068335   9.6137547  64.8053312  48.5687113
  45.5631607  67.2974999  13.0187450  45.3771060  67.5558336  13.9214550
  44.7105806  67.3152407  12.5839744  67.4645899  13.8161195   5.9225164
  67.0026420  13.5765899   6.7259250  67.6255475  14.7556413   6.0098158
  22.7168036  47.8740692  65.2533770  22.0754814  48.5622978  65.0765228
  22.2176027  47.1907043  65.7006359   0.6554308  75.4533394   3.4592996
   1.4476052  74.9698885   3.6937366   0.8130923  76.3413675   3.7798963
  73.3922802  10.9902490  19.7429023  74.0833543  10.6083548  19.2017971
  73.7357830  11.8453658  20.0017772  12.7876981  17.1724093  32.3804317
  13.3577951  16.9475377  33.1157146  13.3580716  17.1285165  31.6129814
  55.9289071  38.1502641  11.6901813  55.2266131  38.3646739  11.0761486
  55.8689736  37.2013629  11.8007599  71.5985034  29.3103135  21.0447536
  72.4856101  29.6510232  20.9298931  71.3981138  29.4701016  21.9670044
  65.1820932  16.3841784  27.9964481  65.7441466  16.5089429  28.7611423
  65.6499945  15.7470286  27.4566875   2.1049507  12.2532714  25.9130512
   2.5352844  11.3984120  25.8968769   2.7409061  12.8490842  25.5170761
   7.1379526   9.7643054  32.4556003   8.0359944   9.7661508  32.1243129
   6.5975316   9.9322761  31.6836105   8.9082831  38.7483311  68.3285666
   9.2961150  39.1400790  67.5460339   9.5727855  38.8624573  69.0080070
  45.3041421   0.3254235   1.3937460  44.8345278   0.1500476   0.5783115
  45.9005366   1.0421479   1.1772857  59.5816733  20.7589066  12.6910053
  59.5980187  19.8031676  12.7412925  58.7453734  21.0052741  13.0861507
  70.5014394  33.2255042  19.9598823  71.3142835  33.7306035  19.9400840
  70.5031131  32.8025735  20.8185802  37.8711390  56.8426657  64.7377586
  37.6741076  57.7694464  64.6017933  38.6947203  56.7018652  64.2707253
  50.3849792  41.8941307  70.2274323  50.1453447  41.7579556  69.3107748
  50.3334093  41.0228586  70.6204510  75.7354524  29.1477418  64.2901039
  75.0810292  29.8180032  64.0933466  75.4692032  28.3920145  63.7664461
  61.0238688  70.7558687  12.1198307  61.2971395  71.3078769  12.8525291
  60.8473914  71.3718088  11.4087043  69.3701743  28.1348145   1.8513332
  68.6206459  28.6970580   1.6555772  69.5557927  28.2965625   2.7763305
  33.5818198  76.3266023  12.1532760  33.6381637  75.4853781  11.7000614
  33.0836343  76.1373885  12.9484115   0.0506171  29.0387547  30.1536785
  -0.1291553  29.2273820  31.0747276   0.5965980  28.2527602  30.1723037
  68.2663332  29.2429698  15.8805881  68.8167141  28.5714543  16.2835537
  68.8860820  29.8460353  15.4701648  80.5485483  79.5779498   2.7690826
  81.2736030  79.3578918   3.3539758  79.8206206  79.7819407   3.3562265
  17.0260318   9.0402568  10.7145725  16.8965515   8.0920232  10.7324825
  16.7934259   9.3304599  11.5965591  71.1840652  46.4796412  32.9738365
  70.8426605  47.1996463  33.5041938  71.1106394  46.7909491  32.0716606
  23.0742323  81.6306575  15.0332771  23.6111956  81.2899144  15.7486759
  22.9372906  82.5518496  15.2543579  24.0243944  21.0517705   6.7364059
  23.5942396  20.4076016   6.1740480  24.7367891  20.5675471   7.1538387
  80.1179276  19.4874347  43.4271751  79.3034636  18.9937556  43.5228668
  80.7418667  19.0320361  43.9924560  82.1360599  13.7251389   6.7796169
  81.4852487  13.2383311   7.2852836  81.6681205  14.5010007   6.4709030
  43.4675866  74.0452226  12.1414314  42.8384154  74.5972689  11.6770778
  43.9661806  74.6553405  12.6849304  11.5806898   5.0651896  33.4153305
  11.5514692   5.2756179  34.3486534  10.9915956   5.7002747  33.0080543
  77.2307728   7.3511756   9.7299324  77.1932744   7.1713365  10.6693397
  76.3994406   7.7840007   9.5355640  79.4767066  69.4291782  65.3011274
  79.7740700  68.6172771  64.8904896  79.2219236  69.9891329  64.5678043
   3.4481039  77.8045710  18.1982742   2.8058520  77.7875431  17.4887214
   4.2893925  77.6660545  17.7631984   1.5046724  49.7627604   7.7238737
   1.8156322  50.0269378   8.5897527   2.0704254  50.2339042   7.1121774
  43.5581081  68.6677320  25.2041755  42.7875047  69.1937955  24.9904953
  43.8636320  68.3364590  24.3596969  16.1954618  65.5306530  60.3661442
  15.6084418  66.2505102  60.1349592  16.8578446  65.5304098  59.6751451
  65.2932499  16.4541829   0.6291757  64.3396942  16.3778222   0.5955396
  65.6115644  15.5789054   0.4082904  60.6676763  76.9353993  38.9680896
  60.9836452  77.6358755  39.5388160  60.4480832  76.2204440  39.5654617
  41.4162725  75.5753978  11.1608348  41.3188558  75.3929766  12.0954261
  40.5477720  75.4119642  10.7930980  28.6092504   7.7472938  34.0234790
  28.4407171   7.5290025  34.9400936  28.3456739   8.6639846  33.9432083
  48.9540474  17.1196187  32.6042686  48.8036089  16.9550670  33.5351406
  49.7944664  16.7002738  32.4196754  14.8390993  43.7941325  42.7598034
  15.5101570  43.3719600  42.2234378  14.8557552  43.3127273  43.5869728
   2.4429348  29.8995852  46.8076229   3.0996859  30.4998875  47.1605349
   2.5983262  29.0759230  47.2698689  79.0547746  46.3242854  27.5872646
  78.2399457  46.0770942  27.1500240  78.7775081  46.6532298  28.4423385
  46.7794847  41.8702459  69.8531199  45.9064102  42.2620583  69.8316145
  47.2529697  42.3011255  69.1415119  73.4500354  22.0116835  50.2491903
  73.6160939  22.9435377  50.1066828  72.6637071  21.9891863  50.7945395
  78.3636706  80.9225948   1.3199459  79.1399663  80.6777294   1.8235765
  77.6722758  81.0150917   1.9754205  59.2749578  10.8932555  22.0155750
  60.1631619  11.0117019  22.3521648  58.7447959  10.7216227  22.7938400
  69.7216211  18.6119283  17.8670154  70.6704401  18.4996570  17.8089748
  69.3654488  17.9505599  17.2737537  61.1460386  22.2008908  10.7899891
  60.7831864  23.0324567  11.0950599  60.6011571  21.5340913  11.2079750
  32.2330403  53.1312943  61.3673735  31.9234562  53.5602617  60.5696440
  32.6966047  52.3536015  61.0566759  69.5826672  29.0047896  10.3161274
  70.5042885  29.2286885  10.1868473  69.5938371  28.0823720  10.5715881
  65.7650536  79.7048767  60.6247650  65.5198734  78.8637193  61.0102211
  66.6784351  79.5908530  60.3621517  37.7843841  18.0190385  15.8424411
  37.2445901  17.6709235  15.1327453  37.4439367  17.5971902  16.6313491
  66.3700877   3.6884988  22.4650989  66.6998099   4.2233336  21.7429767
  66.7802547   4.0609038  23.2456813  71.3483416  32.3122371  11.9382034
  72.3033784  32.3691953  11.9680629  71.1706816  31.5666259  11.3648449
  85.2164691  78.4225615   8.6018596  84.6274941  77.9443915   8.0181680
  86.0929339  78.1363376   8.3447204  10.7662106  39.3067169  64.5784998
  11.4195776  39.2596507  63.8805532  11.2098026  39.7665858  65.2912283
  36.7573714  39.7006655  65.4798222  35.8148956  39.5878458  65.3563738
  37.0297313  40.2564716  64.7496605  20.5866226  20.0341714  32.7510296
  19.7998508  20.4823506  33.0614505  21.1811956  20.0468982  33.5010658
  39.6649432  26.0749936  58.0624199  40.1662922  26.3188553  58.8405085
  40.3274536  25.9237027  57.3883152  77.8588961   2.6957620  22.0416198
  77.3199843   2.3514569  22.7538429  77.2286545   3.0475057  21.4128910
  75.0629293   0.4926026  65.3441558  74.7474955  -0.0094211  66.0956226
  75.7724677   1.0301650  65.6960235  53.2315724  55.7460340  23.6680542
  52.4115580  56.2389381  23.6972938  53.1165212  55.0510605  24.3161331
  12.8746065  34.6264756   2.3644434  12.3167117  33.8498319   2.4070249
  12.4958547  35.1552356   1.6621671  19.4539391  68.6923678   0.4189048
  19.0630972  68.4760673   1.2654768  19.3770289  69.6443851   0.3558288
  76.5598243  57.6691242  12.8588615  76.0899489  57.4575205  13.6655079
  76.5368932  56.8594165  12.3488842  73.7440818  75.7234104  50.0363479
  74.4686502  75.7005222  50.6614147  74.1671174  75.6954463  49.1781555
  18.3536132  18.9187634  47.1871601  19.0479263  19.4641602  46.8174301
  17.5693019  19.4655288  47.1409355  19.1662657  43.7234688  65.4396105
  18.3176744  44.1348648  65.2756643  18.9621854  42.9610634  65.9811974
  77.6510184  81.7914327  19.8384319  77.1411460  82.2521861  20.5047451
  78.3308785  81.3325961  20.3318916  38.7955271  75.4899509   1.5417753
  38.8046556  76.1032422   2.2766386  39.4234138  75.8543261   0.9179006
  51.8047421  80.8729275   2.8487287  51.9147103  80.0974806   3.3990226
  50.9374135  81.2074788   3.0768667  69.7772878  58.5652037   5.7891451
  70.7018703  58.7803681   5.9119402  69.7834628  57.8052719   5.2071701
  21.3728762  37.2586441  66.0631657  21.3289833  36.6196513  65.3518343
  20.6497169  37.0210433  66.6435242  21.9903922  50.9793043  69.8920202
  22.0096445  51.8642759  69.5277548  21.1168814  50.8967352  70.2746296
  47.2697037  79.5484360   6.5964876  47.8656798  79.7866066   7.3066412
  47.3370665  78.5954817   6.5367256  77.5328486  75.2958830  18.2151065
  77.3101371  76.1357625  18.6166511  78.3094161  75.4812820  17.6870857
  24.9514952  44.5780195   8.0309091  24.2948165  44.0521257   7.5743566
  25.7789206  44.1273756   7.8620325  80.3235589  12.3214448   8.8870178
  80.4722844  11.4048970   9.1195045  79.4588076  12.3271716   8.4766517
  20.1815593  76.7619617   2.8674589  20.5390292  76.4889057   3.7123762
  20.5336302  76.1282857   2.2423730  59.6047862  15.5679429  14.0483127
  58.7135490  15.2952111  14.2663417  60.1635726  15.0339663  14.6129928
  10.0418961  68.5317850  62.4960089   9.7775447  68.4326649  63.4106255
  10.1105654  69.4778585  62.3677158  10.2862120  60.3554821  60.7729959
   9.8903638  59.8563957  61.4874554  10.4122066  61.2327099  61.1347055
  35.2932435  76.7835362  21.9752918  35.4090279  75.9626110  22.4537311
  35.8972972  77.3941977  22.3977123   8.6535366  12.3890889   4.9645219
   9.1409262  13.1298316   5.3250585   8.5163887  12.6173318   4.0451036
  72.1308766  17.7183879   0.9721122  72.6292799  18.5022176   0.7409320
  71.2405549  18.0362714   1.1221491  12.0403083  32.1585286  28.4859691
  12.9955991  32.0984853  28.4931884  11.8040212  32.1060861  27.5598751
   4.3663803  32.3820376  59.4136620   3.6634874  32.1802616  60.0312853
   4.1551769  31.8681455  58.6342144  58.4490854   0.4261554   9.3025432
  57.8963591  -0.1030385   9.8775993  58.5064582  -0.0806987   8.4925829
  52.7967744  43.2283748   9.4128452  53.5075556  42.6595653   9.7086177
  53.1569029  43.6866057   8.6535345  84.5447622  28.9519036   8.5432516
  85.1598130  29.4757569   9.0565906  83.7016784  29.3899215   8.6597810
  75.5333124  23.7551272  45.3489719  76.2617718  23.8599503  45.9610115
  75.7658099  22.9855168  44.8294769  24.5538982  31.7497027  22.1806369
  24.6186288  31.6792548  21.2282310  25.2021488  31.1279357  22.5114093
  21.1212397  71.9279337  65.0473404  21.3478780  72.8186274  65.3147793
  21.1330938  71.9547939  64.0905905  84.2425524   9.3538583   2.8648935
  83.6164747   9.4319213   2.1450554  84.4683562  10.2576268   3.0850063
  37.3884862   6.8142347  46.7614412  36.8176907   7.4579554  46.3418531
  37.9864305   6.5360765  46.0676670  74.0181683  30.5639470  20.8142887
  74.7688495  30.4049313  20.2420841  74.3936037  30.6149209  21.6933189
   2.7403863  18.2943643  57.5189052   2.4780830  17.3794949  57.4166904
   3.5553964  18.2553685  58.0193744  66.6803544  76.4642318  10.5548797
  65.7282846  76.3701351  10.5242382  66.8259852  77.2610600  11.0648761
  21.1796316  29.5903457  42.7365337  21.9675811  30.0944341  42.5334011
  20.8055766  30.0283158  43.5010563  74.8287128  57.9026568   4.0261112
  74.1357564  57.3429072   4.3764291  75.3179739  58.1891978   4.7973095
  78.1944762  25.8249486   4.4663797  77.8386687  26.7117179   4.5236097
  79.0377556  25.8757317   4.9164186  73.9989208  19.3768514  23.6512409
  73.1987189  19.1453612  24.1227470  74.1838084  18.6135495  23.1040416
  76.9610022  21.6369164  44.5666824  77.9180692  21.6468347  44.5542179
  76.7160438  21.1615766  43.7727771  76.0614549  22.0303166   2.8181301
  75.7811938  22.8681291   3.1865774  76.4485072  21.5611136   3.5572277
  58.9965051   7.2698145  69.5549345  58.2067698   6.7629080  69.7436047
  59.6671885   6.6106634  69.3762016   1.2540515  26.2070239  27.2414432
   1.8017348  26.8902314  26.8547855   0.3615030  26.5446723  27.1667324
   2.3369583  54.9092925  39.0450035   3.0619748  54.8069442  38.4284721
   1.5566572  54.9516547  38.4922157   3.0021675  24.6073258  20.4633175
   2.1794852  25.0883449  20.5530296   2.9604300  24.2226136  19.5878254
  79.0387951  29.4940055  17.3063884  78.9841257  30.3119433  17.8005729
  79.7901951  29.0362132  17.6832996  65.5356167  45.6336081  44.2346416
  66.1774390  46.1321128  43.7288890  64.7463410  45.6405127  43.6931358
   5.0377782  20.5101407   2.3728977   5.9921177  20.5009377   2.2995268
   4.8594817  21.1013425   3.1042801   8.6813815  39.7980559  22.6482330
   8.0379661  39.6207583  21.9620739   9.1456636  38.9686692  22.7613102
  84.6861015  19.8741877   2.8965555  84.6849953  20.6996310   3.3811889
  84.6434032  20.1363099   1.9769369  78.1420320   8.8057737  45.6670046
  77.5248092   8.7364225  44.9386740  78.9655250   8.4666185  45.3162098
  52.4887245   7.0636682  62.0468140  52.8318279   6.3620596  62.6002216
  52.2843736   6.6349630  61.2157345  67.2911137  73.1192930  34.4387851
  66.5107768  73.3298691  33.9259945  67.8924792  73.8442619  34.2684589
  62.8915160  71.2076123   6.5005432  63.3236449  70.4022463   6.7849432
  63.5819953  71.8702014   6.5216051  20.5294323  66.2328243  68.3189535
  19.6181285  65.9888840  68.1569242  20.9670091  66.0960722  67.4786806
  72.4563287   1.7619479   2.0829759  71.5413998   1.4913476   2.0060859
  72.8368376   1.1450065   2.7081333   4.1412838  15.3288091  41.6903721
   4.2973836  14.9344838  42.5484882   4.9898132  15.2865231  41.2494217
  18.8062757   4.3792467  62.3445034  19.0305381   4.1046934  63.2336378
  18.7648170   3.5636072  61.8452597  39.7009211  58.5586162  40.2625118
  39.9370485  59.3727739  40.7070575  39.2780548  58.8422389  39.4519745
  67.1119253  11.1706269  41.2897239  66.2526606  10.7582009  41.2013946
  67.5263839  10.7071460  42.0174823  76.1336957  39.9831546   9.6470867
  77.0454668  40.2178061   9.4743477  75.6237768  40.6615317   9.2043529
  85.0040804  40.7076991  14.2646728  84.8677073  41.5539992  14.6906028
  84.7266756  40.0640166  14.9165569  79.2856448   9.5265894  39.9309015
  79.5564454  10.4252558  40.1187897  78.5121577   9.3901663  40.4780197
   0.1615842   9.4461787   5.7823120  -0.3256146   9.8246682   6.5141664
   1.0605725   9.3764842   6.1035524  12.3743614  49.5332873   9.9717556
  12.2971853  48.7577784  10.5275093  11.7201408  50.1410640  10.3164898
  76.9059299  46.4274085   6.9524036  76.3254701  47.1250022   7.2567974
  76.5508972  46.1752952   6.0999809  80.9967409  19.6344245   3.5328136
  81.8307482  19.4085706   3.9447008  80.4178368  19.8469079   4.2649017
  17.3166668  56.4982939  59.6821165  17.4989820  57.3165798  60.1440716
  17.1570730  56.7648077  58.7767267  48.6532932  75.2200063  30.1377617
  49.3392461  75.3718002  30.7878814  48.1336051  74.5028646  30.5008922
  17.7219327  24.7685349  35.3008400  17.5867685  25.7139552  35.3651558
  16.8598112  24.4180119  35.0769745  57.2318393  27.6864684  18.0086456
  57.2598804  27.9581082  17.0912300  57.6682497  26.8346131  18.0196605
  24.3070634  46.5114081  10.1036583  24.8573144  46.0083163   9.5033680
  24.8423274  46.6135467  10.8906112  63.1965893   1.9969397  58.1589603
  62.6056045   2.2792749  57.4609232  64.0719193   2.0840864  57.7815580
  12.8823503  33.2617152  19.1137062  12.4686988  33.0973733  19.9611221
  12.2623809  32.9133666  18.4729896  14.6719344   2.5188125  39.2209182
  14.9456676   2.2860396  40.1081215  14.4410833   3.4460652  39.2770134
  32.9715347  79.6994400  52.8003025  32.2264576  79.1365147  52.5900412
  32.6307607  80.5897999  52.7144957  38.5413965  23.3112777   6.6085086
  37.8056033  23.5152591   7.1857725  38.2267412  22.5883401   6.0657488
  25.1278472  77.0491123  61.7777586  25.8877802  76.8560743  62.3268175
  25.1150870  78.0040789  61.7136145  84.4718736  18.8787203  61.3267183
  84.5827907  19.6636515  61.8632030  84.5284598  19.1949301  60.4250336
  10.1065215   3.8813222  45.5970703  10.9174951   3.3766759  45.5347477
   9.4847973   3.2849801  46.0142742  71.5272989  59.4298172  61.8198204
  71.4693680  60.0094080  62.5793982  71.3846531  58.5529613  62.1761942
  48.4863997  49.7735548  68.9090919  49.4112349  49.9567127  68.7436724
  48.0393839  50.0594854  68.1124401  75.3216527  27.9561198  30.4190384
  75.1226614  28.1520188  31.3346038  74.6944724  27.2743047  30.1782070
  52.2898286  71.9078167  21.9872318  51.7648952  72.3562296  21.3242088
  51.6925090  71.2665542  22.3722301  29.8114761  11.3095725   2.6755462
  29.4088682  11.0866893   3.5148702  29.9834903  10.4643834   2.2604643
  12.3049450  54.1419840  45.9711266  12.1764183  53.3665180  45.4248953
  12.8730166  53.8432598  46.6812611  19.4448698  40.0952768  60.5491781
  19.5856225  39.7422981  61.4277124  18.9343226  40.8925533  60.6903458
  44.0278864  71.7120743  59.1283655  43.7808704  72.5752878  59.4601488
  43.1949902  71.2602520  58.9927959   3.6010559  33.0613959  35.0203262
   2.7936204  33.4861052  34.7306667   3.3140810  32.2233117  35.3829418
  39.8836136  67.6947641  60.6568861  39.3946886  66.9863367  60.2381802
  39.8084068  67.5162506  61.5942812  86.2396298   6.3836015   7.5750957
  86.7039357   6.3682473   6.7381893  85.9520875   5.4800570   7.7060876
  13.9571460  50.0896609  43.3549820  14.1418203  51.0171855  43.2072006
  14.1569312  49.6694243  42.5184951  32.5640281   1.4699948  58.2982383
  31.8545326   1.0139525  58.7508712  32.1781810   2.3025096  58.0257068
  49.5177668   4.7417574  45.7702494  49.1965597   4.0468245  46.3448143
  50.1775163   5.1983194  46.2922764  55.2386659  75.9275754   1.8420492
  55.0438588  75.2659352   1.1783348  56.0828870  75.6606706   2.2057567
   4.8689946  27.7080882  40.9079586   5.1612981  27.6155723  41.8147216
   5.3774746  28.4435571  40.5662475   8.5339612  63.3853674  48.8092566
   8.1601936  62.5083733  48.8953829   7.9034615  63.9583492  49.2455959
  29.1336950  51.3876307  26.4333664  29.1618617  52.3153079  26.1991630
  28.3599265  51.3046992  26.9907127  65.0682841  12.3431933  21.1923442
  64.3139134  12.0917952  21.7252193  65.3173922  13.2065833  21.5220962
  86.7216431  53.8656867  42.7056728  86.8581592  52.9470313  42.9373394
  86.4388786  53.8426936  41.7914806  56.8745222  14.8144448  55.1358925
  57.4680610  14.5593465  55.8422027  56.0921680  15.1351369  55.5845676
  65.7674544  71.4958795   6.8943391  65.8878892  71.6924961   7.8233562
  65.3243750  70.6474574   6.8845592  86.2067781  27.0302356   1.7540298
  85.6340014  27.7670539   1.5413032  86.7989408  26.9631541   1.0049806
  76.8908368  23.7131179  17.6021228  77.2965692  22.9188359  17.2546516
  77.6187824  24.3244136  17.7145610  55.4053801  66.8521221  45.4616867
  56.3504856  66.7107399  45.4067455  55.1530808  67.1293791  44.5809494
  49.5244122  69.8674536  57.4846411  49.1998196  70.6139469  57.9882431
  50.1665020  70.2450705  56.8835068  11.3887513  29.7425723  64.0314388
  11.4238739  29.0210772  63.4033918  11.2204647  29.3193030  64.8733139
  11.5925010  36.4867604   0.5338226  11.0157760  36.0190404  -0.0702156
  11.9942649  37.1717370  -0.0006213  33.8520622  68.8114405  60.2097416
  34.3225932  68.0478716  60.5441093  33.3005261  69.0916681  60.9401608
  30.9413942  54.1987575  32.8329692  30.6867202  53.6357081  32.1019779
  31.0299476  55.0693858  32.4451481  42.4150985  68.5424478   3.8366972
  42.6057117  69.4775041   3.7620817  41.8088334  68.4797485   4.5747648
  55.2249043  14.9236739  43.3996616  55.5304702  15.1045764  42.5107704
  55.3129463  15.7594169  43.8579307   9.1958912  52.4713195  30.4297958
   8.6472972  52.8104937  31.1370693  10.0170430  52.2298968  30.8583484
  77.7993761  57.4689639  27.5156818  77.4829911  56.9288505  28.2398449
  78.7346850  57.5769198  27.6882492  32.8142057   2.4852908  14.3828235
  32.2790991   1.8805993  14.8968731  32.1797024   3.0349601  13.9229236
  77.3299649  51.7348051  68.9200306  77.5756415  51.6493130  67.9988575
  78.1518158  51.9307709  69.3699121  14.9167808  15.4411424  20.3983436
  14.4728835  15.1662743  19.5960746  14.8035081  16.3913405  20.4212318
  71.9211505  27.9037488   7.6670871  71.6006063  28.1583083   6.8018232
  72.1766017  28.7286151   8.0800901  63.9335903  21.3776696  25.3289543
  64.7211631  21.7106355  25.7591663  63.2102378  21.7310727  25.8467422
  66.2982874  17.5418294   3.0152021  66.1169504  17.2306550   2.1283422
  65.5735825  18.1347669   3.2138477  10.6416457   2.1879320  63.1036472
  11.3657218   2.7514486  63.3764029  11.0008090   1.6673593  62.3851490
  16.5796407  18.9562762  17.8746067  16.0461553  18.9104522  17.0811782
  16.7281612  19.8921884  18.0096374   4.7753876   3.9520769  55.7571125
   4.4152372   3.1165628  56.0545063   5.4528873   4.1630964  56.3995266
   1.1773404  26.7032731   3.9405189   1.4853080  25.8068335   3.8071571
   0.5430373  26.8456281   3.2379375   5.1778992  70.3268969  60.8098255
   4.9733289  69.5497382  60.2898059   5.0365051  70.0527823  61.7159782
  59.1640680  17.3638945  52.2102022  59.6553724  17.0784311  51.4399052
  58.4421843  16.7390852  52.2789526  80.0462852   8.4845365   2.0288883
  79.2671166   9.0376056   1.9719444  79.7771345   7.6510680   1.6427265
  68.4571813  29.8241485  28.3027397  67.6715981  30.0223792  27.7930389
  68.7473403  30.6734002  28.6356197  11.9959148   3.6253941  31.1365734
  11.8009313   3.9559424  32.0134674  12.1582254   4.4113887  30.6149326
  31.8760061  73.9827585  67.6082659  31.1815000  74.6274948  67.7432156
  32.4858427  74.4099808  67.0067596  64.0849154  75.5821522  20.5713974
  63.2274740  75.4660924  20.1620613  64.7074001  75.5109222  19.8477493
  10.3821858   3.6487830  20.0066410  10.8839687   2.8955615  19.6950184
   9.5671709   3.6174834  19.5056377  48.2398921  61.9291456   0.0746427
  47.5300556  61.5350635   0.5816541  48.7705987  61.1859639  -0.2121748
  13.2362970  10.9441150  18.0429588  13.0270799  10.5131638  18.8716541
  13.8986715  11.5958894  18.2724796  14.5320733  27.3613465   8.4529434
  13.7417110  26.8573010   8.6465965  14.7440847  27.8002513   9.2767463
  30.2271255  28.4316838  15.8711849  30.0267919  27.5053370  15.7371078
  29.6904691  28.6866010  16.6216884  11.0296607  49.0746355  49.4026184
  10.1736403  49.3412876  49.0674210  11.1490297  49.5959711  50.1964617
  55.8570577  32.0065225  26.6261325  56.2416512  31.9728196  27.5020252
  55.5803862  31.1070216  26.4512478   5.1474851  69.8960876  68.2193136
   5.6814605  69.3615913  68.8070345   4.2803031  69.9041939  68.6244822
  46.4609839  39.2735668   3.2375690  47.1484400  38.6078950   3.2149097
  46.9334294  40.1060387   3.2328292  10.4691776  28.0046952  10.4116760
  10.6139406  27.1789849  10.8737121   9.6175011  28.3086455  10.7255207
  35.5289682  35.1545537  15.0870739  35.4954084  34.5241750  14.3675361
  35.4421886  34.6211064  15.8770977  31.6891122  45.3903294  65.7891846
  30.7976055  45.1289845  66.0197115  31.5764141  46.1600971  65.2315235
   1.3799363  32.7312112  67.4599314   2.1619138  32.7300763  66.9078970
   1.1873150  33.6582375  67.6004696  48.4831672  10.9436254  48.7024069
  47.8072589  10.5853682  48.1270552  48.0485468  11.6597586  49.1655397
  74.4945322   3.2369483   3.5474144  73.9625369   2.7924407   2.8873907
  73.8606595   3.5620177   4.1867624   0.6643763  18.6269407  62.0788574
   0.2500716  18.4851675  61.2276888   1.2031927  19.4084482  61.9557714
  79.6012007  39.5494712  55.1296840  79.7122561  38.6044276  55.0258194
  78.6710726  39.7011817  54.9621139  10.4821690  42.2876132  25.5397449
  10.2097281  42.1451819  24.6332584  10.1787289  43.1719554  25.7448993
  11.6637119  44.9872458   0.7497440  11.7778715  44.2846072   1.3896595
  10.7158597  45.1081908   0.6933675  36.9197517  38.4683351  68.0061960
  36.9171130  38.8386946  68.8888359  37.0994585  39.2143087  67.4339676
  28.4414323  32.4809325  28.1658493  28.3141931  33.3820022  28.4626995
  28.4131940  32.5371755  27.2107254  15.0996145  23.2801688  35.4966579
  14.3191179  22.9470170  35.0538574  15.5942901  22.4954808  35.7328640
  73.5693561  18.1560243  17.4346958  74.2458259  18.1815875  18.1114231
  73.4510337  17.2244180  17.2493778  70.4012953  40.1062835  63.8903556
  70.3496681  41.0149348  64.1868816  71.2013267  40.0705302  63.3660446
  41.4830380  75.9393127  24.1782604  40.7953160  75.2866896  24.3099914
  41.4241307  76.5076907  24.9461780  82.9927073  18.1330073  20.5134903
  83.5503875  18.0663550  21.2885891  82.6159392  19.0114701  20.5643306
   8.0213618  40.3588200  70.5123854   7.5983173  41.1304998  70.1358557
   8.3420992  39.8682928  69.7555923  23.9448547  55.8325434  60.0085735
  24.7236609  56.0325813  59.4892693  23.5421395  56.6849184  60.1744318
  82.1242517  79.7565539  31.2670837  81.7857402  79.1951235  30.5696331
  82.2387021  79.1684945  32.0136295  47.5484943  68.0534458  57.6959276
  47.2407055  67.8855467  56.8052483  48.4551239  68.3400869  57.5859928
  16.5421375   2.4059117  12.2650753  17.0783075   1.8456185  12.8261696
  16.9321378   2.3174060  11.3954197  54.4968176  70.9961224  51.0432434
  54.1096926  70.2081776  50.6617832  55.3837299  70.7325840  51.2885332
  23.9203858  78.6129713  68.1000185  24.3846083  79.1302204  67.4418497
  24.1910768  77.7106905  67.9301739  33.8316083  47.7411079  65.3729534
  33.8486171  47.2880459  66.2159729  32.9474783  48.1030369  65.3133535
  43.1556724  39.5704616  17.8061519  43.0002163  38.9082253  18.4795795
  44.0903936  39.5000995  17.6122985   9.9245751  56.8329477  42.8422165
  10.6860471  57.4092340  42.9076815   9.7341627  56.5839815  43.7466431
  41.0314560  79.2276430  50.0747490  40.1958084  79.6938705  50.0510979
  41.0361910  78.7037563  49.2736578  64.0696209  49.3014141  12.3681961
  64.5135420  48.9444001  11.5989719  63.4023159  48.6498316  12.5835548
  64.4094532   2.2854357  62.2629642  65.3527563   2.4444513  62.2293615
  64.3188756   1.3465528  62.1001005   1.1101731  24.7284234  49.0569816
   0.1766523  24.6939481  48.8482223   1.2175258  24.1076482  49.7776447
   0.0342282  27.3664964  22.6075588   0.8393391  26.9582427  22.9259334
  -0.4445140  27.6033700  23.4018741  41.7204957  81.6325982   4.0996824
  42.6367348  81.7729457   3.8608537  41.7121356  80.7741840   4.5231043
  83.4936088  28.3312063  64.0013170  83.7787908  28.5613661  63.1170511
  83.5701221  29.1462450  64.4973993  15.5402794   5.0365572  49.4633675
  14.9202719   5.3080778  50.1401949  15.9990111   5.8412676  49.2220306
  83.7664025  26.4659147  55.0862837  83.7457412  26.6512995  56.0251331
  84.4645064  27.0259790  54.7468615  15.0903686  45.8163608  35.5367218
  15.0137027  44.8632682  35.4923282  14.7082075  46.1258948  34.7155223
  70.5707925  23.0365782  62.5090504  69.7961801  23.4515696  62.1295881
  70.3053658  22.8017549  63.3982325  49.2574953  19.0748799   5.5975853
  48.4577952  18.7866223   5.1575647  48.9607976  19.3901694   6.4512811
  54.5966387  80.4528332  61.4790821  54.2433119  79.5863771  61.6806793
  54.0609169  81.0558128  61.9944906  75.8158194  29.8326791  14.2808376
  76.0767637  30.2480472  13.4588848  76.2162267  30.3745854  14.9607216
  16.6455444  27.0616305   6.3540159  16.0522588  27.2680247   7.0762621
  16.2548192  27.4909652   5.5929361  64.0401040  46.0826171  22.3556553
  64.2132281  46.8406737  22.9138694  64.7084408  45.4442084  22.6046310
  39.2841125  65.0793505  62.0958185  38.9160824  64.9343443  62.9674625
  38.7390518  64.5491123  61.5144539  49.2074721  10.6482248  70.7343006
  48.7803846  10.5485563  69.8834848  50.0930541  10.3111963  70.5987072
  36.2920125  37.6937879  13.0428825  35.4926809  37.2144854  13.2609878
  36.3701614  37.6093591  12.0926223  61.6413134  79.6789344  11.0474334
  62.3362654  79.4867762  11.6769920  61.2394612  80.4844912  11.3727413
  62.4431579  52.5534118   8.5685335  61.9976787  52.0169223   9.2242466
  62.0874979  52.2535956   7.7319608  11.2882102  67.0700979  57.6911116
  12.0646214  67.5916195  57.4875593  10.6182957  67.7156830  57.9161978
  64.8047321   6.8976049  61.8894863  65.2226036   6.2802439  62.4898815
  65.4662436   7.0635347  61.2178469  48.6060756  14.3106489  60.9942436
  48.6645525  14.2360907  61.9467402  47.6854771  14.5115309  60.8257914
  47.3841238  50.5164337  66.5264511  47.0828342  50.2651596  65.6533384
  47.4690151  51.4689875  66.4855957  61.3562243  42.9786425  67.2331905
  61.1458176  43.8980703  67.3963451  60.5952948  42.6387053  66.7623854
  16.9648638   9.1648893  54.9832869  17.7398482   8.6084967  55.0610542
  16.2922135   8.7109880  55.4909754  12.7912601  52.1056521  20.9356628
  12.3405155  52.3451579  20.1259075  12.7402862  52.8916133  21.4796291
  26.6816171  77.2373927  11.4599643  26.6923221  77.3263324  12.4129615
  26.0977014  76.4970649  11.2950550  65.8638668  71.1589622  55.2445412
  66.6481924  71.1671400  55.7931709  65.1646042  70.8695650  55.8306408
  63.8633841   9.6144800  61.3372374  62.9255789   9.6375303  61.1469126
  64.0748089   8.6822538  61.3871336  26.4975961  31.0020793  38.0613838
  26.2126668  31.8782580  37.8018699  27.3962434  30.9369386  37.7382408
  60.8974044  11.9381392  25.6553398  60.2721533  11.2739051  25.3653656
  60.3548992  12.6898110  25.8939014  22.2347393  10.6646471  57.2522545
  23.1779042  10.7607489  57.1201801  22.0484867   9.7602777  56.9999695
   5.5768903  47.7238334   4.0995250   5.8814700  48.5850585   3.8135753
   6.3782032  47.2144854   4.2207466  70.0769900  27.5254834  16.4071785
  70.8818041  27.0074332  16.3958965  69.3904136  26.8965638  16.6292225
  73.3169626  56.0797084   5.7913957  74.0456174  55.5619014   6.1337028
  72.5354849  55.6623137   6.1537586  24.6851850  64.5539141  67.8973436
  23.8988781  64.5472860  68.4431553  24.6050119  63.7711430  67.3522997
  52.3964866   6.3488496  56.8310867  52.2572311   5.4038108  56.7698608
  51.8354114   6.7182935  56.1492191  27.7011379  23.3046639  11.2497173
  27.3726209  22.6446069  10.6392799  27.5056966  22.9479325  12.1161876
  40.3306818  25.0950670  67.7164745  40.3059673  25.5709243  68.5466480
  39.4283295  25.1216316  67.3982239  24.1879829   9.2154515   5.5947862
  24.0357383   8.8012803   4.7453676  25.0022539   8.8232339   5.9099899
  19.8043418  65.3543139  37.3007369  19.4208825  65.5801964  38.1481862
  19.2436445  65.7916069  36.6599393  38.8476706  72.3752689  69.7718716
  38.1059575  71.9455242  70.1978064  38.4585094  72.8570652  69.0420389
  81.9050847  10.3588498  21.0505901  81.5706287   9.4682849  20.9444652
  82.1896087  10.4006350  21.9635711  19.9326690  44.1626990  19.4412265
  20.5205568  43.6828101  18.8578544  20.4346069  44.2737639  20.2486644
  15.3019555  38.4803498  24.3194996  15.1034149  38.4239638  25.2541862
  15.0781473  37.6159776  23.9745365   3.4578355   2.6914704  14.0726696
   2.8829392   3.3970559  13.7762294   3.4625920   2.7711785  15.0265346
   9.5469387  56.1774695  12.2882972   9.0403851  55.3674376  12.3472534
   9.0302833  56.7417109  11.7130314  74.7908400  42.7727950   1.5453706
  75.0096975  43.4818519   0.9407459  73.8399230  42.6860297   1.4785848
  67.8753045  75.3003597  63.6523342  68.4685078  75.2496910  64.4018507
  68.0428352  76.1627007  63.2721615  24.4333871   8.4195435  45.4300819
  25.0213035   7.7132905  45.6980167  23.6915143   7.9721559  45.0230060
  10.3005987  41.9855105  22.9071556   9.7608750  41.1955473  22.8773342
  11.1307579  41.7235647  22.5090919   4.9151424  42.7039862  65.4806423
   5.8306646  42.6405954  65.7527304   4.5339477  41.8604088  65.7241488
  85.3378363   5.1276453  11.0178123  84.9513360   4.5610412  10.3501258
  86.1864682   5.3811677  10.6547866  30.2914352  30.3340764  14.0915619
  29.4742215  30.0772341  13.6644493  30.5383278  29.5713706  14.6145855
  52.3390875  76.0664113  54.8014402  53.2682431  75.8877142  54.9462461
  52.2308341  76.0168506  53.8516760  70.3833287  54.4595607  17.6564918
  70.7896703  54.0579553  16.8884788  69.4745152  54.1601785  17.6307140
   4.4204482  61.7016029  63.9792585   3.6449912  61.1602020  64.1268587
   4.6770063  61.9958544  64.8532295  11.9848466  16.9269943  60.8681917
  12.5658119  16.4018142  60.3178310  11.3878834  17.3499703  60.2509689
  26.0177803  28.5911798  56.8315029  25.8054066  27.6597548  56.8913174
  25.2665377  29.0339589  57.2262287  21.8867874  30.2245092  59.6676302
  22.5180697  29.6325922  60.0767088  21.8548322  30.9817743  60.2522326
  70.2878365  64.4567235  57.2954559  71.1366639  64.0404100  57.4451494
  70.3460083  64.8063035  56.4062786  81.9626644  14.0397382  70.6436825
  81.4251056  13.2782161  70.4260921  82.3449692  14.3095231  69.8086452
  37.3896473  44.1533826   6.2839304  37.0633172  43.3625411   6.7132412
  38.3116596  44.2000930   6.5367971   9.8480278  11.3246799  66.2275982
  10.2707851  11.9217002  66.8449116   9.9706125  10.4565895  66.6118145
  15.9420335  10.4325485  52.8644085  15.6905985  11.2687027  53.2566547
  16.4782977  10.0060654  53.5328150  35.8098173  14.9189067  53.6595821
  35.6340861  15.1923919  54.5598888  35.8335471  15.7358980  53.1613922
  83.3125990  37.3536491  29.0810180  83.6978197  37.8394842  29.8102641
  84.0645882  37.0287466  28.5858583  60.7995718  61.1362942   4.1077076
  61.2151425  60.2782817   4.1934238  61.4171141  61.6506560   3.5877977
  37.7130055   2.5201190  44.0858364  37.7570462   2.8093842  43.1744528
  37.4666929   1.5966977  44.0323973  11.3929713  57.2292805  70.6692410
  12.2847390  57.4011946  70.9716129  10.9969079  58.0967093  70.5859470
   4.9276733  46.4806700  43.4420633   4.0144783  46.7000437  43.2571793
   5.4233295  47.2395086  43.1342983  16.2470758  32.8347611  62.6399374
  15.5431533  32.2867918  62.9870033  16.0185492  32.9636645  61.7193985
  38.9146256  59.0758677  18.0405841  39.1673558  59.6355505  17.3063408
  39.3096273  59.4925995  18.8064418  20.2435875  20.5509615  63.3534908
  20.1050019  21.3302016  63.8918304  19.4075727  20.0858998  63.3855772
  83.0955603  47.4521160  38.2145143  83.4154164  46.5529346  38.1410503
  83.4340256  47.8912306  37.4342275  17.5534582   1.8287887  14.6956491
  17.8617907   2.3124200  15.4619801  17.5622821   0.9122067  14.9713862
  86.0988747  12.7436078  22.5049911  86.3184010  12.0361484  23.1112419
  85.1953040  12.9732144  22.7219425   2.4438173  81.8377383  52.6351118
   3.1386024  81.2016141  52.4652529   2.8690631  82.5259992  53.1466722
  59.9930456  27.6067555  14.0030800  59.2245654  27.4394048  14.5486675
  60.4454960  26.7642510  13.9617382  20.6647181  81.0707124   9.9973522
  20.3656434  81.6831811  10.6694160  21.1785155  81.6084655   9.3948017
  30.7720637  22.6379967  21.7650032  30.0687170  23.2864738  21.7332172
  30.6756282  22.1400738  20.9532094  52.1363538  75.5387028  22.3294960
  52.4516695  76.0418303  23.0802761  52.6715057  74.7450788  22.3312126
  39.7140985  49.4892623  13.3687149  40.0140565  50.1777579  13.9622055
  38.7955313  49.7004087  13.2017265  76.5368828  72.8914316  61.5038633
  77.4886260  72.9646434  61.5749884  76.3974652  72.1840788  60.8742237
  15.0529521  38.7700604   2.8127990  15.3049129  39.1475640   3.6555563
  15.1807933  37.8280364   2.9245124  44.1158324  61.7066939   0.4096351
  44.5952671  62.5204332   0.5651985  43.5385793  61.6200335   1.1682544
  71.9793742  70.7423933  23.3620296  71.0374206  70.9097989  23.3315502
  72.3753207  71.6117747  23.4223018  81.9019845  11.5051937  52.8948259
  82.1653941  11.5416121  53.8143492  81.7452761  12.4183130  52.6542282
  70.3992984  73.5916330  48.2174730  70.9550748  73.2842172  47.5013447
  69.5433948  73.2010956  48.0410099  77.8874646  -0.2202069   2.9628311
  77.1944104  -0.4863917   3.5670267  77.9045640   0.7348979   3.0237804
  17.9917224   7.4541724  37.8555332  17.8891977   7.7600301  38.7567363
  18.0625614   6.5026772  37.9321228   1.0720411  20.6091976  50.2347422
   1.8087351  20.0072074  50.3401995   0.7981147  20.4953885  49.3246651
  65.0426331  74.0692027  50.3393269  65.4212901  74.9336816  50.4990959
  65.0786063  73.6310954  51.1896229  47.2283476  38.5282152  10.9355579
  47.7586298  37.7587710  11.1428962  46.3753050  38.3442648  11.3288913
  27.8781986  20.3690648  42.9833555  27.7014971  20.4789901  43.9176607
  27.0120049  20.3493261  42.5764751  57.4965037  55.1568050  62.7491617
  57.3854403  54.2992826  63.1597137  58.3672099  55.1217599  62.3530865
  29.5602608  18.0620158  44.0061665  28.9595914  18.7676907  43.7664795
  30.1512027  17.9856980  43.2570362  38.3425295  31.1055769  29.8657070
  38.1867551  31.3979931  30.7637344  38.2547873  31.8986447  29.3369518
  23.9455175  54.2425156  67.5844908  23.5262036  55.0834036  67.7670145
  23.2528138  53.5955095  67.7178335  31.2859463  59.2581637   8.6472974
  31.9321548  58.7098761   8.2022939  31.7692065  60.0473984   8.8918338
  44.8747080  73.5103257   1.2836109  45.3793304  73.1144674   1.9941650
  45.2029043  73.0854209   0.4911600  33.3866882  46.3315439  67.6837540
  32.9321837  46.0407877  68.4743977  32.8026843  46.0837984  66.9669628
  73.1143783   8.2349360  17.8679500  73.9614473   8.4836638  18.2378708
  73.0564915   8.7277377  17.0493923  77.7965542  67.5168610  49.6464348
  78.4227165  67.2508717  50.3197861  78.3172765  67.5771189  48.8455296
  21.3488256  47.5476225  14.9189697  20.7264339  48.1799813  15.2781139
  21.1792826  46.7414142  15.4063259  61.8462890  63.8092597  31.4632259
  61.1289328  64.3555124  31.1419235  62.4266785  63.7080057  30.7088218
  83.4706443  27.6996513   6.4912496  83.7934344  28.3260079   7.1391044
  83.0487626  28.2410915   5.8240972  12.4601460  35.1865053  64.3595171
  11.5880561  34.7928452  64.3863583  12.9354584  34.7647190  65.0753450
  39.7191072  29.3646574  69.0599251  39.5395207  29.0855074  69.9577284
  39.0861917  28.8822818  68.5279799  21.6890216  32.2453332  61.5550518
  21.7629433  33.1950855  61.4615917  22.4398971  31.9986343  62.0950127
  15.9882086  81.5710385   9.2478595  16.8834751  81.9021876   9.1766487
  15.6394082  81.9908078  10.0342212  44.7963315  71.7813356  18.4489284
  45.0358551  72.7009328  18.3340488  45.5944674  71.3647540  18.7739978
  25.0861096  65.5418952  22.4380050  24.8600649  64.8417242  23.0502926
  25.7418617  66.0628970  22.9014431  18.3666521  55.1346322   3.7698827
  18.3952575  54.5339497   4.5145927  18.7681406  55.9399660   4.0961872
  75.2773660  60.5908318   2.2576080  74.9523013  61.2998708   2.8124319
  75.0202220  59.7908695   2.7160535  25.3216385  76.9936140  39.0237461
  25.6134405  76.7385991  38.1485019  25.9035241  77.7125724  39.2702041
  60.7530212   8.9024019  39.0683103  59.9324846   8.5254198  39.3858576
  61.1237144   9.3462265  39.8310924  84.9635135   2.1533645  42.1586071
  85.3074370   2.5708020  42.9483543  84.3032132   1.5395701  42.4803005
  70.3135961  60.5753215  12.6109920  70.1554912  59.7347970  13.0408226
  69.9804013  60.4559477  11.7216335  70.8814090  74.1421421  15.0320945
  71.7644876  73.8006766  15.1728092  70.4649442  73.4997352  14.4575439
  52.0250290  72.3719104  16.3323055  51.0714214  72.2997983  16.3730846
  52.3082226  72.3225196  17.2453247  41.3160592  51.7805644   3.4008537
  41.4608555  52.7187713   3.2782493  42.1785944  51.3861843   3.2715164
   2.9312992  29.1916847  56.4004040   3.2161027  29.0516496  55.4973459
   2.9662380  30.1409817  56.5180874  57.8892057  70.2047189  22.0813690
  58.4670418  70.0510176  21.3338981  57.4185961  71.0080560  21.8590961
  43.0773347  24.3298908   8.9028965  42.2812706  24.2876656   8.3730589
  43.0042344  23.5889514   9.5044742  79.8925474  26.0386181  53.3223820
  80.3918317  26.8534446  53.2675838  80.5548682  25.3487229  53.2822752
  67.3355236  27.8133416  55.8935690  66.8853071  27.6803446  56.7277479
  66.7334774  27.4616909  55.2377367  20.6621670  67.6673325  25.3192936
  21.2327086  67.0173843  24.9090706  21.0437798  68.5101016  25.0736461
  64.3611813   6.8335831  54.9890852  64.0185595   7.6618254  54.6531439
  64.8072100   7.0710337  55.8020449  15.9188342  43.0479431  40.0909710
  16.5953994  43.5362148  39.6218395  15.2294660  43.6913967  40.2551889
  28.6857843  45.3759040  15.5486808  29.3441894  45.5588775  14.8784195
  28.8807832  45.9957905  16.2515007  24.3186715  53.9829524  10.3881202
  25.0486275  53.5864730   9.9125229  24.4484877  54.9255355  10.2836357
   8.9679724  52.8218746  53.0657291   9.6455675  53.3151770  52.6034021
   8.1895643  53.3763790  53.0124187   7.9697552  66.7457421   8.2046590
   7.1785584  67.2395356   8.4200941   7.8020897  65.8657153   8.5418163
   3.4365973  52.8269482  69.2197227   2.6527375  53.2264757  69.5967770
   3.2599321  51.8864298  69.2410040  37.1444421  70.9930737  19.7394119
  36.2818896  71.3806994  19.5911441  37.3370975  71.1816342  20.6578670
  77.0951661  44.2279625  49.5120525  76.9387307  43.3134413  49.2766476
  77.8689459  44.2014122  50.0748920  17.0296168  56.7455864  48.2880259
  17.8786480  57.0374918  47.9561090  16.6290522  56.2861013  47.5500154
  42.8724688  29.3275972   5.9959541  42.5372141  30.0638838   5.4843698
  43.4379023  29.7312148   6.6544471  79.0754577  25.6536841  56.1111927
  78.2396295  26.0491180  55.8636951  79.7214552  26.0933518  55.5583715
  26.3958334  62.4600490  27.3015152  26.8524123  63.1227215  26.7832122
  26.5575858  62.7134211  28.2102905  12.6757925  78.2056768  34.5100151
  11.7319601  78.0476196  34.5307766  12.7942186  78.8583405  33.8199173
  66.4678305  68.0584629  13.7375866  65.5470436  68.1406172  13.4893261
  66.6252440  67.1146901  13.7648903   0.4188999  18.0302251   4.9130617
  -0.1075451  17.2380031   5.0201498   1.2732728  17.7124036   4.6210609
  39.1147392  80.3625758  29.2435203  39.7820681  81.0468896  29.2947231
  38.9665049  80.1040562  30.1531540  15.3228467  46.4481707  32.8670536
  15.9429698  47.0745941  33.2402549  15.8683293  45.7214101  32.5662265
  27.8873023  48.4512104  23.4721408  27.4541304  48.1381233  24.2662178
  27.3134119  49.1430529  23.1431423  66.1025184  47.3824676   5.2927862
  66.1527055  47.0467176   6.1877666  65.1818698  47.2823371   5.0506912
  59.3661145  72.7757580  51.9177914  59.0089660  72.5246758  52.7696371
  59.9213019  73.5328002  52.1045685   0.9909986  33.7579656  37.2524619
   0.1329170  33.8970995  37.6531720   0.8618031  33.0164218  36.6611457
   1.2587216  23.1113195  59.2036343   0.3108032  23.0648446  59.0790415
   1.5904614  22.2980452  58.8231564  83.8976413  14.2187059  59.9809790
  83.5530176  15.0707233  60.2484322  84.1043072  13.7750006  60.8035612
  38.9447754  75.8002408   9.4260536  38.8135283  74.9818428   8.9472757
  39.0708297  76.4594348   8.7435566  30.7130358  79.1699202   0.8445249
  29.8107701  79.3968089   1.0696254  31.1190067  78.9436777   1.6813264
  24.8624086  18.6597514  49.8603964  24.7720528  19.6094561  49.7821093
  25.2483654  18.5264337  50.7261276  37.1907412  59.2797502   9.7993694
  37.1494966  58.8026197  10.6281505  37.0866113  58.6046000   9.1288791
  57.0878363   3.4424734  42.5965738  57.6811361   2.7209303  42.8053856
  57.6549864   4.1200447  42.2285175  50.1259463  76.1579521   5.8773361
  50.2784818  75.3527577   6.3719307  50.7192128  76.7972954   6.2716852
  62.7081372  23.0623877  42.6016937  61.7619129  23.1750501  42.6922451
  62.9020073  23.3679259  41.7155300  80.9469327  12.2515142  39.9539185
  80.2048060  12.3374474  39.3555069  80.6373658  12.6324916  40.7756567
   9.7992462  41.7694902  67.6841068   8.8778675  41.5922308  67.4947071
   9.7803771  42.3397160  68.4526873  47.2615808  61.7766364  18.5797535
  46.4779764  62.1845086  18.2111965  47.5590008  61.1717947  17.9000984
  38.3125108  47.2180511  37.2045646  39.0079027  47.8756912  37.1914707
  38.7484729  46.4034696  36.9543110   0.0814177  17.9655516  59.2978191
  -0.6954227  18.1303310  58.7634039   0.7683557  17.7581501  58.6643076
  56.6262525  66.8282397   2.4833379  56.7989176  67.0861967   1.5778671
  57.0125621  65.9559687   2.5616966  64.8676549   1.1151326   8.4506832
  64.1946785   1.1162770   7.7699981  65.2128689   0.2223695   8.4446893
  71.0383990  37.0457458  29.4045115  71.3568022  37.6815772  28.7637544
  71.8000105  36.8558693  29.9523497  74.5184913  21.1422348  64.6062183
  74.5912829  20.7737494  63.7257957  75.1806131  21.8329954  64.6322536
  66.4634278  63.2542753  69.9896526  66.3739779  62.3573256  69.6676111
  65.5745628  63.6083889  69.9621725  32.0925379  58.5790062  63.4173822
  31.4282942  58.2578278  64.0271807  32.2887921  57.8267431  62.8589821
  52.0134466  75.0498422  13.0640350  52.5558084  75.2215727  13.8338314
  51.1472338  75.3797610  13.3029113   2.0993908  25.6453097  23.3269249
   2.9881032  25.8393729  23.6248432   2.2165163  25.0050939  22.6250396
  23.9813089  35.1518106  12.7441752  23.7800002  34.4507456  12.1243262
  23.4663272  34.9386597  13.5223722  21.9114995   4.7026500  63.5866451
  22.4839258   3.9389253  63.6593390  21.2674665   4.5866147  64.2852068
  21.7770623  71.4690407   6.9383941  21.5857177  70.6311901   6.5169321
  20.9262513  71.7828544   7.2447811  63.6171733  15.0899661   2.9758392
  64.5110814  14.7528041   3.0348621  63.6963277  16.0182536   3.1954895
  84.8227849  19.2471552  58.4783077  84.9474291  20.1960945  58.4638119
  84.4414627  19.0426075  57.6244974  41.8793612  48.6898376   1.7416177
  41.6253977  47.9078616   2.2317682  41.0799962  48.9589490   1.2890421
  66.0216644  43.7227440  67.0859909  65.2252486  43.2836723  66.7873812
  66.0852602  43.4981966  68.0143023  68.0397287  67.7113008  31.3245392
  67.7794769  68.0826092  30.4815483  67.7179232  68.3384705  31.9720960
  13.1209671  27.0934606  67.9268885  12.8529167  26.5187430  68.6438847
  12.7591169  26.6819882  67.1420431  23.2235014  63.8985856  15.4243980
  23.5793185  64.1373427  16.2803302  23.9712798  63.9561565  14.8296295
  28.1064129  14.7859037  24.4950628  27.3469663  14.3888998  24.0686131
  28.2968807  15.5631661  23.9698815  47.0032423  43.1439772  14.1353737
  47.5038200  42.8928287  13.3591209  46.5069418  42.3583214  14.3648658
  65.4013746  37.3584969  22.2360836  65.1549643  36.5927188  21.7173420
  64.6153634  37.5694539  22.7399860  21.4943910  29.8241377  69.3144083
  22.0759177  30.5030489  69.6566629  21.2967062  29.2737603  70.0721931
  33.6627245   5.6152219  62.9249525  33.2150674   5.4645014  62.0924187
  33.4903240   4.8245487  63.4361744  81.6633663  73.9595224  70.5624628
  81.3656745  73.0603404  70.7006073  82.5091252  73.8670988  70.1238489
  17.9254484  18.1168246  68.4585333  18.3222961  18.5947096  67.7302694
  18.4064651  17.2899783  68.4928799  60.8278840  57.4445851  -0.0267043
  60.3445929  58.0764325   0.5056797  60.8082288  56.6357429   0.4847847
  83.6724505  80.9911591  16.6943288  84.1154084  81.8389111  16.7308891
  84.3468175  80.3812633  16.3951838  21.5476370  42.6456785  61.8708277
  22.0766187  42.5532579  62.6632118  20.6842399  42.3155212  62.1193790
  21.5838820  74.0409894  67.6727819  22.0086677  73.1859590  67.6041555
  22.2905213  74.6713914  67.5331879  19.8217758   0.7241643  23.9426838
  19.9951299   1.6043914  24.2764221  20.6277641   0.4768289  23.4894310
  67.0038908  74.9070795  18.7464271  67.2518652  74.7776635  19.6618496
  67.6038402  75.5819519  18.4288726  36.5780258  20.0894451  59.4323397
  36.0413742  20.8093166  59.7640324  36.0118890  19.6370745  58.8069725
  46.5414696  41.4612221  18.1831966  46.1651879  40.6712451  18.5712467
  46.6925424  42.0447347  18.9267860  59.8643071  12.9584372   9.0714870
  59.6707143  12.0590461   9.3357788  60.5314986  12.8697360   8.3908878
  85.6935860  38.4042645  62.3945570  85.8277627  38.1244564  63.3000612
  86.5169445  38.8267064  62.1499014  34.0863644   7.4658549  13.1866394
  33.5879837   8.2176555  13.5070072  33.4251033   6.8785918  12.8204570
  67.9013405  75.8761520  54.8764849  67.9386017  74.9926533  55.2429152
  68.6724112  75.9341623  54.3122864  70.2799462  21.2290061  15.5176960
  71.1817490  20.9109414  15.5603443  70.0208651  21.0930312  14.6063171
  83.6229598  46.1161327  63.4251690  84.0781125  45.3241062  63.7111139
  82.9139623  46.2268591  64.0586472  56.2318610  26.3235486   9.5876728
  55.5992152  25.8777011   9.0244613  55.7044637  26.9313491  10.1060043
  80.1128289  35.3658605  64.7198820  80.0258001  35.3782654  63.7667227
  79.8057642  36.2282205  64.9996662  22.6299905  44.3931706   6.0079990
  22.0261376  45.1342242   5.9586750  22.0813596  43.6259012   5.8451114
  11.9017880  75.5317243   0.2457128  12.6009982  75.3231438   0.8652530
  11.5532403  76.3693006   0.5510173  23.2940435  51.1735392  63.9215040
  23.7079954  51.9079351  64.3748713  24.0260720  50.6486034  63.5977650
  12.0548042   7.0749677  20.7421814  11.4631208   6.3225568  20.7474361
  11.7823108   7.5886500  19.9818550   8.1611985  45.2922869  66.9107103
   7.3953831  45.8308125  67.1100760   8.5182565  45.0572586  67.7671576
  72.9120658  14.4471276  32.0747696  72.5385116  15.3283322  32.0619617
  73.8359700  14.5816815  32.2857891  31.4235687  24.3576288  53.6447620
  31.6456151  25.2317953  53.9653206  30.8014154  24.5139194  52.9343176
  41.0965048  20.4037869   6.8513570  41.7954801  19.7971166   7.0955167
  41.0105263  20.9863341   7.6059948  22.7371525  40.6602629  25.7671390
  23.2542812  39.8611902  25.6656871  21.9589942  40.5117899  25.2298675
  12.3174047  37.5082994  57.2359371  12.6842928  37.0390606  56.4866447
  11.7618561  36.8633842  57.6737595  74.0988248  41.2957678  27.8133808
  73.6725801  40.5613405  28.2551513  73.6152308  41.3953398  26.9933544
  42.7385526  80.5077489  13.9519916  42.5463431  80.1981647  13.0668674
  43.0998402  79.7429355  14.4000564  21.3690662  50.4873180  66.0757828
  21.5580344  51.1574221  66.7326593  21.5921402  50.9001207  65.2414799
  47.2519868  76.5763576   6.8969331  46.9071250  75.8770545   7.4521576
  48.0595367  76.2154706   6.5310703  49.5323055  62.1276911  35.3603588
  50.3327792  61.7397745  35.0068126  49.1609567  62.6197751  34.6281086
  11.4851916  29.8617125  49.9081564  11.7539811  30.5319571  50.5364561
  12.3073173  29.4957256  49.5819759  44.5200609  11.7394936  33.0740677
  45.2170120  11.5271819  33.6948906  44.2405151  12.6212657  33.3201633
  25.4142644  42.0366459  10.4231392  25.4632913  42.9828188  10.5594669
  24.5194545  41.8845055  10.1191650  80.5932420  50.2499773  37.1608959
  80.1822179  49.5964934  36.5949855  81.5330451  50.1106639  37.0442997
  59.9961966  52.9495604   3.8998256  60.9294837  53.1589897   3.9365183
  59.7882789  52.9451151   2.9654918  57.5213378  80.2522953   8.5061155
  58.4610098  80.0704201   8.4931121  57.1103185  79.3993195   8.3656583
  52.9180720  39.4762611  54.2135286  52.0381739  39.3265367  53.8677073
  53.4800484  39.4940996  53.4388685  14.8110795  28.8682890  64.1387367
  15.6023645  28.7733746  63.6085558  14.6873295  29.8142147  64.2171192
  86.6898210  35.0473022  58.4214067  87.1880187  35.4684472  59.1218805
  85.8307589  34.8767781  58.8076258  24.4644380  49.1338921  68.9455986
  24.4188213  48.2264280  69.2466974  23.5541725  49.4298553  68.9382648
  49.1620057  65.9191878   6.4821230  48.2425612  65.9961493   6.2273012
  49.4667786  66.8236192   6.5552793  82.3669189  78.1874140  23.8646351
  82.3406117  78.0298288  22.9208599  83.2951491  78.1302269  24.0912281
  30.9340644  10.8849108  34.4901586  31.5190578  11.0372794  35.2323151
  31.2805891  10.0979257  34.0696764  65.9345150  33.1479049  53.5908079
  65.9276533  33.8514185  54.2398500  65.0106335  32.9979444  53.3903599
  25.2377105  49.8172045  59.9259186  25.6021142  49.8068905  60.8109808
  24.5788193  50.5112362  59.9462605  24.2933512  38.4628487  54.0461063
  24.2334390  38.3036661  54.9880743  24.8868346  39.2096400  53.9666700
  14.4194961  57.0649147  61.5411329  13.9619184  56.2675905  61.2744379
  14.8802376  57.3517656  60.7526779  13.0303919  22.3185730  56.7160368
  13.9475632  22.1982574  56.4699602  12.5358033  21.9349885  55.9918308
   4.8840541  45.6334543  35.9725165   4.7014126  45.1214409  35.1846647
   4.4046590  45.1826382  36.6676259  64.7462116  19.8331798   2.9224764
  63.8463180  19.5576060   3.0970703  64.7246455  20.7867206   3.0032430
  81.0880497  19.2088175  47.0129776  80.5393734  19.7133732  47.6134872
  80.7251802  18.3235884  47.0434332  53.7596004  74.0013249   3.6104618
  54.6992105  74.0598805   3.4374366  53.5531657  74.8056062   4.0866409
  21.5015936  43.1868982  58.4903049  22.0872641  42.4457932  58.6451769
  20.6378841  42.8685331  58.7527609   4.0843573  18.2954752  62.7830601
   3.8213247  18.9931846  62.1828556   4.0237376  18.6917651  63.6522627
  17.1229970  15.1644504  62.5249481  16.9494677  14.2268467  62.4411774
  17.1499693  15.3196168  63.4691048  45.1150542  79.7959049  21.9097362
  44.5937412  80.2843888  22.5468002  45.3537004  78.9881571  22.3645149
   6.8588454  51.3566346  50.4213047   7.5899059  51.8497558  50.0489902
   6.2934000  52.0237894  50.8104181  62.9162853  67.8935655  20.1712261
  63.7048786  67.3689564  20.3095756  62.6712554  68.1931336  21.0466991
  73.7753916  17.4002934  62.4873686  73.8492346  18.3145845  62.2137785
  73.1324005  17.4136186  63.1963253  -0.0922965  24.6487522  70.4024935
  -0.4224797  25.2271318  71.0900211   0.7709010  25.0016737  70.1866961
   5.4196411   3.9189276  60.4167318   5.5381948   3.0965242  60.8919477
   4.7724253   4.4015378  60.9309578   0.0433033  59.6273179  23.0441414
   0.4611962  60.1672991  23.7149749   0.2913707  60.0390823  22.2163997
  14.7215325  62.6205785  43.7886000  15.4048736  62.0110483  44.0674257
  14.7082955  62.5453944  42.8344488  38.1424260  31.5503716  68.1274176
  38.8358021  31.0197878  67.7350664  37.9457140  31.1128712  68.9557505
  85.1811111  53.5705042  31.0946488  85.8945877  54.2070484  31.0499883
  85.6191866  52.7194357  31.0963058  29.6633959  40.4182577  39.5689726
  28.8491750  40.5196285  40.0619221  30.1217556  39.7019196  40.0082922
  12.3349428  11.9758761  51.5871048  11.4229560  11.9454765  51.2979889
  12.6237321  11.0635459  51.5650511  57.5285721  23.5252118  47.5062799
  56.9421244  22.7769279  47.3949766  56.9562292  24.2897367  47.4418259
  76.6383150  33.9857745  56.9392967  76.9005051  34.3663096  56.1010361
  76.3352528  34.7318816  57.4567032   3.1765445  36.0867274  15.4761634
   3.6391385  35.3824389  15.9302745   3.7950405  36.3899434  14.8115192
  61.4993065  79.0702613  25.6346355  62.0130866  78.3551557  25.2592884
  62.0834535  79.4734676  26.2768493  21.6877174  17.4285686  53.7784290
  21.4401722  17.2206509  54.6793842  21.6280508  16.5932691  53.3148050
  16.3751927  77.7333386  18.6784301  16.4054480  78.1114133  19.5572792
  16.0090819  78.4281738  18.1312595  75.9144061  77.6240428  29.8588215
  76.2059873  77.0049723  30.5281196  76.1641400  78.4822782  30.2013145
  19.1187715  75.0560077  11.8799148  20.0745403  75.0610431  11.9319950
  18.8309949  75.3992231  12.7258621  36.9985908  66.0551818   3.1569467
  37.8870546  66.3243659   2.9237018  37.1078753  65.1960834   3.5646663
  44.2599087  66.1973508  28.5504947  44.8485129  65.7889255  29.1852890
  44.8174446  66.8029888  28.0620418  19.5490723  18.0274113   9.2452179
  19.7352689  17.1117194   9.0376888  19.5111840  18.4630568   8.3937488
  72.0397847  39.5467357   6.0897861  71.6242307  40.4090269   6.0901294
  71.6451400  39.0909726   5.3463016  20.9580112  63.1124210  65.7291889
  20.2797365  62.5765800  66.1403465  20.6413651  63.2568884  64.8375082
   2.0884781  59.7487545  59.8148632   1.7752302  59.7192955  58.9108515
   1.6508800  60.5103493  60.1952791  31.4533186   9.9352115  61.7235184
  31.5073276   9.8070389  60.7764769  30.5155826   9.9164921  61.9146585
  53.2714098  46.9096656  11.7920528  53.6024826  47.2462441  10.9593807
  52.3316854  47.0899572  11.7666183  13.6288040  50.1667185   7.4160228
  13.2112544  50.3598763   6.5766321  12.9995518  49.6094008   7.8739200
   1.7167303  15.0103128  52.3782396   2.4052532  14.5310175  51.9173241
   2.0104185  15.9212768  52.3670721  33.5474832  74.6884985  62.5143003
  34.0393121  73.9572300  62.1406937  33.9697511  74.8555071  63.3569336
  47.8628295  70.0168188  18.0183540  47.4341076  70.1918157  18.8560901
  48.3016270  69.1755946  18.1449733  25.0068784  73.4833574  70.4693747
  25.4457951  72.7070808  70.8171892  24.0801287  73.2448530  70.4474068
  25.5759978  20.3385639  41.4815998  25.5124044  19.3835330  41.4919043
  24.7669196  20.6369758  41.8970203  31.2492450  16.2318862   5.9417091
  31.8932231  16.4018071   5.2542148  31.0997566  15.2872765   5.9016929
  22.4449611  48.1317425  60.0063801  22.9651332  48.9308357  60.0906610
  21.5769577  48.4376192  59.7432470  78.1698933  35.3457332  26.2258649
  78.0314579  36.1065173  26.7900229  78.6969408  34.7475004  26.7555523
  56.3819292  46.5521955  47.0621490  57.0280984  46.6068602  47.7662182
  55.5368688  46.5575695  47.5116777   1.7907276  75.5653460  25.6288849
   1.1094132  76.0878809  25.2057968   2.3228970  76.2043174  26.1029564
  41.8728071  74.7727402  18.1315456  42.0338779  74.3240793  18.9616047
  42.7436262  75.0181849  17.8190361  15.7256308  70.4243238  24.5093761
  15.5830088  69.4886978  24.6525322  16.1845389  70.7197245  25.2957473
  74.9456512  38.8580954  45.5084739  74.8347925  38.0022681  45.9225975
  75.6016634  38.7112773  44.8270546  25.0899529  28.0828023  68.5363817
  25.1426864  27.6751661  67.6719284  25.6141829  28.8798141  68.4577370
  22.4233341  33.3272195  66.8334579  22.8163171  32.4556637  66.7866898
  21.5624499  33.2238579  66.4279604  34.8181510  40.6626129  69.6717501
  35.6161427  40.3802109  70.1186132  35.1299977  41.1718750  68.9236641
  12.7587732  11.7169011  31.0294948  13.3252605  12.4838746  31.1136280
  12.4838241  11.7216456  30.1126419  10.6242951  17.1478331  33.9012848
  11.4431556  17.1552098  33.4056602   9.9402531  17.2101415  33.2346283
  63.0816024  79.9235208  13.7015663  62.9907458  80.8263667  14.0062748
  63.9430087  79.6498998  14.0167556  64.6333235  80.4015811  43.9185939
  64.4519775  79.5041497  43.6393676  63.8093155  80.7050045  44.2996154
  16.9090207   5.1531995  14.1336094  16.4608558   4.9511207  13.3123050
  17.6026853   4.4965470  14.1957985   9.3842810  62.2786379  68.6524010
   8.8241136  61.7772770  69.2449236   9.0942621  63.1847143  68.7579727
  75.3465264  58.7185677   9.0514026  74.4971793  59.1594573   9.0299259
  75.1362412  57.8022368   9.2312656  63.9884500  20.6767476  35.2188621
  64.1365586  21.5368569  35.6119381  63.5336439  20.8638060  34.3976532
  24.1374191   1.2341559  13.3040748  24.0297206   2.1715033  13.1427799
  23.8069328   1.1045659  14.1930233  49.2772668  77.9900988   9.1131817
  48.4631949  78.4077676   9.3943821  49.9264114  78.6932810   9.1327224
  85.1372634  12.4487842  11.5648113  85.1520024  11.5034879  11.4150653
  84.9318110  12.8237689  10.7084213  82.7721678  27.6233113   0.9680210
  81.8182503  27.6852715   0.9186874  82.9847680  26.8191684   0.4943262
   6.5796387  55.4819965  61.7017460   6.3490593  54.5537853  61.7404127
   5.7547629  55.9405565  61.8615437   2.7175409   1.3165666  68.0981302
   2.8943396   1.8951963  68.8398600   2.1522972   1.8313585  67.5221777
  84.2913070  57.7179050  43.5845947  85.2196282  57.9165411  43.4621429
  84.2646214  56.7703438  43.7174511   8.8375815   5.9900296   4.5554100
   8.0687340   5.6482041   4.0990482   8.5556968   6.0793269   5.4657922
   9.4149524  61.7014217  54.4809008   9.2549026  60.9434414  53.9186907
   9.6925056  62.3918533  53.8788176  80.0343698  82.2757323  22.3167549
  80.8641236  82.3231919  22.7916084  79.8617452  81.3382991  22.2292839
  19.3264230  20.8572972  15.5623565  19.4072231  19.9387515  15.3054939
  20.0628312  21.2919486  15.1322208  80.8038460  18.1086457  14.7282730
  80.3631602  18.9498675  14.6083961  81.6461001  18.2142985  14.2859111
  83.8310617  53.4447177   6.3074289  83.8783210  54.1612061   5.6744657
  84.2115920  53.8066252   7.1077095  18.8065553  38.6010885  57.0506907
  18.4229004  37.7479410  56.8477678  19.7127330  38.4055948  57.2891378
   8.7266835  45.0098956  16.0062347   9.4767197  45.5817473  15.8429752
   8.3957132  44.7941649  15.1343666   2.5373371  19.2036689  23.6257110
   2.5153621  19.6943009  22.8041111   3.2149800  18.5411799  23.4910141
   5.0171345  52.7650118  60.5867672   4.8412377  51.8817425  60.2625370
   4.1516113  53.1635475  60.6777239  62.0112174  66.9336660  17.3400055
  62.1601170  66.4055069  16.5557132  62.7272909  66.6953118  17.9287849
  71.6552816   9.2605126   0.4453502  72.5794064   9.4588721   0.5966030
  71.2134431   9.5562470   1.2413107  48.8300419  74.9431896  57.2823572
  49.1165733  75.8491611  57.1668100  48.0640697  75.0051737  57.8530407
   4.2478287  24.3694544  50.5369997   3.4949210  23.7908435  50.6577110
   4.7911707  24.2200875  51.3107586   6.0408139  47.4287796  67.0060635
   5.8497286  47.5986195  66.0836363   6.8229729  47.9495430  67.1884584
   4.2420897  55.5218077  58.4866285   3.4143662  55.8434057  58.1293058
   4.0356046  55.2808666  59.3897009   3.8448723   0.3526032  29.0718780
   3.3094891   0.3666079  29.8652206   4.7464617   0.3215087  29.3918739
  19.6176898  56.3518715  62.9876661  19.6139598  56.2194443  62.0396805
  19.0919185  57.1404839  63.1214094  84.7788354  43.9525080  61.4422035
  84.6625876  43.3123112  62.1442509  84.0195044  44.5304871  61.5169668
  78.6922606  64.3578577  39.8309755  78.1860545  63.7379217  40.3560114
  78.1123659  64.5857763  39.1043329  39.8167682  13.9595032  65.4224730
  40.1426935  14.8578036  65.4777908  39.8685217  13.7428367  64.4915581
   4.2870983   7.4543536  32.0038639   5.1584562   7.0760501  32.1215854
   4.3370088   8.3087314  32.4325596  35.8201599  59.0713358  62.9325056
  35.1389551  59.6858978  62.6595402  35.4291320  58.5881805  63.6604404
  30.6710935  51.9315529  66.5147543  30.0463462  51.2400103  66.2963676
  31.1289072  52.1089649  65.6930733  20.9017833  12.3853314  20.6496368
  21.2953838  11.5289319  20.8166156  20.5056699  12.3018563  19.7822509
  54.3644016  57.7673741   1.7584549  55.0650113  57.5421746   1.1463581
  53.8945835  56.9451244   1.8977724  81.0128107  69.1315651  58.7723064
  81.7698618  69.5741320  58.3885860  80.4659149  68.8985777  58.0220699
  63.7242630  42.8915882  65.9081364  63.3573964  42.0261431  65.7274437
  63.1225112  43.2788515  66.5438652  59.0196555  75.3025039   9.0941177
  59.8273891  74.8785980   8.8041149  59.2964499  76.1710937   9.3859611
  81.4162813  32.8545678  15.0419078  80.9202825  32.0359004  15.0436245
  80.7538806  33.5356868  14.9255882  46.1210101  52.0329423  28.7798153
  46.1353295  52.0289035  27.8227268  46.2540489  52.9505761  29.0174709
  17.3916426  76.4408191  22.4350582  17.5722590  76.3551004  23.3711467
  16.4870110  76.1435779  22.3374782  33.3839703   1.3158658  63.5423279
  33.6596298   2.2117376  63.7363863  33.7280941   1.1439300  62.6658344
  34.3066423  56.8216212  12.0314632  35.1708787  57.2275145  11.9638000
  33.7462550  57.5097723  12.3901306  72.6911583  27.3806238  56.9647074
  73.2024756  27.2293258  57.7596235  71.8948653  27.8145361  57.2710896
  57.7021807  45.7649906  18.2090507  57.4523824  44.8504116  18.3408771
  57.3877066  46.2146087  18.9933811  34.8669704  15.9207833  13.9549099
  34.0711006  15.3931725  13.8881908  34.6072753  16.6812814  14.4749389
  21.0831552  75.4641445   5.2729116  21.1102199  75.4582460   6.2297092
  21.5985554  74.7002299   5.0140081  65.2360480   8.7361825   6.1820684
  65.0042974   9.4295514   5.5641971  65.3649663   7.9612601   5.6351600
  63.1595230  15.7235968  58.3154774  62.9156828  15.8528280  59.2320347
  62.8815603  14.8292994  58.1174898  14.4753408  32.2682929  68.2342291
  14.5249367  31.3134456  68.1890726  15.2371752  32.5233531  68.7546015
  80.3376850  42.6525784  62.8002310  80.2768203  41.7519569  63.1186819
  80.3857639  42.5672102  61.8480587  24.9761327  18.9244521   3.1399665
  24.0665849  19.1398490   3.3462606  25.0472959  19.0648663   2.1957956
  27.7752972  22.8360152  64.5906782  28.5292983  22.6480865  65.1496029
  27.0173001  22.5856233  65.1188612  65.6831312  39.6909308  67.7831697
  65.6314659  40.6464052  67.7579832  65.0458622  39.4340944  68.4496212
  59.8584366  30.1146245  67.6735163  59.9718571  29.4961882  68.3952570
  58.9176369  30.2899742  67.6539612  84.8036272  44.2088366  65.2534580
  85.6408950  43.9416933  65.6327343  84.5585857  44.9940395  65.7429838
  17.0782375  64.4832897  66.2805271  16.1917090  64.1468000  66.4111996
  17.4070489  64.6419430  67.1653652  28.0961204  64.6029615  67.1592903
  27.6491284  64.9013853  67.9513550  27.7532077  65.1650715  66.4645386
  21.2733116  64.6266802  13.7391315  21.5044680  65.4785092  13.3687435
  21.8996849  64.4972117  14.4512592  19.5763540  80.8405972  55.5291367
  18.8096499  80.2999115  55.3392506  20.0596452  80.8692932  54.7033978
  33.2495451  38.5565209  69.0795135  33.8416767  39.2909431  69.2414904
  33.0576062  38.2071733  69.9497700  14.7468281  23.0541682  68.3552217
  15.3176272  23.4379506  69.0209055  15.3477573  22.7002931  67.6995659
  71.4599286  20.6158603   5.9692321  72.2245847  20.3302539   6.4691911
  71.7010759  20.4644502   5.0553642  21.3785577  26.4632678  64.9141598
  21.2074947  26.9927025  65.6930494  21.3709736  25.5603671  65.2318811
   5.6361946  14.4457543   9.7262989   5.9880384  15.3043235   9.9614559
   4.9688657  14.6330178   9.0661178  13.5236990  72.9719162  62.9399920
  14.2968392  73.4014750  63.3060026  13.3109379  73.4852409  62.1605921
  27.3033762  22.0249462  69.3506432  27.3087239  22.7826643  69.9355078
  27.7416921  21.3349175  69.8486137   1.1241603  50.2192307  53.2030678
   0.8438469  49.3110228  53.3162689   1.7320018  50.3741741  53.9260864
  23.5688066  26.8731308  57.9276085  23.9706087  27.7103877  58.1595230
  23.9518857  26.2456679  58.5406113  23.6221298   9.3783582  14.9526439
  23.9616617   9.3832601  14.0577064  22.7965148   8.8976968  14.8929630
   1.4402215  34.9688482  47.3806667   0.7280888  34.7552705  47.9835653
   1.0354972  34.9441338  46.5135908  18.9349806  61.1442518  66.1480045
  18.3368242  60.5479765  66.5984440  18.4662378  61.3984680  65.3530931
   2.6675590   9.3044913   7.0148740   2.8463992  10.2347053   7.1525369
   3.5308846   8.9106429   6.8892418   3.5971340  18.6682046   6.6982256
   4.0292486  17.9111255   6.3028226   2.9531868  18.2905782   7.2973571
  78.5132115  76.7082508   4.9047456  77.7640050  76.4957746   4.3481718
  78.4715264  76.0696562   5.6165634  73.4874084  40.5407286  69.3326807
  74.3143215  40.0929737  69.5114613  73.3956852  40.5032206  68.3806276
  47.7878986  19.0870011  18.2808052  48.3448033  18.7055743  18.9594780
  46.9042192  18.7942374  18.5035835  43.3673334  43.6371946  60.2769423
  42.7376795  44.1599083  59.7804117  44.1778088  43.6941576  59.7708607
  25.6047328  18.7265551  31.6674171  26.0658487  19.2361558  32.3336826
  24.7721370  19.1839087  31.5497432  76.2455534  15.4357779  19.0943180
  75.4616557  14.9283946  19.3047939  76.0565363  16.3153041  19.4213329
  84.9678969  60.6075001  62.1503925  84.0715357  60.9032631  62.3094273
  85.2386580  60.2083635  62.9772043  12.4384654  61.1356258  30.5270362
  11.4867961  61.0584021  30.5948210  12.7425981  60.2380943  30.3922296
  48.3695107  48.6948748  14.9218879  48.7714165  47.9951693  14.4069896
  47.4295252  48.5224636  14.8677288  48.4586423  70.4951532   5.7048259
  48.5348945  70.3555568   4.7609363  48.7924605  71.3814576   5.8436046
  83.1535926  18.5657418  52.3335981  83.8869860  19.1805446  52.3140383
  83.2518631  18.1020737  53.1652164  33.3823427  23.2432282  24.5166908
  33.4649881  24.1891778  24.3959175  34.2842372  22.9318297  24.5931373
  77.1659564   2.7289784   3.6642156  76.2639235   3.0450261   3.7159954
  77.6505171   3.2868827   4.2726360  46.2480927  67.7443314  36.0573840
  46.2386608  67.1433973  36.8023825  45.8084917  68.5314465  36.3789892
  76.2868320   0.8458102   5.3309570  75.7677041   1.2487090   6.0269485
  76.3212310   1.5101111   4.6426569  63.6810017  25.0806427  44.3991470
  63.4875822  24.2453623  43.9735508  62.8425312  25.3631949  44.7643423
  63.0907243  80.6724532   4.4642244  63.4781473  81.2184365   3.7800918
  63.8152426  80.1310356   4.7775446  20.2431321  26.0768723  45.5653286
  19.6968973  26.3420033  44.8253536  21.0763001  25.8221626  45.1688671
  57.4779420   9.2337239   2.3510776  58.3593915   9.6038354   2.3031603
  56.9006073   9.9579728   2.1094595  10.7585013  29.4677496  58.8677740
  11.5216577  28.9122224  59.0265656  10.8350098  30.1701331  59.5135546
  22.3798927   0.8929789   9.8763500  22.9629787   1.1033738   9.1469799
  22.3760064  -0.0635659   9.9116359  69.9574321  74.5791347  21.8824993
  70.5428308  74.0024264  21.3916240  69.9096148  75.3767307  21.3554416
  22.7937015   0.7446683  15.7585941  23.3564981   1.1875213  16.3937030
  22.1803554   0.2401507  16.2929092  45.5201912  34.5900559  70.8425093
  44.6256781  34.3047547  70.6562853  45.9808016  33.7881780  71.0896206
  34.1371330   7.2118915   2.7821384  33.6186536   6.4231456   2.9411541
  34.0935787   7.3401559   1.8345724  25.7816394  66.5209897  29.7719322
  26.0354447  65.8362372  30.3907524  26.2395345  67.3033317  30.0793491
  20.3488391  79.4140585   1.6839681  20.3839087  78.5918243   2.1727739
  19.7063362  79.9451693   2.1544395  40.2126551  58.9795685  65.0615931
  40.7665443  58.2000971  65.0183964  40.3670263  59.4294214  64.2309141
  30.2249220  45.1559089   9.7445331  29.2711560  45.0977387   9.8009048
  30.3890979  46.0023384   9.3287979  15.6314778  50.7593441  50.6529379
  15.2711475  49.9358940  50.9820700  16.1948717  50.4998302  49.9239111
  73.5905026  46.7459643  29.4539962  73.5735427  45.8226645  29.2020832
  74.3385159  47.1097625  28.9803348  29.2671549  77.7270611  13.1285606
  29.7547453  78.0467780  12.3694358  29.4917360  76.7982109  13.1836258
  84.6020120  27.3827863  66.6815615  84.4022479  27.7163124  65.8068705
  84.2653653  26.4867449  66.6788816  54.5820342   6.7693437  25.2079235
  55.0865690   7.5793136  25.1329456  54.2456348   6.6141379  24.3253265
  58.6677402  75.0544317  32.0100818  59.0414875  74.9382337  31.1365543
  58.0166572  75.7476743  31.9017444  18.9571321  22.8136778  64.7368908
  18.5728264  23.4816742  65.3046227  18.2120407  22.2857952  64.4498158
  75.6716245  44.1462584  31.6342006  75.4389422  43.7672122  30.7866035
  74.9502604  43.8996054  32.2130142  61.4351123  79.0643819   0.4944692
  60.8280294  79.4722136   1.1120115  61.2113421  78.1339939   0.5176817
  22.9970532  77.7936514  10.8195339  22.3778766  78.1082018  10.1608120
  23.7799054  77.5606449  10.3204475   2.2272167  55.0374746  63.6287022
   1.8090716  55.8725786  63.8384390   1.5476298  54.3825722  63.7883663
  35.7212234  26.7697287  69.4936895  36.0653067  26.8778205  70.3803444
  36.2634659  26.0813046  69.1086197  61.2404730  22.5634015  13.9343582
  60.7198949  21.8501485  13.5649047  62.0121752  22.1317256  14.3009124
  50.1417065  31.2412071  67.8638220  50.2911758  30.3608727  68.2086468
  51.0176802  31.6182995  67.7819681   6.8377407  27.9024375  12.7620159
   6.0230883  28.4046805  12.7440200   6.6651138  27.1879352  13.3751426
  84.3732303  74.1890557  11.0298572  84.1096538  73.5348351  10.3827510
  84.5040696  73.6895521  11.8358455  24.0656408  39.3972934  29.2199169
  23.9955171  39.8353446  30.0681053  24.6745189  39.9404490  28.7194477
  86.0132252   3.9519179   1.5864311  85.2220808   4.0780843   2.1102653
  85.9149800   3.0768502   1.2111507  81.3761412  32.7299035  20.5912910
  80.7036720  33.3095658  20.9490715  81.9759260  32.5792563  21.3219009
  81.7595588   3.0054820   4.5463310  82.1810518   3.0149138   3.6869751
  81.0528837   3.6469996   4.4735466  72.9297011  80.7953222   6.1020790
  72.9502337  79.9337156   5.6856142  73.7655442  80.8578904   6.5643345
  37.3261142  44.0151739  62.8878260  36.4004898  44.1755915  62.7042055
  37.6697016  44.8691273  63.1504011  77.3129879  49.1725123   4.9246011
  76.6910575  49.1176570   5.6501566  78.0727254  49.6226848   5.2938877
  10.8984836   8.0885470  18.4540401  10.1796516   8.4279120  17.9208027
  11.5429624   7.7784741  17.8178535  17.3320735  46.7828417  62.3147202
  17.8130007  47.5985909  62.1750927  16.8901932  46.6196871  61.4814425
  56.4677261  43.7740004   7.8175626  56.2658939  44.2832721   8.6025081
  55.6740828  43.8296187   7.2853361  54.0708160  71.3609457  31.1190748
  54.5386744  70.6750584  31.5954161  54.0314054  71.0421085  30.2173972
   9.1075548  22.1962512   9.2894779   9.5548805  22.7599013   9.9206863
   8.6487230  21.5511096   9.8275219  23.4141293  68.3557923  12.5726066
  23.4720078  68.6208113  11.6546474  22.4986115  68.1030353  12.6916633
  55.6873989  29.3533731  62.7943087  56.5246868  29.7861195  62.9613590
  55.0311947  30.0318766  62.9532480  78.5580336  37.3246301  30.3754650
  79.4624125  37.5166953  30.6233345  78.5345946  36.3731873  30.2733074
  38.0261453  22.4604524  28.8406597  38.1195291  21.5101302  28.7743412
  38.2122262  22.7815593  27.9583393  35.7440980  21.8323815  24.2221771
  35.9431680  22.4834073  23.5493026  36.5480216  21.3193715  24.3043934
  40.0697279  39.7131085  65.0364780  39.9960375  39.7806239  64.0845108
  39.4758821  39.0005374  65.2727413  21.1888917  25.1557076   0.8290706
  21.9796213  25.3183949   1.3433872  20.4704221  25.4154122   1.4057718
  32.5844502  50.8795404  71.0291100  31.6725802  50.9034777  70.7390165
  33.0740380  51.2858915  70.3139782  23.5661459  78.2837820  70.9124660
  22.9304457  78.9922810  70.8117247  24.1224599  78.3489799  70.1362562
   9.3346429  59.1397285  63.0883121   9.3644965  58.1918573  63.2182550
   8.4191489  59.3239546  62.8781605  68.0724382  81.6666794  67.3382568
  67.4753094  80.9301949  67.4695873  68.9455843  81.2757587  67.3703098
  61.9203942  71.7198952  14.5761810  61.3122623  71.5335687  15.2915035
  62.6206391  72.2295721  14.9837528  26.8715270  10.9117616   0.9334646
  27.1181472  10.8053792   1.8522106  26.0406478  11.3861669   0.9618889
  -0.1895110  32.8054107  14.4553028   0.3200754  33.2978785  15.0987564
   0.4670509  32.3580897  13.9213882   5.0103909  65.5962658  33.3459902
   4.5210767  66.0555315  34.0285444   5.0050694  66.1978722  32.6014924
  37.9022455  71.4731598  55.3788805  37.0187497  71.2330961  55.6582308
  38.4627795  71.2178469  56.1115789  50.5759954  44.9222326  67.9043293
  51.3628006  45.3320742  67.5448751  50.4129601  44.1731405  67.3311710
  72.2074652  21.3968301  60.6788445  71.7321777  21.7900920  61.4107466
  72.9793501  20.9983969  61.0809422   9.2657765  29.2547572  48.3410106
   9.2462834  29.7310555  47.5109516  10.1277932  29.4495356  48.7087284
  38.3853038  16.1012328   1.4028535  37.8278240  16.5417636   0.7614694
  38.3274873  16.6482175   2.1862445   4.9425014   9.3443406  10.9410892
   5.4445752   9.9828542  11.4474998   5.5154165   9.1151679  10.2093254
  14.6189054  18.3227933   4.0932689  13.7511381  18.4591830   3.7129913
  14.4906982  18.4478486   5.0335632  60.6976557  45.9739065  64.4432402
  60.6979465  46.9113159  64.2495871  61.3405943  45.8741808  65.1453209
  38.0287194  60.0147104  66.2804508  37.7565598  60.6083012  65.5805874
  38.7546611  59.5173025  65.9038544  29.5347722  21.4935553  35.1163707
  30.4376968  21.2560428  35.3274379  29.1716655  20.7105840  34.7024379
  63.1037140  32.3860884  57.5000763  63.4767008  31.5458727  57.7668190
  63.8637209  32.9349875  57.3068619  14.3235302  71.1667585  55.0141096
  14.4765484  71.0187006  54.0808916  14.6247506  72.0623589  55.1670742
  83.5397564   3.2462562  24.0489708  83.6356841   3.5675061  24.9455391
  84.3519436   2.7697719  23.8770900  36.0985398  77.9752541  37.9022264
  35.4490185  78.6386251  37.6692271  35.9233356  77.2482443  37.3047352
  18.4579070  39.4521869  29.3919788  18.8074191  39.3748820  28.5042320
  17.9278453  38.6639655  29.5101867  41.5973663  45.3310490  68.5424471
  42.3670149  45.8538055  68.3175039  41.8144035  44.4463873  68.2483292
  40.6926012  65.1201963  66.2705469  41.2854624  64.3816423  66.1316872
  41.2710285  65.8765745  66.3682270  24.7310336   2.6200021  39.2098747
  25.1722225   2.1288407  38.5168014  24.5299753   1.9641555  39.8774562
  78.0028234   0.1166785  17.9784713  77.8110538   1.0356296  18.1655250
  78.1217323  -0.2833306  18.8399158  78.8557952  81.5424426  17.2345863
  78.9517730  80.5981977  17.3587642  78.3111184  81.8264182  17.9687057
  51.3481283  26.1342788  67.0850992  52.0075703  26.5135217  66.5041161
  50.5445766  26.1302114  66.5649843  13.2290252  26.4841092   3.5150657
  14.1449245  26.6633428   3.7277494  13.1421216  26.7390359   2.5965391
  86.5860163  35.3591645  10.9073768  85.8849154  35.2638972  11.5520607
  87.3396193  35.6591332  11.4156376   1.0302051  24.1485990  30.1787506
   1.2341960  23.9904893  29.2570053   1.4386185  24.9921859  30.3731571
  43.4888601  51.5781307  59.2876530  43.6320591  51.1593676  60.1363945
  43.3240891  52.4971104  59.4987488  49.5395152  30.7434905   4.6996866
  49.6408384  29.8245824   4.4515501  50.2690624  31.1895717   4.2695699
   9.5731992  68.4130859  65.4723501   9.1474706  69.2576456  65.6196737
   8.9979732  67.7774000  65.8980894  55.4042530  71.2815380  64.8765182
  56.2886620  71.5161657  65.1575994  55.5031347  71.0326004  63.9575624
   6.9780215  27.3353064   3.8343368   7.2268351  26.8452228   3.0506645
   6.4934691  26.7048991   4.3672786  13.3720144  34.9861539   6.0764251
  13.4004434  35.4123223   6.9330488  12.9429992  35.6237805   5.5058084
   7.0714172   7.1853650  33.3105217   8.0020150   6.9697488  33.2494484
   6.9853242   8.0117000  32.8351341  47.5839138  43.3972597  67.8139496
  46.7038345  43.4693384  67.4444962  47.7485037  44.2532635  68.2094240
  72.5359438  20.2864945   3.4942756  72.1093880  20.4476035   2.6526580
  72.9707347  19.4408429   3.3844362  51.4497042  67.1846628  61.5043592
  52.1796513  67.7796936  61.3330555  51.8473577  66.3140154  61.5129375
  43.9494324  62.8685331  59.0791321  44.3419600  62.0291424  59.3190861
  43.0384827  62.7971840  59.3642759  44.9448805  71.8617590  26.1443744
  45.0623720  72.3980673  26.9284664  45.7487660  71.9931634  25.6416450
  64.7171663  16.6662944  42.0070682  64.1653912  16.0217107  41.5640293
  64.2864727  17.5048316  41.8409477   2.9523619  22.4375546   1.3230739
   3.8724502  22.2717202   1.5284191   2.5243004  21.5893758   1.4396177
  21.3520384  77.2386456  48.4222746  21.8298411  77.1491766  47.5976944
  21.5376806  78.1322050  48.7109280  40.7332087  55.8495188  67.9289484
  40.9873819  56.3659763  67.1641636  40.0509739  55.2614927  67.6048899
  36.0534763  51.4978170  70.4064798  36.6581488  51.1373329  69.7579002
  35.1838708  51.2890530  70.0652552  42.9861307  73.9740753  66.1461210
  42.2389793  74.5393848  66.3421488  43.6960506  74.5802259  65.9343910
  28.2799053  40.7767630  68.6388302  28.6552787  40.1409817  68.0296373
  28.8970637  41.5084028  68.6318779  77.8560685  38.8126862   1.3261018
  77.3217248  38.6028302   2.0920406  77.4273215  39.5746386   0.9364401
  57.3728704  64.0966272  65.3795004  57.2251511  63.6098289  66.1903238
  57.4274874  63.4226084  64.7020388  22.2917747  37.2539663  60.8782101
  22.0163107  38.0675769  60.4558468  23.0683780  37.4968243  61.3823366
  87.0257228  77.0785339  24.1366134  86.3605350  76.3921054  24.1873489
  86.6809123  77.6992090  23.4946571  86.8970715  19.9571670   7.1112047
  87.0012532  19.2334330   6.4934765  86.2664662  20.5419028   6.6909109
  42.2267962  59.9296665  68.8375044  42.8022051  60.2917862  69.5113039
  41.5194654  59.5097446  69.3269730  83.4288972  74.0588220   3.8974414
  82.7915471  74.6232994   4.3349062  83.0050557  73.8108952   3.0757843
   9.7760287   8.2956057  64.1311979   9.0326968   8.8416319  63.8751888
  10.2666941   8.8346033  64.7516537  85.1787172  47.6902068   2.2280822
  84.8793756  48.5670722   2.4683319  85.9838449  47.5659049   2.7306305
   6.3038691   1.9303525   6.4541994   5.6205519   2.5868524   6.3188778
   6.6272243   2.1000779   7.3389993  76.1276477  64.9013908  13.4402500
  75.9213870  64.1819175  12.8435550  77.0771449  64.8549874  13.5522113
  68.7061142  13.8870538  13.7899910  69.6258806  13.9962352  13.5484539
  68.7167250  13.2231677  14.4794689  56.3434505  33.3691955  68.1598854
  56.3057566  33.5739183  67.2255945  55.4317856  33.4035468  68.4495783
  69.6616136  25.0052703  27.9021106  70.2870344  25.4822743  28.4475933
  68.9549683  25.6314052  27.7444969  14.8574050   7.3977530   4.9642883
  14.1790422   7.7165378   4.3689476  14.3736013   6.9836533   5.6789146
  38.3898997  52.7672958  68.9302158  38.5145640  53.3311653  69.6935940
  38.7774014  53.2570839  68.2048273  48.5665035  69.7596169  61.5418386
  48.3098555  70.0842094  62.4049759  48.1736803  70.3787947  60.9265757
  20.3849697  69.2036390  48.0541039  20.5478191  70.0138187  48.5371351
  21.1767673  69.0725040  47.5324821  62.2738798  20.1990760   3.8254963
  62.5100727  20.6125129   4.6558700  61.3173570  20.2295363   3.8063131
  35.0052309  77.5514412  64.0220976  34.6118855  77.2931671  63.1885481
  35.5480671  78.3096504  63.8060474  31.2675021   2.8344183  55.6523848
  31.0881313   3.0758314  56.5611076  31.1279505   3.6420851  55.1579809
  29.5348787  44.9520493  62.5653934  29.1976833  45.0285149  63.4579659
  29.3272424  45.7929993  62.1580553   4.8100861  54.9396289  24.0418945
   3.9870151  54.5630515  24.3533073   5.4711660  54.2818129  24.2574821
  29.4820722  44.1236556  28.4015880  30.2733072  43.8474334  27.9391227
  29.3696578  45.0420821  28.1564365  59.5580196  42.4902058  48.7107515
  58.7111282  42.9362535  48.7179804  60.1863050  43.1729364  48.4754562
  62.9261034  60.2276035  20.8821331  63.5910695  60.8686312  21.1333976
  62.2104280  60.3694911  21.5017353  37.2694190  11.6262401  40.8486114
  37.0052846  12.4822534  40.5114113  38.2132944  11.5887320  40.6939350
  60.1989382  73.9013751   2.2336279  59.5174592  74.0525849   1.5786825
  59.9360173  73.0911119   2.6701818  78.3762591  72.3925074   3.8944946
  78.2940619  71.4393838   3.9266191  79.2995828  72.5466807   3.6946569
  13.0731526  75.0974901  25.0478874  12.9482642  74.2929037  25.5511604
  13.6450758  75.6358560  25.5949627  31.7883587  79.3591166  64.2324114
  32.1973872  78.7369728  64.8339605  31.5573144  80.1076031  64.7825146
   1.1764701   6.4671243   5.3513656   0.5601104   5.9539140   4.8289238
   1.0060724   7.3747695   5.0996147  72.4779606  63.9808702  64.6762991
  72.3299026  64.4409275  63.8500643  73.2744360  64.3758965  65.0310040
  25.2944167   4.3884004   3.6430345  24.9387964   3.5057128   3.5399471
  24.8133882   4.7553027   4.3848024  68.7854026   0.4168046   7.5867782
  68.7571703   1.0131467   6.8385730  69.6463631   0.5642665   7.9782329
  36.0568261  52.5205564  59.9380398  35.2810860  52.3791456  59.3953943
  36.7934990  52.3339510  59.3560410  22.6097759  19.5150960   4.9307857
  22.1217426  20.3298581   4.8115574  21.9480546  18.8760627   5.1953493
  82.6829873  39.0928710  25.3090129  82.8005849  39.1807521  24.3631397
  82.7114855  39.9911559  25.6384025  86.6975652  24.0373338   6.0645948
  86.1525403  23.8202441   5.3082548  86.1146556  24.5226682   6.6484581
   4.7760733  30.4167903   2.9664312   3.9426263  30.8692849   2.8366409
   4.5298179  29.5129168   3.1629167  77.1326678  60.7720883  30.5892788
  76.5201419  60.0581940  30.4120861  77.0449155  60.9354468  31.5283428
  83.4078084  10.9792817   9.0756736  83.3694588  10.0466121   9.2875419
  82.6901065  11.3681662   9.5755706  25.7707485  26.8591655  11.2402378
  25.2183803  26.1655438  11.6008125  25.2988895  27.1621955  10.4645095
  21.5197023   9.0179837   8.3164201  21.6909440   9.7942508   7.7832065
  20.6111892   9.1182864   8.6006294  56.5501349   4.7173529  66.6598749
  55.8818429   4.4266729  66.0392952  57.3346870   4.2271738  66.4140368
  18.4320100  31.8713820   3.4504114  19.1388639  32.1189797   2.8543459
  18.7240299  31.0466731   3.8387619  16.6590293   8.3484090   2.5104461
  17.5994428   8.2182849   2.3882757  16.2671312   7.5111688   2.2620950
  12.0545848  29.5592654  18.0783592  12.2429212  28.6246837  17.9928241
  11.2596591  29.5956910  18.6103378  50.3751516  62.9376364  65.0519943
  49.7523689  63.6551762  64.9357462  51.2045002  63.2847261  64.7234535
  33.8138628  81.6554737  62.1223974  33.2605052  80.8748055  62.0982647
  34.0469527  81.7553997  63.0453920  42.0948034   5.7881861  51.0815716
  42.1556228   6.5567141  50.5142021  41.3990086   5.2580290  50.6929445
  84.8903667  15.9885228   0.4931102  83.9404474  16.0899938   0.4332147
  85.1603089  15.7351602  -0.3895916  30.3457689  78.5505374   5.1520954
  30.5551896  79.3220098   4.6255956  31.1336725  78.3949001   5.6728826
  10.1380952  33.9037955   7.8411232  10.8155783  34.5525706   7.6504980
  10.6129177  33.0758107   7.9133735  49.5127051  56.8636497   7.6027380
  49.6007007  57.5334151   6.9245754  49.7505491  57.3119004   8.4143625
  82.0579921   4.1481603   7.2152029  82.3802625   3.7427152   6.4102255
  81.5926872   4.9306786   6.9195877  31.0502472  69.3326171   7.7539287
  31.0614243  68.3793672   7.6677690  30.9544602  69.6530612   6.8570600
  29.9167156  62.1948481  58.3546019  30.8555007  62.2139883  58.5404730
  29.5051265  62.0829391  59.2115164   0.6787243   0.4344492  59.2634392
   1.5467110   0.0423460  59.3587780   0.1588908   0.0384741  59.9628735
   6.3149198  11.5481532  11.9206272   6.0984119  11.5323747  12.8528915
   7.0385083  12.1711457  11.8532978  19.6688588   2.7307189   7.0127950
  19.4774564   3.4627498   7.5990759  19.5916589   1.9538129   7.5665985
  82.8666888  60.7119143   9.6398483  82.9212438  60.1749099  10.4303394
  81.9993316  61.1144698   9.6831546  17.0826467  21.3417972   9.5779453
  17.4099668  20.7009423  10.2091251  17.1434244  22.1806682  10.0349270
  21.9990333  38.5486663   0.7373462  22.0010026  39.4706023   0.4799305
  21.0846647  38.3611787   0.9494959  36.4248800  46.0094595  66.3265610
  36.9436789  46.7725468  66.5810728  36.0655785  45.6787205  67.1498108
  35.5962356  16.4464724   5.6386171  35.9426721  15.5899871   5.8889137
  34.6520980  16.3094914   5.5607067  16.0718759  16.1436809  15.0916038
  16.5603336  16.8744290  14.7125946  16.0847982  15.4691327  14.4125972
  25.7071161  50.7333374  66.8965197  25.4521060  49.9187469  67.3296976
  25.6583333  51.3962936  67.5852394  11.3393819  16.8732786  64.1377783
  11.2059951  17.8034115  63.9553165  12.2038174  16.8309748  64.5466709
   0.8172789  69.3730267  36.4484821   0.2226868  69.9107988  36.9714485
   1.3867369  70.0041922  36.0085045  79.7854792   6.8397725  30.6961856
  79.8675405   7.1309817  29.7880588  78.9061986   6.4652074  30.7490764
  17.6016839  39.1863883  14.6072899  17.5203308  40.1375449  14.6774231
  16.7710050  38.8495458  14.9430595  28.1558975   4.2601026   7.7193628
  27.3171123   4.6648467   7.4983392  28.7973674   4.9615872   7.6068197
  14.6130002  76.6492987  47.8683567  14.7109294  77.5152493  47.4724197
  14.5431364  76.0519600  47.1236849  75.7233849  56.5983391  50.4160023
  76.4903298  56.0823774  50.6646299  75.1019242  56.4636707  51.1314631
  55.4422188  53.5943031  69.6331120  56.1552763  54.1901350  69.4034004
  55.6237030  53.3413029  70.5382538  21.0321220  35.1649058  21.4687667
  21.8907913  34.8132956  21.7039142  20.9991964  35.0983155  20.5144535
  83.7703412  81.5934451  25.7203708  84.2445176  80.7783158  25.8845554
  83.3510440  81.7990811  26.5559135  30.4483724  62.3488188  52.4606562
  29.5703030  61.9828892  52.3542547  30.9885144  61.8597078  51.8399715
  76.9994770  17.1279109  32.1751438  76.1862706  16.9813979  32.6583229
  77.2396945  18.0317700  32.3790203   2.1650517  65.4989862  64.6678686
   2.8879422  65.8152723  64.1260004   2.5542730  64.8123646  65.2094316
   2.7810629  16.7936147   3.9927803   2.2397812  16.6833699   3.2110582
   3.6003741  17.1655953   3.6662899   6.1690815   1.1697495  35.4147659
   6.5695103   1.6948617  36.1076866   5.5032762   1.7427171  35.0344501
  32.6887560  33.3572316  68.6393976  31.8702412  33.8366151  68.5110998
  33.0497098  33.2594752  67.7582693  32.0893598  45.5699492  70.3367519
  32.1519709  45.1239634  71.1813879  31.3354850  46.1525536  70.4288292
  71.9021981   0.2180891  68.4671307  71.1381333   0.5851870  68.9117384
  71.5357821  -0.3781004  67.8140402  83.7409650   5.6818879   2.0179353
  83.2164179   6.0338176   2.7371202  83.7451015   6.3783849   1.3613449
  31.5137329   1.0001497  47.0883942  30.8902970   0.5569200  46.5129852
  31.3534870   0.6209497  47.9525471  76.3927310  16.1575537  63.0131102
  76.6231769  15.8381014  62.1407127  75.6367915  16.7264967  62.8678799
  43.6505350  22.3998750  17.8832279  43.9460166  23.2699693  17.6151691
  42.9809554  22.1657622  17.2405086  60.1703628   3.9316619  11.1317669
  60.7966121   4.2879069  11.7619548  60.2468379   4.5040667  10.3683887
  14.7694858  29.3226684  26.1996589  15.1483091  30.1210225  26.5675579
  14.6225150  29.5304549  25.2769123  77.6152890   0.9665804  46.2177563
  77.1174710   1.1694269  47.0097589  77.9167979   1.8176107  45.8998394
  42.6201328  53.9956534  10.6059204  43.4868749  53.9496768  11.0094963
  42.7528079  54.5134890   9.8119007  43.6388906  36.4348329   0.1693473
  43.6595472  36.5998710   1.1119829  43.0357297  37.0930398  -0.1758875
  29.9642356  44.1541446   6.8788038  30.4032787  43.9216674   7.6969848
  30.1742013  43.4359420   6.2818609  59.8777914  78.6472368  48.0878448
  59.1845369  78.8634634  48.7114429  59.6106243  77.8073454  47.7144194
   7.0613900  14.1455774  40.7092953   6.6771736  14.8468237  40.1831198
   7.8303948  14.5450430  41.1158562  82.6267849  18.5874522   7.6974521
  82.8199278  18.2697261   6.8154226  82.2109662  19.4385493   7.5597416
  64.2637062  70.9433746  57.6162195  64.4207764  70.1678514  58.1548500
  63.3153343  71.0690928  57.6481485  26.5045491  26.1342936  70.4397154
  26.1781731  26.7451696  69.7790051  27.3104229  25.7815008  70.0624371
  10.4415095  32.0201969  69.9232435  10.1097775  32.5818372  70.6237793
   9.9986076  31.1823869  70.0579453  22.0377102  18.1695108  68.0801249
  22.2663632  19.0059595  67.6747847  22.8304329  17.6392393  67.9986620
  47.2382879  67.1951771  64.1314697  47.1291733  67.9346561  64.7293806
  46.7261457  67.4342108  63.3589363  35.1258262  32.4692977  24.3991695
  34.6984847  32.4044097  25.2532135  35.5741771  31.6304982  24.2913376
  34.5445045  41.1642993  15.6483493  33.7987455  41.6206801  16.0379635
  35.1356967  41.8643439  15.3714977  85.4126011  37.9393161  13.2928501
  85.0167523  38.7454427  12.9616390  85.3901301  37.3380197  12.5484214
  48.2426008  41.4574969   3.4456859  47.8802760  42.3433555   3.4310613
  49.1870006  41.5834487   3.3536039  84.0369259   6.4034331  54.1092620
  84.7892676   6.8398440  54.5089565  83.4147345   7.1097911  53.9355693
  11.0436430   1.4872484  59.2066383  11.4649239   1.0215120  59.9290276
  10.7213393   0.7941942  58.6304140  51.6735601  69.5038843  23.3090925
  52.4466562  69.2709351  22.7950096  50.9435034  69.0993309  22.8404880
  66.3181370   4.8660879  58.6130857  65.4523509   4.6725206  58.2536745
  66.8738668   4.1543417  58.2955885  18.0808568  72.5045347  38.2784176
  18.8686681  71.9858027  38.4412169  18.0628502  73.1429195  38.9914203
  45.8655389  44.2820514  11.2259517  45.3731759  44.3706763  10.4098926
  46.0951789  43.3537352  11.2675224  23.5631082  13.6154509  52.9983139
  23.1052015  13.5478365  53.8361597  23.3600995  12.7957797  52.5475836
  17.2704681  56.9648803  16.3112007  18.1201728  56.9010985  15.8751236
  17.1175941  56.0895408  16.6670738  59.8878288  64.3502617  60.0175524
  59.7486639  63.4529591  60.3203917  59.8678875  64.2865849  59.0626812
  77.5112622   1.2374620  66.4668894  77.4443238   2.1826963  66.3316536
  78.2908528   0.9797411  65.9749031  74.8323482   2.3797064  45.1289177
  74.3342727   3.1636457  45.3604126  75.0106090   1.9530325  45.9670162
  76.5956114  38.9620841  31.0479198  77.2730552  38.3317674  30.8029590
  77.0405088  39.5775187  31.6306244  21.9089492  52.7932322   3.8655887
  21.7226156  53.3998931   3.1490217  21.1174281  52.2601474   3.9400278
  52.1126383  17.9545813  71.1299276  52.9765170  17.6561384  71.4143133
  52.2953146  18.6587076  70.5077744  23.7554812  62.5789785  66.3915730
  24.3645239  63.0012560  65.7857847  22.8942156  62.7086973  65.9945536
  46.7933639  46.9178260   4.4950233  46.1238750  46.7468989   5.1574455
  46.3023599  47.0251429   3.6803852  30.3070863  55.8182013  63.2805668
  31.0318502  55.6607116  63.8856636  29.6397527  56.2504924  63.8134990
  81.1032772  77.4019337  70.7806635  81.1346912  77.4146414  71.7372656
  81.2440491  76.4840269  70.5485725  13.8401445  18.2366813  62.3387561
  13.5984548  19.1609586  62.2793804  13.1648763  17.7798379  61.8372188
  16.4696487  51.5558112   2.8311525  16.1989911  52.2704566   2.2547327
  16.3297256  51.8950808   3.7152086  53.9259689   1.5035658  68.0358076
  53.6441892   2.4183493  68.0319309  54.1783970   1.3268690  67.1295547
  20.0982555  29.3893540  50.5251442  19.8074230  30.1389468  51.0445152
  21.0406907  29.5209277  50.4215561  72.9038547  62.0325339   2.8926883
  72.2775422  62.5432742   2.3797498  72.4669527  61.1932528   3.0374179
  45.1979001  38.5912764  16.2874923  45.6587585  38.1505263  17.0013462
  45.2471813  37.9768670  15.5551658  15.3669580  13.3692038   2.3681961
  15.0680145  13.5878289   3.2508455  14.5729383  13.3912146   1.8340765
  18.2378276  81.7464602  36.7247425  18.2869371  81.5389884  35.7915817
  17.9751333  82.6664985  36.7520462   2.0088997  57.4019022  37.5156532
   2.0571175  56.9594593  38.3630882   2.7167549  58.0457385  37.5409828
  81.0726725  44.3065322  13.3831630  81.4910708  45.1255477  13.6484562
  80.1570235  44.5425380  13.2344471  70.5971616  18.9633779  51.5379286
  70.2998202  18.3353453  50.8795977  71.4832299  18.6768465  51.7593193
  38.1910181  67.5341463  54.1169405  38.1319737  68.1105757  53.3550549
  38.9572525  66.9869852  53.9445019  77.5675910  10.4568224  63.7207508
  77.5811570  10.3829031  64.6749973  78.1340878  11.2045317  63.5303688
  28.0800184  34.1525138  10.8366523  28.6780198  33.9935458  10.1063381
  27.4004444  34.7187388  10.4708610   5.7171925  16.3797868   6.0824476
   5.1620515  15.8079732   6.6126094   6.0056456  15.8271897   5.3560434
  40.1900244  70.8114481  57.1188354  41.0148716  70.6127644  56.6756868
  40.4026175  71.5360975  57.7069855  58.9332771  77.5595045  45.2448702
  58.8907576  78.5149145  45.2850819  58.4585333  77.3320580  44.4454193
  42.0725107  80.9210300  60.5293369  42.9955482  81.1617565  60.4500484
  41.9275713  80.2916908  59.8228264  15.3632816  49.8326934  24.7112499
  15.0602754  50.3102458  23.9390121  16.0516199  50.3860915  25.0802646
  76.3822978  14.5324831  56.8993235  76.7220634  13.8437490  56.3279819
  75.6652158  14.1154222  57.3769093  18.6539164   5.6453161  43.5236454
  18.7184229   5.1085978  44.3135881  18.0940047   5.1389818  42.9351234
  79.6309608  22.0271616  45.0385284  80.0715964  22.8724890  44.9520016
  80.3005736  21.3832884  44.8077250  55.1429939  59.2276955  63.1806660
  55.6726217  58.6464214  63.7264156  55.7512665  59.5534801  62.5172663
  63.5897635  38.3467257   6.6292081  63.6046629  37.8207601   7.4288116
  62.6969780  38.2524646   6.2971197  18.4721979  53.6296428   5.8369623
  19.2038616  53.5490954   6.4488540  17.8069957  53.0324042   6.1790739
  22.8206706  68.7270880  46.5599585  22.9183030  68.1045151  47.2804451
  23.6530542  69.1991425  46.5368605  31.5290618  76.1962700  53.0984449
  31.8942952  75.4956722  53.6388159  30.9776592  76.6986799  53.6982536
  25.5759168  68.8217306  65.4416227  25.0573325  68.8580465  64.6378899
  25.2568960  68.0428743  65.8975172  17.5288620   6.4821463  60.3763628
  17.6983490   5.6972055  60.8973026  18.2081642   7.1001081  60.6463909
  34.7452974  65.3465557  65.2039385  34.4404459  64.9726534  66.0306787
  33.9923501  65.8337212  64.8693180  46.6503685  74.8372562  12.6398025
  47.5503402  74.5831116  12.4356113  46.1240607  74.0787871  12.3868976
  76.6168307  37.2166455   6.2334905  75.7609986  37.6056636   6.4136253
  77.1558629  37.4655021   6.9843231  46.2052917  66.3633966  24.8404646
  46.6546059  65.5327272  24.9964857  45.6522942  66.1968946  24.0771127
  43.4748554  54.8837328  69.2386627  43.6790180  54.0527153  69.6675634
  42.6619005  54.7142029  68.7626362   4.7753867  16.1742795  50.2517448
   4.7095378  15.7495034  49.3964897   5.4007872  16.8864596  50.1179348
  21.8536940  11.8192797  65.4097843  21.4808407  11.7073851  64.5353174
  22.5181141  11.1334639  65.4764223  11.7343423  78.2075882  48.5879946
  12.4258325  78.7001610  49.0300941  11.6127298  77.4273396  49.1289663
  84.2086397  30.6725085  44.3054615  84.5600878  30.8119929  43.4261070
  84.8429619  31.0925782  44.8863254  40.7215246  27.1195424   6.7742191
  41.3530477  27.8058207   6.5587316  41.1127838  26.3170493   6.4290271
  49.7279676  13.2034791  13.5405479  49.1529306  13.6239589  12.9012046
  49.2196258  13.1962121  14.3515716  74.5569287  73.2109797   1.7369352
  75.5040537  73.3208812   1.6526256  74.4109355  72.2754348   1.5966879
  54.8946238  63.8015127  63.5399151  55.2601433  64.3695402  62.8617048
  55.4683018  63.9305544  64.2952156  40.8345556  21.8338299  68.0303621
  41.0047626  22.7701426  68.1332064  40.6949282  21.7175817  67.0905638
  37.6805282  74.0360165  56.6946507  37.8128219  74.5200586  55.8795214
  38.1724072  73.2238579  56.5734577   3.1354721  54.6367133  12.4379764
   2.8146251  55.4399836  12.0280300   4.0451320  54.5668471  12.1483741
  66.9405764  -0.0643511  63.1696892  67.3766892   0.3556566  62.4283123
  66.8731492   0.6253557  63.8299847  63.5432356   6.5298109  22.9534459
  63.3219593   5.9402208  23.6743116  63.9649981   7.2776918  23.3765602
  42.1048021  68.9322329  51.9633389  41.5575361  68.3659840  51.4191961
  41.8440628  69.8210478  51.7219782  76.2907355  77.6606234   7.8519855
  76.7416614  77.1180470   7.2050653  76.9185870  77.7501233   8.5689436
   9.1649469  37.0871985  23.5008941   8.6336835  36.5780366  22.8887306
   8.8009270  36.8819249  24.3620525  47.0397892  13.6346846  37.5722408
  46.7448178  14.1530447  36.8235612  47.6437035  12.9938917  37.1968675
  51.6518991   6.2398367  67.0447588  51.5785997   7.1510248  66.7608643
  50.7649034   6.0006170  67.3135376  78.8740645  14.7200025  12.1578251
  79.5822202  14.4382203  11.5787349  78.9708839  15.6708968  12.2094188
  43.4246492  73.7794256  50.3614426  43.8933182  73.1956959  50.9579659
  43.8344479  73.6304092  49.5093298   4.6497336   4.5288305  40.5939960
   5.0209132   4.8986845  39.7929549   4.5843354   3.5904818  40.4166460
  61.1133814  64.2120361  68.1093788  60.5177975  64.7658730  67.6046228
  61.7217827  64.8264885  68.5199022   6.9330581   5.9632743   6.4070640
   6.3788541   6.5591395   5.9030424   6.3237317   5.4933894   6.9764124
  74.8376554   1.5312510  55.8728409  75.0975554   1.3820868  54.9637556
  74.3981927   2.3815088  55.8598757  32.2992754  56.6970158  61.5553617
  31.4154291  56.7645454  61.1941290  32.7932024  56.2157583  60.8915424
  67.1668165  63.3216627  19.7682129  66.9051784  62.7431663  20.4845367
  66.6342919  63.0384620  19.0249477  52.6738787  67.6585913  66.4273453
  53.0496931  66.9536924  66.9547081  53.4019136  68.2625961  66.2811470
  76.8638843  40.0448637  62.8784466  76.8460792  39.4466906  63.6255169
  76.8369000  39.4718962  62.1121502  29.3804391  44.9444354   3.3425270
  28.5073741  45.3308738   3.2742868  29.2528947  44.0230906   3.1164871
  31.2957644  72.7115059  41.1579609  31.7808938  73.2696581  40.5502176
  31.3106251  73.1902266  41.9867134  70.9287930  41.1385918  48.0144835
  70.5006075  41.9905186  48.0988073  71.8582916  41.3233280  48.1491518
  17.7665579  68.6097097  45.3301907  18.3397341  69.3266773  45.0587845
  17.9238927  68.5199642  46.2700987  48.2079697  73.4884214  51.7605114
  48.9338875  73.5053015  51.1368227  47.9422379  74.4042397  51.8436003
  78.5437393  72.9752016  55.1698494  78.8443422  73.6396551  55.7898283
  79.3256569  72.4588633  54.9743176  73.3101647  18.7643270  54.6008587
  74.1240113  19.2580442  54.5002413  72.8746264  19.1706018  55.3501749
  65.5444663  22.5296907  53.7149906  65.4245918  22.3443537  54.6463919
  66.4629834  22.7879553  53.6384535  79.6877956  81.6736221  62.0884848
  80.1528931  82.5068378  62.1638012  79.3239594  81.5227032  62.9608822
  37.2285056  75.3736305  54.3000221  37.1817207  76.2720251  54.6270084
  37.5777125  75.4594946  53.4129381  78.6704837  14.8998654  28.4434734
  78.9777027  15.7658923  28.1754337  77.7757309  14.8485005  28.1073032
  28.9410877  48.6780977  66.6079235  28.4546137  48.1794596  67.2643805
  29.7640848  48.9049387  67.0408773  81.4240020  10.9550886  70.5521107
  80.4810470  10.8167391  70.6411457  81.7204326  11.1621695  71.4383841
  77.1411624  68.1782818  37.4946475  77.3049840  68.3896685  36.5755653
  76.2384143  67.8604126  37.5100732  82.1263039  37.3607469  46.8501377
  82.4069204  38.1728530  47.2720051  82.9139784  37.0309114  46.4176941
   4.5988162  64.0669978   1.2923990   5.0723108  64.8768485   1.4825807
   4.3060454  64.1677821   0.3866611  63.9279907  18.5767012  69.0046883
  63.9042490  18.8010435  69.9349260  63.1213444  18.0830984  68.8566875
  66.8828934   5.3681021  25.4958487  66.0262840   5.7937841  25.4605937
  66.7732637   4.6616392  26.1323428  84.1426621  25.5423463  17.2887359
  83.4572159  25.3371299  17.9245697  83.9002477  25.0463880  16.5067611
   6.6584343  79.8284101  51.2419033   7.3686707  80.4414177  51.0521317
   6.1062682  80.2896118  51.8732786  63.4126520  62.6592350  60.0300503
  62.8767061  62.1129704  60.6050253  64.2858410  62.2697067  60.0751591
   6.6829005   5.8032827  38.7615228   6.6728917   6.2879686  37.9361701
   7.1391955   6.3811712  39.3731332  23.6412477  73.0839062  63.0761003
  24.2137098  72.8833485  62.3356295  22.7641416  72.8530073  62.7701616
  13.0061372  47.1025527   0.1574073  13.6309083  47.2815478   0.8601509
  12.5229152  46.3324798   0.4569231  65.8057397  68.0664022   1.3776575
  66.6930407  67.7195795   1.4706216  65.8964532  69.0044387   1.5452657
  12.7317801   8.1667929  62.5853205  12.8051319   8.8072805  61.8777704
  11.8636551   7.7805071  62.4696732  15.6115707  20.7999957   2.2091280
  15.2964958  20.9040559   3.1069742  14.9902471  20.1936067   1.8060289
  59.2038298  79.3881559  29.4932628  60.0044537  79.6623707  29.9405217
  58.5222578  79.4506359  30.1624298  42.2424205  48.2227290   5.1786504
  41.3863071  48.1331790   4.7599779  42.7752527  48.6916125   4.5364080
  45.6057072  76.8481684  40.8677578  45.1685238  77.0417404  40.0385237
  44.9847984  76.2957144  41.3426208  79.1682015  60.4542792   3.8193546
  79.6689211  60.1655353   4.5823370  78.6087333  61.1562598   4.1516958
  17.6376947  23.9239657  20.1857601  17.3758682  24.5994342  19.5601211
  18.5375436  23.7073148  19.9417148   3.7258180  27.8261102   3.6693559
   4.1888197  27.1074975   4.1000019   2.8049835  27.5658191   3.6926637
  47.6404794  29.3840087  14.3473564  47.8977044  28.4756816  14.1892276
  46.8790420  29.3204081  14.9239002  85.7789939  42.5722818  37.0548892
  85.4227441  42.7594595  37.9233837  86.2287372  41.7334108  37.1561861
  46.7009497  75.1829386  58.9628315  45.8251429  75.4571962  59.2348099
  47.2664690  75.4259586  59.6958828  21.2551959  13.2987607   6.7306696
  20.5667432  12.9338706   6.1746870  21.8589242  12.5698913   6.8738113
  47.2059887   1.9694643  68.4638119  46.6236811   2.6642828  68.1566143
  46.6533058   1.1884241  68.4911823  85.8089934  42.2266257  47.4882923
  85.5226742  42.8931582  46.8638073  86.7443715  42.3933471  47.6044975
  66.2639020  36.5766156  26.6299663  66.9563381  36.5577567  27.2905861
  66.7063592  36.8517840  25.8270107  79.8676144  69.9403918  10.7575546
  79.8184691  69.3175853  11.4827572  79.2940341  69.5715964  10.0858245
  37.9833396   4.7356522  15.2595745  37.4106916   5.0251973  14.5493160
  37.4714073   4.8824418  16.0549484   3.7885722  36.7628634  24.0054832
   4.7120531  36.7544520  23.7537990   3.3914169  37.4227298  23.4370838
   5.7717648  11.4580660  47.7652407   6.3195124  10.7292871  47.4735498
   4.8996439  11.0767298  47.8662825  41.9131756  42.1556664  68.7198591
  42.3370314  41.3020897  68.8092136  41.0767746  41.9645023  68.2954597
  33.5978158  38.0453694   4.3975006  32.7898391  38.5582221   4.4171796
  34.2867597  38.6756623   4.6080099  19.3592205   1.5830450  62.4224329
  19.2178049   1.8253355  63.3375978  18.6477890   0.9744673  62.2231102
  17.9024434  66.4028788  54.0537596  18.6882114  66.2488317  54.5782328
  18.1989646  66.9639683  53.3371830  41.8481048  26.1814702  18.2955776
  41.3446029  25.8323729  17.5601516  42.0539554  27.0805419  18.0396114
  19.5612510  32.9034675   6.2176500  20.1839240  33.1662381   5.5398117
  18.8148673  32.5504363   5.7333789  77.3047774  14.1882639  43.3296871
  77.9701036  14.6154146  43.8692427  77.4801009  14.4999914  42.4418116
  53.3076255  36.5508044  10.0222145  54.0110131  35.9488833   9.7789703
  53.7129192  37.4174464   9.9921737  60.7910442  54.0711498  63.5836220
  60.5394554  54.9289465  63.9258480  60.8567476  54.2006159  62.6374960
  36.0008129  11.9906485  24.1380058  35.2917751  11.3847697  23.9225803
  35.5737193  12.6960338  24.6240650  33.4585746  35.1984227  19.5425258
  34.0434154  34.7721017  18.9160762  33.9839061  35.9049666  19.9181018
  50.1586723  74.2732286  41.8875408  49.7893238  75.1450968  42.0277357
  50.9642029  74.4307089  41.3950443  49.5460510  58.9512444  67.2620392
  50.1074171  59.2970991  67.9559278  49.1876078  59.7287941  66.8340635
  85.5970233  22.3847609  58.5180664  85.3673594  22.9461317  59.2585802
  85.0106471  22.6640158  57.8149223  58.9361477  66.3842440  61.6640425
  58.3476543  65.7038450  61.9910955  59.3498039  65.9934568  60.8943653
  11.3854392  19.0467370   2.5430761  10.4802974  18.7355292   2.5327907
  11.3145622  19.9834979   2.7266155  62.5940555  -0.0572653  67.5870132
  61.8473428   0.1285009  68.1563520  63.3599251   0.0739412  68.1459951
  20.8648586  76.2666702  52.7100801  20.6419992  75.5933809  53.3529234
  21.4933491  76.8301201  53.1614733  76.8924904  56.6032076  61.0013533
  77.0732069  55.9017420  61.6270685  77.0931387  56.2200356  60.1474476
   5.9777775  13.6195307  16.6170335   6.3784399  12.9464083  17.1671295
   5.0393715  13.5422926  16.7892361  66.4218473  70.0053167  50.8019543
  66.0047436  69.6930742  51.6049242  67.3596525  69.9018764  50.9633589
  83.7143128   9.0242033  65.6915331  83.5098641   8.3708887  66.3605690
  84.6498626   9.1944818  65.8010292   5.9941800  19.8966086  13.1238781
   5.5744727  19.0369618  13.1567226   6.6102846  19.8904908  13.8564144
   1.8722382  69.0235432  13.9645229   1.9756642  68.1061418  14.2173324
   2.6731482  69.2310889  13.4831749  35.6385255  67.0539951  61.1532545
  35.8231592  66.3405132  61.7640638  35.8826327  66.7047119  60.2961349
   6.1472138  48.0681575  10.6541286   6.2642535  48.6540854  11.4019428
   5.7744416  48.6243689   9.9700962  19.1138306   2.2486429  56.1398935
  18.4508314   2.0148687  55.4902697  18.6113253   2.5340681  56.9029474
  75.1991361  11.1305552  46.0838223  74.6945947  11.8734865  46.4150620
  74.5418542  10.5388765  45.7175875  18.5498031  17.0545924  18.3379017
  17.7695163  17.5987590  18.2317482  18.9788183  17.4010766  19.1202865
  69.9327558  13.8534479  53.6276484  69.8702996  12.9130297  53.4604883
  69.6949189  13.9491014  54.5498848  43.0491291  18.2335294  16.6923080
  42.2762965  17.7072490  16.4873920  43.5769127  18.2048381  15.8942829
  44.2843151  79.3865776  44.5107937  45.0067902  79.4439363  45.1360750
  44.7101688  79.2482567  43.6647749  81.4680682  23.4576428   1.6695533
  80.7235538  24.0517533   1.7642389  81.4954005  22.9743922   2.4953590
  31.7576965  14.8179448  10.0735603  31.2991794  14.5987475   9.2624221
  31.2702878  15.5600894  10.4311691  32.3196555   5.2430337   7.2772489
  32.0118238   4.8532765   8.0955158  32.5598956   6.1388009   7.5141321
  46.3682842  53.7094164  70.4617119  45.9366560  54.4671583  70.8563709
  45.6717634  53.0598116  70.3662825   5.3191837  43.0024493  14.7987590
   5.8263811  43.7407268  14.4612251   5.0493058  42.5200427  14.0172897
   9.2931294  78.3969021  64.7980404   8.5386252  78.6402893  64.2616463
   9.9884248  78.9919233  64.5174217  38.5206723  62.2883272  61.8315363
  39.1040373  61.5769625  62.0958805  38.8083816  62.5182343  60.9480190
  77.2238057  38.0926065  60.8364487  78.1755012  37.9988985  60.8780384
  77.0023292  37.8867750  59.9282551   6.3800278   8.9341669  55.9491348
   6.9331112   9.1259699  55.1918125   5.4970732   8.8573770  55.5875826
  33.9412912  60.2889598  32.1430050  34.7770723  59.8932517  31.8957840
  33.7517818  60.9083617  31.4382682  42.1307421  80.6046772  38.2077789
  42.4369335  80.7225132  39.1069984  41.8405485  79.6932650  38.1710696
  52.5310516  79.9649096  53.3384800  51.9713783  79.6269703  52.6393414
  53.2512951  79.3368483  53.3934116  46.4348729  69.4431842  15.6554256
  45.5293496  69.3695319  15.9568153  46.8523677  70.0243819  16.2911449
  73.2034629   5.5154161  54.2129612  72.9649776   6.0623388  53.4644794
  73.3721297   6.1378317  54.9203348  29.3752416  49.8766005   2.2740255
  29.4917949  49.3438209   3.0606590  29.4775327  50.7783950   2.5781999
  16.6358366  25.1897745  44.2960596  17.3529425  25.7633142  44.0257883
  16.0706177  25.7482557  44.8297787  78.1284714  52.8601885  55.4898071
  78.7087393  52.1126032  55.3461552  77.5947380  52.6078033  56.2432432
  69.5178111   8.9210999  26.0151420  70.4169544   9.0825808  25.7293068
  69.5683940   8.1073153  26.5165744  73.2836103  57.2404861  47.1077156
  73.7484837  58.0388212  47.3582983  72.3768854  57.5205564  46.9826651
  73.3514636  15.9052305  38.8358903  73.9618485  16.6245108  38.9980674
  73.3690732  15.7856398  37.8863549  30.3342540   3.0735127  51.8153872
  31.2566621   3.1233708  51.5645685  30.1550014   3.9138238  52.2372617
  78.8309669  62.8166485  45.7722044  78.7408590  63.4792852  45.0873470
  77.9367590  62.5154972  45.9332371  32.2695669  42.6880896  16.2209926
  31.9691881  43.0108321  15.3713833  32.4264797  43.4795249  16.7360054
  61.5588140  78.9674044  60.2616835  61.7115307  79.1113758  61.1955881
  61.9185305  79.7463369  59.8372984  39.3115695  44.5368064   2.8733812
  39.4897827  44.5746768   1.9336830  40.1292356  44.8182929   3.2837711
   1.3269081  29.2996817  58.7402916   1.4598790  29.4586687  57.8058004
   1.0505572  28.3846312  58.7906265  33.1399473  37.2967256  12.9948936
  33.2560905  37.2627509  13.9444099  32.8241380  38.1839860  12.8238235
  39.1255220  61.5681041  22.4518715  38.3841594  62.1623958  22.3360000
  39.8969205  62.1175635  22.3130642  40.6378969  23.1789411  16.1002765
  39.8082097  22.9691184  15.6715332  41.1480745  22.3710549  16.0431038
  32.4696579   0.1455622  31.4173818  32.6830807   0.8865671  31.9844747
  32.2272244   0.5452471  30.5820918  57.5184155  73.7816715  70.1310110
  57.0638704  73.2445002  70.7799053  57.5235415  74.6609735  70.5092001
  24.0815020  67.6993656  54.1004848  24.4612408  67.4673176  54.9479389
  24.1619110  68.6520863  54.0547991  68.8232040  51.2757921  47.7219772
  68.2268620  51.9047689  47.3157787  69.5595407  51.2163258  47.1132851
  79.1900151  20.6477289  70.3613806  79.8114818  21.2464838  69.9472523
  78.3320230  21.0343008  70.1863432  20.9448179  39.2247641  16.3656269
  21.6369327  38.8626302  15.8123909  21.0950836  38.8316501  17.2253357
  35.4258596   0.5441122  38.3990860  34.7312199   1.1477404  38.6624146
  35.6469487   0.0692301  39.2002344  68.9632591  14.4256890  18.9649807
  68.2195552  15.0193990  19.0681396  68.5726913  13.6000503  18.6786113
  44.6104511  35.5774129   6.1088024  43.9493783  35.1979840   6.6878114
  45.4449733  35.2772248   6.4689336  10.8305581  25.9927905  12.1794162
  10.0655635  26.3971293  12.5887046  11.5659316  26.2578929  12.7318416
  45.9814008  47.9127086  23.8141571  45.3026708  47.6029361  23.2144962
  46.5653165  48.4360850  23.2652031  65.8930510   7.3991518  59.3625164
  65.9261721   6.4891939  59.0673590  66.7687910   7.7412443  59.1828537
  64.6097946  61.0772038  57.9140711  64.9816370  60.7685232  57.0878267
  64.5542574  62.0272827  57.8116083  66.1109146  54.2211211  12.2157989
  65.8880123  54.8054088  11.4911304  66.0598548  53.3424914  11.8394600
  61.6039866   5.6240778  34.5139360  62.2486632   5.4768209  35.2059913
  61.5501588   6.5765314  34.4354677  84.3474375  33.1441558  15.2672516
  83.9458071  32.3110354  15.5139003  85.2125870  32.9040349  14.9354492
  42.2128280  41.5445388  16.0952030  41.8319925  41.3868869  15.2312980
  42.3491224  40.6701625  16.4600597  52.3913956  69.8311901  43.4582043
  51.8891335  69.3329668  44.1029835  53.2682228  69.8969316  43.8364601
  49.3294048  78.0160952  62.3410845  48.7928867  77.9165506  63.1275129
  50.1001024  78.5007334  62.6366949  11.2794097  36.2257922   4.6613584
  11.5351327  35.9365046   3.7854849  10.4299839  36.6487039   4.5354257
  85.7327461   8.8813800  50.7989359  85.7505131   9.6788740  51.3280106
  85.9492493   8.1808585  51.4142656  18.8269448  72.5263119  57.1850252
  18.6316597  71.9034910  56.4848900  18.7980962  73.3828020  56.7586136
  56.0782433  69.8091555  42.1169424  56.6335154  69.6081209  42.8702641
  55.2461386  69.3775749  42.3107767   7.8860290  54.1569538  55.5381298
   7.2833330  54.8168893  55.1953888   8.3833415  53.8666267  54.7735214
  16.2567163  18.8022089  57.6134825  15.3046107  18.7801981  57.7096272
  16.4583719  18.0520523  57.0541668  83.4472403  59.1642137  35.2937531
  83.1851301  59.4220133  36.1775351  82.7962074  58.5135336  35.0310683
  46.5005916  58.2401987  17.7871071  45.6048923  58.3438750  18.1083618
  47.0308607  58.1549497  18.5794292   0.8070996  16.1477482  20.2898121
   0.3660630  15.5416334  19.6945441   0.7429248  15.7294762  21.1483932
  72.7102636   4.5717347   5.3115116  72.3699854   4.6718228   6.2005697
  72.8538619   5.4680121   5.0077043  50.2573738  73.4530259  60.3736544
  51.1467514  73.8017471  60.3133774  49.7684679  74.1246821  60.8491325
  36.6455364  10.4504120  47.7741814  37.0641565  11.0275018  47.1354675
  36.5029693   9.6314061  47.2996950  75.9780305  50.8136924   9.1134773
  76.5919583  51.1310120   8.4511839  75.8118670  51.5744646   9.6701179
   1.4409620  58.0800934  13.1729579   2.2045071  58.3554239  13.6803281
   0.7125837  58.1260486  13.7922990   0.5120936  11.2343438   2.3770605
   0.6865635  12.1595200   2.2043214  -0.0915775  11.2390764   3.1198917
  17.7329356  75.9453548  25.0262308  17.9127604  76.6995103  25.5876064
  17.3220784  75.3060777  25.6082559  22.5623584  14.9228668  30.3506851
  23.0772161  15.3017998  31.0631204  23.0930758  15.0690305  29.5676088
  27.3235369  18.6990011  54.3075800  27.2796798  19.2708480  55.0739336
  28.1873655  18.8682508  53.9315653  32.9177976  17.1901655  31.0311437
  33.7059975  16.9036460  31.4925313  33.2283330  17.4459422  30.1625919
  72.1207752   5.4001093  59.0721083  71.1898496   5.2813387  58.8836908
  72.3546937   4.6436626  59.6099758  26.6559815   8.5885084  29.4341326
  25.8719444   8.2221246  29.0251303  27.2718167   8.7041748  28.7105322
  48.4021473  27.1533823  57.7840185  49.0814161  26.6530299  57.3318338
  48.4908915  28.0424333  57.4405861  65.9419713  69.3533225  22.9900980
  66.3859007  69.6499534  22.1956372  65.4626933  70.1225312  23.2980633
  25.4003263   5.9565806  64.8739719  26.3326550   5.7418215  64.8443842
  25.0848579   5.5438185  65.6779242  31.0758875  60.2956541   4.9294553
  31.1556549  60.0080152   4.0199886  30.7083411  59.5402248   5.3882204
   5.6373411  33.7988353  42.2383642   6.5672272  33.6209750  42.3794651
   5.2990758  32.9993653  41.8350601  84.3994152  30.4780293  58.9881849
  83.6348727  29.9052572  59.0485239  85.1446658  29.8789239  58.9445210
  41.5410095  47.2079058  20.1731620  41.0616200  46.7620607  20.8714710
  41.6435485  48.1058248  20.4885326  50.6928793  73.5456128  50.6922626
  51.1389616  72.7054180  50.5858946  50.8521131  74.0072496  49.8689985
  59.9908488  59.4755812   1.6297041  59.1128915  59.8480649   1.7114196
  60.4532855  59.7786601   2.4110685  14.7301841  10.6461596  61.9057035
  15.1461756  10.1674509  61.1887503  15.4604650  11.0097182  62.4064541
  82.2397321  39.7163955   7.8313861  82.2039741  39.8308933   8.7810360
  82.5739568  38.8277356   7.7096973  33.5216069  10.3851759  45.4362488
  32.7760315   9.8943722  45.0906134  33.1334972  11.1713099  45.8204317
  81.3499158  51.1852534   9.6573291  81.3154309  50.9260871   8.7365280
  81.7691653  52.0457073   9.6484314  44.6426325  55.2831693  20.9470783
  43.8482337  55.4402240  21.4574657  44.7561806  56.0802265  20.4293571
   5.6762177  73.4615870  45.8553648   6.6176302  73.2892783  45.8722782
   5.3933341  73.1617643  44.9914694  22.7362108  46.8638887  17.7732597
  22.2476643  46.8873628  18.5960613  23.3848345  46.1713715  17.8995071
  11.3181591  57.3961973  65.1656008  11.9600117  57.7836657  64.5705175
  10.6699669  56.9921875  64.5886660  81.2926516  78.3046721  49.9250984
  82.1932325  78.6265741  49.9646235  80.7943282  79.0323086  49.5530081
  56.1403153  75.3539504  62.1709251  55.6357594  75.1356436  62.9545069
  56.6380722  74.5595510  61.9775343  25.2732110  18.3719528  52.5014782
  25.2467227  17.4155819  52.4717569  26.0310912  18.5736287  53.0502701
  68.6737030  70.8422478   6.5111766  68.7962692  70.0830920   7.0811687
  67.7239817  70.9440954   6.4488254  29.2759939  46.8840863  17.6662288
  28.7781270  47.5794323  18.0961738  29.3436873  46.1945070  18.3266292
  33.3066392   7.4360210  50.7091427  33.3174729   6.7946690  49.9986649
  33.8377595   8.1628627  50.3838062  71.8021768  72.6873405  20.7020031
  72.4194329  72.4873360  21.4057289  71.4477962  71.8360718  20.4451213
  11.2281060  24.8377466  39.3979216  11.9792295  25.4289389  39.3475699
  11.5500188  24.0104580  39.0398717  26.1089492  22.6964569  66.8951273
  25.2147627  22.8666091  67.1912861  26.4996576  22.1780062  67.5985384
  84.8875319  11.7059386   3.9963565  84.7478329  11.2630094   4.8333345
  84.0748988  12.1875203   3.8416563  27.3668933  21.1603403  62.3590851
  27.5683117  21.8759513  62.9620457  26.4499259  20.9496617  62.5352097
  35.7451248  25.8770132  44.5819187  36.4427280  26.2986660  45.0837040
  36.1515784  25.6589770  43.7431765  12.1365315  68.2383521  20.8040786
  11.8574197  68.5385377  19.9390829  11.5238387  67.5363369  21.0231948
  17.6500463  59.5532846  30.7784128  18.5701847  59.4024801  30.9948301
  17.2481334  59.8115778  31.6078591   2.5910527  62.1504195  23.7967372
   2.7180821  62.8078265  24.4807792   2.2149117  62.6373298  23.0634785
  13.5341156  20.0338292  48.7220240  13.6854720  20.6071925  47.9706383
  14.4048810  19.8894298  49.0923595  64.7546563  69.6234412  60.2312851
  64.5325968  68.9315708  60.8543730  65.7111529  69.6155388  60.1954460
  59.4392872  12.9515326  35.8160543  59.4984388  13.8950121  35.6657910
  60.2272844  12.5939643  35.4068685  14.9627447  36.2812018  57.6796103
  15.4729187  36.7396331  58.3472919  15.6049919  36.0369372  57.0132160
  35.9294939  23.0092335  66.9026041  36.0408688  22.4352908  66.1447001
  35.0725651  22.7732491  67.2578764  65.2004466  71.1216087  70.0324059
  64.2989138  71.4189560  69.9097061  65.3707418  71.2518723  70.9652853
  13.7691266  78.6995892  15.7216728  14.3249566  78.9844753  16.4470196
  13.5316665  77.7987171  15.9413898  80.9079895  55.4194613  50.7970190
  81.2557253  55.1992412  49.9328327  80.7508621  56.3628979  50.7586718
  26.9171939  74.3335022  57.7647638  27.2678361  74.6475716  56.9313097
  27.5322613  74.6598656  58.4215832  29.4606552  50.7180710  14.7980809
  29.9338874  49.9205799  15.0353384  29.6176300  50.8194013  13.8592923
  32.6050854   8.3282566  63.5876179  32.1341348   8.8458562  62.9345226
  33.0283070   7.6336670  63.0829763  32.2224140  17.6595199  38.8496327
  32.6082492  17.6963818  37.9744172  32.9638767  17.4921584  39.4314027
  80.8303096  22.9894829  20.8344674  80.6444945  23.0853534  21.7685509
  80.7140961  22.0551848  20.6618023  24.2304850   0.9453388  53.7621403
  23.4572959   0.8162619  53.2128239  24.0287328   0.4786413  54.5731401
  81.1219391  67.7291031  31.7449951  81.0725364  67.8004689  32.6982522
  81.6356692  68.4899957  31.4741540  34.1543269  22.9209280  44.8102808
  34.8307443  22.4003673  45.2435303  34.6144509  23.3679891  44.0998936
   7.4157674  72.5299664  64.0473747   6.7965228  72.3843868  64.7626162
   8.2768995  72.4125774  64.4484997  69.5037740  81.1061557  14.7534404
  69.1518157  81.8789514  15.1951919  70.0187581  80.6598099  15.4255996
  41.9466095  65.5203374  29.9287544  42.8457242  65.7232984  29.6706234
  41.5360921  65.1919802  29.1288219  62.2033274  78.9320363  62.9881287
  62.9370603  79.3829332  63.4059334  61.4443133  79.1621460  63.5240173
  64.9917558  60.1621933  65.0836325  64.4909892  59.3469472  65.1125908
  64.3275234  60.8496780  65.0347281  65.0853971  77.2038798  61.5853739
  65.2038941  76.7291207  62.4080467  64.1384587  77.2083370  61.4456654
  79.9813169  44.8740570   8.3194910  80.3145545  44.0896599   8.7552724
  79.2562383  44.5586102   7.7800642  22.4421954   1.1600684  26.5422940
  21.6395640   1.1730563  27.0636821  22.9450488   0.4259089  26.8949699
  66.5507928  68.3397157  65.2789021  66.3861135  67.7015562  65.9730673
  66.6189006  69.1781766  65.7356024  17.6873595  79.1019256  37.4375391
  17.6080758  79.9809007  37.0669341  16.9399030  78.6228265  37.0797610
   4.8843220   0.8674099  48.5235882   4.4095227   0.1067645  48.1886005
   5.0577307   1.4018527  47.7486467  79.6266924  29.6926845   5.3133855
  80.4709350  29.2968190   5.0971161  79.1331874  29.6672213   4.4936071
  20.1360989  11.8861866  58.4120941  20.7872581  11.3524997  57.9566813
  20.2542686  12.7658308  58.0536366  19.2149723  65.5336666  65.1082563
  18.4329832  65.1198339  65.4735851  18.9562023  65.7970190  64.2251301
  60.7230088  51.4703126  63.3266163  60.7517559  52.3875518  63.5987854
  61.0011962  51.4833875  62.4108219  20.6636953   1.2290461  14.0650058
  21.5065742   1.1088553  14.5024312  20.1321507   0.4905648  14.3622208
  71.7525372  62.5851448  32.2054195  70.9470651  62.3897488  32.6842380
  71.6702470  63.5079331  31.9647527  20.1095033  38.0242872  37.9408669
  20.1810288  37.5474048  37.1140051  20.2695870  38.9380503  37.7049804
  50.2479601  18.6561000  41.3816357  50.7248211  19.2453432  40.7971478
  50.5329847  18.9077187  42.2600842  58.5867986  75.0412859  58.9232159
  58.6390879  75.6327517  58.1724358  59.1315146  75.4552598  59.5926476
  10.4191358  81.6758636  28.7793732   9.6871907  82.0596888  29.2622471
  10.2265436  81.8662894  27.8612900  17.5518775   8.2909286  16.9707406
  16.9054985   7.7166867  16.5600419  18.3817601   7.8232932  16.8767011
  38.8117807  55.5658551  19.8810802  38.9600431  54.9015899  19.2080246
  38.8110130  55.0769849  20.7040249  41.7298608  58.9071353   9.2018638
  42.5206476  58.8563605   9.7388111  42.0434587  58.8045056   8.3033357
  45.7316581  50.1339727  69.8872468  46.6633562  49.9186384  69.8448069
  45.4122941  49.9924784  68.9960580  20.2592206  10.3918254  48.7228346
  19.7932589  10.8013654  47.9938698  21.0561490  10.9129381  48.8207006
  43.1252270  67.0626839   8.7705742  42.5693887  67.8394564   8.7080942
  44.0033799  67.3788364   8.5581384  81.0023698  74.4737340  32.4999332
  80.4640374  74.6163292  33.2784581  81.1738691  73.5320289  32.4965239
  76.0193613  29.8141217  55.5463171  75.4827764  30.4046535  55.0175619
  76.4482191  29.2440891  54.9080563   3.5804504   8.9360440  54.7200775
   2.8420019   8.8634706  54.1153812   3.9769816   9.7823763  54.5134020
  56.1327504  77.4459411  66.3278341  56.1504933  76.5319521  66.6116333
  56.6278747  77.4520294  65.5086565  51.1763781  40.1844369  16.4909492
  50.5646461  40.2553201  15.7581554  50.6409257  39.8729172  17.2206627
  66.8209403  42.2379170  25.2791343  67.6556151  41.8198681  25.4907642
  66.8953460  43.1196578  25.6441436  10.6808066  31.6511226  55.4190922
  11.2143946  31.0110521  54.9481106   9.8642874  31.1890221  55.6088066
  86.7157452  28.4119487  49.5962954  86.4766497  29.2764592  49.2621040
  85.9955295  27.8427458  49.3251276  51.5562361  57.2854491   0.0688682
  51.0930627  58.0855866   0.3168188  51.4252131  56.6935308   0.8096061
  24.7627497   1.4470266  70.4423141  25.1776361   0.6175038  70.6789446
  24.0251541   1.5270209  71.0471153  40.9796533  73.7104256  52.4182034
  40.6955406  74.1745408  53.2056713  41.9357178  73.7297304  52.4606276
  20.0705481  17.7246118  65.6229258  20.9542918  18.0143821  65.3965092
  20.2043772  17.0243728  66.2616634  71.2642043  28.5006412  31.6515289
  70.4787772  28.8786669  32.0470367  71.4355748  29.0502937  30.8868347
  36.7688196  72.5117095  33.4567199  37.5619077  72.4763377  32.9219375
  36.2987857  71.7060788  33.2416378  20.9576320  51.3329704   0.9433303
  20.9629124  52.2654493   1.1594043  20.0684642  51.1643823   0.6315742
   2.6672585  69.5855374  51.8627691   2.4463303  68.6550183  51.9022179
   3.5156376  69.6117325  51.4202738  81.7020872   0.5379918  61.7418575
  82.0771643   0.2215686  60.9200144  80.8714911   0.9397615  61.4870596
  63.7712745   5.0517714   7.6253210  64.4110821   5.7630265   7.6568828
  64.0094887   4.4826758   8.3571754  15.7819539  71.4226325   7.7005659
  15.6989508  70.8229931   8.4420334  15.7798653  72.2943004   8.0960689
  64.2211335  43.7214612  13.2912956  63.3972853  43.2380428  13.3530365
  64.7485273  43.3897330  14.0179573  76.8838637   7.0521267   0.3477131
  77.7749246   6.7259820   0.4737173  76.4221137   6.8028052   1.1482463
  20.6082106  22.0994377  56.3947725  21.5164661  22.3361802  56.2070036
  20.2661324  21.7809010  55.5594587  44.0266269  37.4027498  10.2690254
  43.3308225  37.3716425   9.6124302  44.8334377  37.4787466   9.7596012
  76.3155358  46.2676306   1.6488920  75.5813926  46.7912473   1.3278089
  76.8604272  46.8895002   2.1311794  22.3018360  19.4447947  39.8251534
  21.4818430  19.9358916  39.8767900  22.4731588  19.1693282  40.7257080
   7.6156814  73.0194415  58.1233311   7.5744731  72.5565137  57.2865343
   7.9567153  72.3709441  58.7392712  77.1145258  80.4631276  60.9349298
  76.5577898  79.7161452  61.1546850  76.7078266  81.2049187  61.3827801
  29.4973874   7.0245290  60.6018209  29.9615407   6.3184154  61.0514879
  28.6489606   6.6453850  60.3723621  49.4513178  34.3250656  66.0211182
  49.0868044  35.1903844  65.8351517  49.3152285  33.8292742  65.2137136
  17.8311253   3.5072398  58.0416536  16.9442189   3.7302291  57.7589798
  18.3340013   4.3107885  57.9087782  21.3720083  34.8786616  64.4250298
  21.6850495  34.7450566  63.5303831  20.4180050  34.8822951  64.3469334
   9.7950704  79.4262628   2.1964754  10.6344563  79.8709240   2.3145364
   9.2414505  79.7695262   2.8978375   2.4878461  69.3717356  69.5424652
   3.1838185  69.3469269  70.1991558   1.7534596  68.9165862  69.9544716
  55.2925721  80.0420727  67.3652172  55.5789912  79.1354365  67.4757004
  54.9358347  80.0740722  66.4775562  77.4569266  54.5439108  21.8870483
  76.8965714  55.2857717  21.6592823  76.9891923  53.7788017  21.5522800
  14.3389571   2.5834984  51.3141203  14.7451460   1.7491052  51.5487051
  14.5229733   3.1570014  52.0580721  10.0624616  68.0306680  49.2574978
  10.1530082  67.6935978  50.1487970  10.0959522  67.2516699  48.7022734
   3.3238656  52.9766579  43.5148239   4.0907247  52.4139090  43.4077024
   3.1580312  52.9786224  44.4575453  54.8625534  27.9890306   3.9551054
  55.3535264  28.2841273   3.1882320  54.0430396  28.4823270   3.9192091
  56.5169852  67.3581846   6.8649183  57.3405498  67.8417690   6.9291101
  56.4358967  66.9104083   7.7070270  57.6974797  55.1882715  68.9199114
  58.0282141  56.0706658  69.0879107  58.4356340  54.7277732  68.5207844
  84.6736726  81.4653133  70.5170298  85.3004036  81.2536271  69.8252010
  84.4052157  80.6151195  70.8653593  34.6079575  33.0422689   9.4901691
  35.0524806  33.6557545   8.9051376  33.8662522  33.5375042   9.8378025
  11.0027587  12.8081346  63.9143038  11.7727315  12.4483645  64.3546915
  10.2872419  12.6751113  64.5360565  63.4879628  57.3199267  71.1990833
  63.0415771  56.4839335  71.3335705  64.1031990  57.1508641  70.4855442
  72.2715900  70.7036145  30.7793260  72.6030383  69.8357315  31.0098767
  71.6451785  70.5411847  30.0740194  71.4426687  23.6041546  53.7886953
  70.9799245  22.7914071  53.9925098  71.9375959  23.4051394  52.9939175
  66.0350936  52.6891239   0.5617796  66.1401194  51.7974265   0.8935533
  66.6856592  53.2014831   1.0418640   8.7055349  24.1678977  57.0821857
   9.2690110  23.5018587  56.6883326   8.5612303  24.8041916  56.3818026
  11.6505826   9.8258591  43.3111477  11.2904215  10.0871348  42.4636507
  11.7892325   8.8820851  43.2317829  40.2275705  16.9358921  65.4310465
  39.7947574  17.0072556  66.2818193  39.5726275  16.5311015  64.8623371
  18.4009082  45.9434958  30.2115440  17.5336415  46.2666245  29.9672723
  18.2630641  45.0186081  30.4160333  54.8535565  58.5564919  14.2592967
  55.2326194  58.7760158  13.4082079  55.5777025  58.6570711  14.8771369
  10.0519395  55.3819656  45.4027033   9.4742090  54.6585321  45.1595926
  10.9173608  54.9808693  45.4827023  36.8827081  16.9885576  45.6184864
  36.1302161  17.1190476  45.0414610  36.5061450  16.6475701  46.4297581
  19.9130023  26.2968302  56.2378502  20.0946403  27.0594001  56.7871428
  19.4222820  25.7034707  56.8064880  16.0333717  26.0316157  62.6555681
  15.8624828  25.7613277  63.5577726  16.0609126  25.2123976  62.1612453
  26.6006517  22.4720263  60.1401806  27.1503139  21.8080902  60.5564594
  26.3261890  22.0725727  59.3147469  18.8975108  16.0687935  51.0144329
  19.2884529  16.6967487  50.4069233  19.6250319  15.5049539  51.2771654
  44.1586018  19.9350452  62.4852800  44.1185617  19.0062010  62.2575140
  44.7840357  20.3073478  61.8636274  76.5429022  56.2213850  41.1558390
  77.2780945  55.7009315  40.8320332  76.7557480  56.3916731  42.0734072
  85.0569528  62.6192530   9.7225795  85.6751864  62.1702965   9.1459880
  84.3142884  62.0192607   9.7910724  66.2304252  50.2933593   5.4695640
  65.4810040  50.8454384   5.6927429  65.8548611  49.4236244   5.3326593
  20.3431892  41.8808079  21.3088560  21.1654520  41.6146374  20.8974385
  19.6668124  41.4201832  20.8122993  29.1611552  61.1162742   7.7306638
  29.9571439  60.5850954   7.7087007  28.7107200  60.9067185   6.9124780
  17.1480119  15.6702185  65.1351738  17.9752398  15.5570674  65.6032801
  16.4994681  15.2309549  65.6853294  52.9986756  57.1600409  10.4614864
  52.7065080  56.3055869  10.7789455  52.7380794  57.1753128   9.5405708
  47.9415798  27.5108957  69.8742676  48.0329180  26.5965939  69.6060467
  47.9621363  27.4830747  70.8308411  71.8473444  78.9850194  67.2123861
  71.5457210  78.9319412  66.3055038  72.7228055  79.3672628  67.1516418
   9.2922074  76.6612984  61.9963074   9.1696436  75.7855303  61.6299200
  10.0482089  76.5743632  62.5769424   3.8242134  23.0923700  43.4809303
   3.2238576  23.3002543  44.1968870   4.3268913  22.3428202  43.7998724
   5.5900699  37.1527147  39.8281169   5.7112497  37.8129816  40.5104637
   4.8745555  36.6043067  40.1498604  57.1105402  38.4188096   8.4768949
  57.4600499  38.9918186   9.1593395  56.2029236  38.7025510   8.3675466
  57.9196566  35.4799529   5.1719700  58.8353436  35.2017261   5.1535497
  57.5221007  34.9498172   5.8627210  52.9156637  25.1871991  70.1723719
  52.3477554  25.1396132  69.4033146  53.1484699  24.2768598  70.3548908
  49.9095249  13.3656967  47.3690176  49.9322796  12.5062060  47.7897215
  50.6581879  13.8334155  47.7391195  66.7406290  25.6754144  34.1588340
  66.1928409  26.3644512  33.7828098  66.3223022  24.8597486  33.8832889
  63.6572474   3.3508070   9.8848377  64.2174452   2.6474746   9.5566021
  62.8296845   2.9188593  10.0964771  30.6301688  49.1897757   7.4303518
  31.3143920  49.7699292   7.0964466  31.0997403  48.4077020   7.7203451
  28.8641104  59.9596007  10.9519134  28.6259024  60.8477946  11.2176262
  28.5479552  59.8860760  10.0514255  14.4653249  37.6387978  30.2656889
  14.0018022  38.2858968  29.7340488  13.8702524  37.4555445  30.9926963
  80.9133968  78.9002259  58.4481764  81.6976103  78.4789254  58.7999487
  80.2338490  78.7224324  59.0984344  54.6451252  80.3628238  23.5107647
  54.2983788  81.0762628  24.0464912  54.0559786  79.6277364  23.6804329
  53.5314363  56.9857092  20.2458606  52.8119176  57.4362143  19.8036323
  53.1006163  56.3541801  20.8218799  72.7790540  68.0937942  19.7943817
  73.6783498  68.3954437  19.6659122  72.5436299  67.6816328  18.9631591
  67.3102944  44.6122025  26.4349876  67.2762340  45.2170302  25.6938682
  66.9820421  45.1221259  27.1755729  32.4383640  22.0023751  28.2779193
  31.8110919  22.7253938  28.2754683  32.3200488  21.5855312  29.1314268
  37.7458143  19.2948258  65.5270386  37.4283600  19.7107577  66.3285732
  37.3953485  18.4048605  65.5640268   9.5435184  25.3623796  70.4383516
   9.7537178  25.7159233  71.3026714   8.7145305  24.9005175  70.5636263
  83.4969180  62.4187024   3.3200393  82.5469678  62.5357111   3.3081470
  83.8476937  63.3091100   3.3391414  33.1127167  24.1313410  56.8885851
  32.3198462  24.1512918  57.4244881  33.6422825  24.8578286  57.2172308
  18.6469245  26.2567997  68.5712337  19.6022391  26.2766457  68.6279058
  18.3502722  26.4375758  69.4631672  27.7169836  48.4418281   4.8172794
  27.6464980  48.4777762   5.7712017  28.6586869  48.4530540   4.6461044
  73.2537978  73.0295356   9.4569431  74.1246026  72.8906019   9.8292671
  73.3509248  73.8041552   8.9030777  59.3621414  45.0839169   7.8646551
  58.9692467  44.7336967   7.0651470  59.8854964  44.3610899   8.2108532
  41.4772892  12.2780323  41.0177231  41.0034275  11.4466476  41.0398149
  41.0882568  12.7942824  41.7236805   7.1807688  31.3363981  53.7691641
   7.0969987  31.9509888  54.4982004   7.5489968  30.5457544  54.1635323
  53.3320420  57.2402664  15.8698116  53.8124078  57.6347561  15.1419006
  53.5064500  56.3023479  15.7915626  56.3714617  47.9779728  10.0484405
  56.3068908  48.8786312   9.7308288  57.1454566  47.9775144  10.6116138
  14.4582215  73.5323174  17.4870144  14.7594920  72.6295407  17.3847328
  13.9887085  73.5350831  18.3211456  28.8832140  29.1147041  69.5810223
  28.9000106  28.6894822  68.7236214  28.1618524  29.7412539  69.5235491
  62.1604087  74.8387241  51.3794756  61.7476776  74.6089268  52.2119856
  63.0016067  74.3822479  51.3951254  18.9564884  31.1634088  54.3035984
  18.0896544  31.4553761  54.5857048  19.4296396  30.9954977  55.1185608
  22.7680397  27.3099828  50.4928255  21.9961882  27.2311211  49.9322414
  23.5039020  27.0984960  49.9183559   4.2670655  19.6731675  65.0445604
   4.7175699  19.3812132  65.8370495   4.8704460  20.2980614  64.6424770
  -0.0636714  78.0524213  68.3477783  -0.4929417  78.0915580  67.4931240
   0.8720333  78.0704431  68.1468725  32.8406954  21.5398526  47.9305696
  32.0983505  21.1049724  48.3501339  32.9610467  22.3459196  48.4325695
  56.4254206  73.0297001   2.8934084  56.9561761  73.5358842   3.5084758
  56.9565528  72.9860242   2.0982872  79.9560460   9.9713707  49.9514198
  80.0276669   9.8869789  49.0006399  80.1946070   9.1073316  50.2872133
  57.1155851  61.6042312   5.2448736  57.3163312  61.0686024   6.0123573
  57.2219818  62.5060161   5.5476795  85.2906389  38.0909252  65.1866865
  84.7664201  37.7967525  65.9315920  85.8843268  37.3614955  65.0086546
  67.0075577  73.2530911   1.4705215  67.0216840  73.7793835   0.6711136
  66.7045205  73.8563474   2.1491085  70.6700652  36.7835949   3.8651882
  71.0940974  36.0860552   4.3650566  70.2093165  36.3275175   3.1609617
  13.9828444   4.1085738  60.1894093  13.6039603   4.0464899  61.0662317
  14.8344636   3.6782351  60.2654600  60.1436329  23.6684513  43.0114698
  59.7903395  23.5852337  43.8971853  59.4035482  23.4677267  42.4385643
  40.7652760   5.3120571  37.9282665  40.8228970   5.8728832  37.1547127
  41.3009071   5.7555199  38.5860467  16.3682008  21.3795996  67.0345116
  17.1889770  20.9517860  67.2785044  16.3045382  21.2534165  66.0878038
  25.8968711   1.3650922  37.1347737  25.9881616   0.4138485  37.1898508
  26.3540816   1.6032854  36.3282657   0.7025797  51.0004325  39.4346595
   0.4225904  50.5438037  40.2279615   0.0462825  50.7653708  38.7787223
  23.7298965   4.0530178  34.7318625  23.4159017   4.7369331  35.3233862
  23.2518125   3.2677665  34.9984097  16.7679453  32.1595478  25.7617664
  17.1436846  33.0135727  25.9755230  16.4964342  32.2394252  24.8473620
  42.7477568  42.6905899   1.1315094  42.6700621  42.6062317   2.0818124
  42.9806524  41.8120273   0.8313070  22.4693465  26.9087219  55.3578091
  21.6010761  26.5335870  55.5048275  22.9204631  26.8040395  56.1955261
  39.3975663  31.2652516  65.3314447  39.0793800  31.0056400  64.4668150
  39.8053575  30.4742861  65.6840229  48.9664608  59.9445279  21.8998180
  49.6128552  59.8326858  21.2027488  49.4518393  59.7717436  22.7065311
  31.1202159  66.5242537   7.2399650  30.1669805  66.5660317   7.3163114
  31.4081975  66.1157043   8.0562912  26.5928435  10.1901472  22.9680490
  26.3986135  10.5904114  23.8155723  26.5117335  10.9079039  22.3399758
  62.5267056  72.8521259  37.6165605  62.9073125  72.2340335  38.2405257
  61.8372509  72.3545982  37.1768451  24.3519425  19.8850548  45.8258677
  24.8858714  19.4709444  45.1478815  23.4726357  19.5335531  45.6862402
  15.8810222  13.0014944  47.3222685  16.2844718  12.5443470  46.5843821
  16.2313616  13.8909411  47.2734737  12.0000112  29.9226832  36.7566657
  11.8708932  30.2760935  37.6368141  12.3963606  29.0631771  36.8994522
  62.3445702  33.2362509  65.1191950  61.4781618  32.9410863  65.3992844
  62.6113605  33.8656473  65.7892036   6.9910944  12.2496760  34.1276574
   7.3462784  11.3806117  33.9411020   6.6559577  12.5572944  33.2854652
  65.5598354  20.7959294  39.0397429  65.1098776  21.6402745  39.0106082
  65.9270716  20.6898260  38.1621814  38.0884385  25.3409314  55.8482552
  37.8251195  24.4633770  56.1253738  38.7009549  25.6317449  56.5238905
  35.7721829  34.8811746  60.6614923  36.5363383  34.5540643  60.1868391
  35.0299597  34.4272065  60.2624321   7.0678341  23.8141775  70.4761267
   6.8865663  23.3536482  71.2954426   6.7728847  23.2123160  69.7927523
  20.9269691  34.9756813  61.4146757  20.5623078  34.8161817  60.5441523
  21.3983893  35.8043003  61.3287354  19.0377319   8.7914735  50.4818106
  19.1727066   7.9944187  49.9692488  19.4171071   9.4879740  49.9459076
   1.9279532  18.2573688  52.9247904   1.1878893  18.4452140  53.5020733
   2.6879585  18.2433283  53.5065365  30.6632948  29.2579269  53.5832262
  30.2186012  29.5288730  52.7800655  30.3703690  29.8865819  54.2429399
  15.5361087  79.2559753  70.0556755  14.8486382  78.6068894  69.9063301
  15.2170569  79.7776627  70.7920742  73.0210298  26.6587754  11.0432850
  72.7841847  27.1622665  10.2644096  73.3675378  27.3100098  11.6532455
  21.6869020  15.2545202  51.2541389  22.1140289  15.2201426  50.3982115
  22.3376751  14.9016023  51.8609142  69.7751245  73.6043288  51.1649036
  70.7300887  73.6008174  51.2301874  69.5986995  73.7981356  50.2442789
  35.7195266   5.5734933   9.8320709  36.1728176   5.9102595   9.0591846
  35.9667762   6.1739314  10.5353294  15.5305362   9.8441494  68.5050201
  15.4205894   9.2327136  69.2332315  16.4711010   9.8384720  68.3274364
  16.6354806  69.4828708  48.1165218  17.0470149  68.8757570  48.7315702
  15.7206590  69.5228286  48.3953285  78.8579037  40.5905008  70.1157045
  79.4637879  40.3330326  70.8105755  79.3338480  41.2544107  69.6167707
  58.9843100  63.9904268  11.0221992  58.8666575  63.0506332  10.8837257
  58.8828700  64.1079076  11.9667278   4.1822103   4.5434546  48.0097914
   4.2940867   4.9436608  47.1474981   3.8302466   5.2461934  48.5561514
  39.9035931  18.5003877  55.4971504  38.9821219  18.6892629  55.3198099
  39.9047518  18.1148362  56.3732672  30.3027272  25.8463788  48.6787796
  30.4411149  25.6658030  47.7490139  29.3527603  25.9210324  48.7694645
  70.8580297  31.0200878  30.0066600  71.1320537  31.1130394  30.9190784
  70.8816951  31.9110276  29.6575199  81.2631401   9.7135508  44.3335724
  81.1676064   8.7614262  44.3573141  80.3931948  10.0357461  44.0977383
  20.4240799  52.4469280  51.1868382  19.6726894  51.8539762  51.1794996
  21.1417747  51.9197607  51.5378952   5.9156781   3.8493344  49.7882223
   5.3700089   3.3040577  50.3549242   5.3149956   4.1734314  49.1171217
   5.1797259  47.3000050  56.1150694   5.3480762  48.1896591  55.8045816
   5.1620501  47.3785305  57.0688820  15.3659785  26.5779638  46.4514780
  14.5242119  26.7827725  46.0443974  15.1682222  25.8743644  47.0695972
  55.3091352  48.5273077   6.9421182  55.8647221  47.8504963   7.3287473
  54.7702330  48.0593164   6.3043104  33.9783192  23.7607765  54.3729782
  33.7322593  23.9246464  55.2833796  33.1462431  23.6173272  53.9220858
  52.1387577  47.8509283  69.8416615  52.3769760  46.9532251  70.0731993
  52.3052931  48.3558083  70.6376457  39.0246558  19.3891978  58.7450981
  39.7014809  20.0660133  58.7527752  38.2491970  19.8218822  59.1024208
  62.0780104  56.9058795  30.7986103  62.9244893  56.4759012  30.6768547
  62.2135513  57.4959584  31.5400062  60.4379266  38.5478503   2.5454937
  59.8457401  37.8643067   2.2319399  61.1548203  38.0705576   2.9632078
   0.7745654  76.2990780  60.3325224   1.4593322  76.1621023  59.6778774
   1.2324650  76.2511505  61.1717272  10.4524469  32.5192189  58.1669283
  10.7174337  32.2137070  57.2993612  11.0435092  32.0688748  58.7703085
  27.5738835  11.8238664  66.5625381  26.7790675  11.3701844  66.2820578
  27.9802489  12.1206784  65.7482862  23.3595324  27.9215527  70.6744242
  23.8638926  27.6060152  71.4242840  23.9660287  27.8631878  69.9361897
  27.7340385  62.4183186   2.2292553  27.5674171  62.8897913   1.4130579
  28.6882485  62.3918970   2.3000894  46.3656712   4.9540955  63.5052252
  46.9651794   5.5789518  63.0973339  45.7803535   5.4949027  64.0354729
  29.5637858  52.3114021   3.4756122  29.4280336  52.0836981   4.3953691
  29.0552937  53.1125243   3.3496318  80.9277639  81.2034316  55.8306837
  80.1315817  81.1136058  55.3069925  81.0029230  80.3708844  56.2969971
  43.6306667   1.2360836  46.7074823  43.3567715   0.3191388  46.6868496
  42.8885269   1.6990426  47.0962381  23.6105990  56.6863294   8.3719097
  22.8195893  57.1668859   8.6160408  24.1526439  57.3318787   7.9183851
  28.9677668  44.7685528  32.6467395  29.8887229  45.0220537  32.7084637
  28.5004067  45.4415941  33.1415367  56.3586205  29.6543916   7.1303306
  56.4689725  28.8300152   6.6565595  55.4957598  29.9707754   6.8627344
   4.8472980  15.4987824  54.3236399   4.7539067  14.6802258  53.8363218
   5.7928139  15.6353199  54.3835449  67.3905175  75.1417287  24.0575634
  67.9699271  75.0187977  24.8094974  67.6885503  75.9581526  23.6564861
  85.4433965  17.2405648  35.2215195  85.4906274  17.9920745  34.6305609
  84.5059576  17.0891201  35.3419566  57.4784463  69.2022403   3.9348589
  57.7104848  68.3255823   3.6284910  56.9381683  69.5659025   3.2333694
   7.9750526  19.7433817  63.2769060   8.8835418  19.5756435  63.0264187
   7.5931484  18.8729727  63.3899069  69.7138541  22.0642848   0.3151928
  69.7302955  23.0190392   0.2488313  68.9434999  21.8023832  -0.1889862
  64.4092755   1.9696486  13.3330951  64.0205084   1.1633552  12.9939972
  65.2278386   2.0641530  12.8460060  30.9325075  31.5480328  69.7724724
  31.7124891  32.0746946  69.9470949  30.3176951  31.7940974  70.4636240
  68.1951282  65.1118178  41.3915110  68.0767200  64.5543427  40.6224680
  69.1294167  65.0502784  41.5903854  27.8881407  24.0211082  46.6534710
  27.5081444  24.7937155  47.0717001  27.1460915  23.4311795  46.5208769
  19.0478349  43.1436777  30.5950260  18.9982212  42.2713757  30.9859896
  19.8101497  43.5485744  31.0087490  83.1076714  52.3643351  69.6969843
  83.3500808  53.2878876  69.6297598  82.5807568  52.3124409  70.4944134
   8.9009092  14.0783989  68.5654974   8.7205598  13.8584757  67.6515293
   9.8338315  13.8951087  68.6763573  20.0607467  17.9596794  49.2640543
  20.8378077  18.0614221  48.7144566  19.3341815  18.2346392  48.7048292
   3.4759647  41.0442591  68.9500713   2.6235107  41.4673090  69.0529442
   3.6925933  40.7257605  69.8263502  42.0124435   2.2517544  62.6222897
  41.8865347   1.5812799  61.9508410  42.9478312   2.4520656  62.5883102
  19.0569121  76.3073499   9.5135677  18.8912923  76.0286672  10.4141986
  18.5378987  77.1049769   9.4103777  16.6557133  37.7540278  43.1877089
  17.4729037  37.5942969  43.6598444  15.9771729  37.3807645  43.7502813
  41.9696996  75.8557756  27.6882911  42.2602019  76.7476470  27.4974895
  41.3959894  75.6290139  26.9563985  25.9999561  20.9848762  57.8413868
  26.7826509  20.7365537  57.3494959  25.4489183  20.2023530  57.8257036
  47.2708559   9.6109116  54.7887039  47.2945261   8.6540425  54.7801876
  46.4073133   9.8322487  54.4400883  67.4099872  73.3294655  42.3195267
  66.5675667  73.2482816  41.8723488  67.5096539  72.5042827  42.7942610
  65.3868764  79.4406040   6.7273651  64.8308485  80.1099809   7.1261154
  66.0901587  79.3041285   7.3621879  26.4978838   6.1127371  53.3452988
  26.3232780   6.1173636  54.2864275  26.9525647   5.2848375  53.1901264
  16.0778195  78.1030307  32.9747462  15.8349235  79.0279467  33.0167556
  15.9276301  77.8571768  32.0619321  38.2962041  53.6502417  11.0775791
  37.7137356  53.1384285  11.6388355  38.6259519  54.3462344  11.6459880
  12.8944874  19.1923499  45.0544500  13.7860119  18.8866508  44.8872280
  12.8455567  20.0406623  44.6137619  28.5219867  61.0314603  50.7286310
  28.9251239  60.7279844  49.9152327  27.9413516  60.3165646  50.9894323
  33.1238794   7.6912880  70.9654427  33.3696079   8.5431480  70.6046343
  32.1667075   7.6987267  70.9665346  64.0679169  24.4505119  69.7470713
  64.8625660  24.4206429  70.2798653  63.9638138  23.5562706  69.4219112
  45.0218391  13.4633446  54.4257021  44.5673275  13.9602554  53.7454557
  45.3319693  14.1278422  55.0409174  76.0550349  44.0811767   8.5629068
  76.9388764  43.9368241   8.2249532  76.0655158  44.9830373   8.8834844
  71.2878463  57.3518534  56.2298250  72.1723029  57.5645752  56.5276814
  70.7379517  58.0425186  56.5997314  40.5915349  51.0109158  16.0253082
  41.1466043  51.2706359  16.7606102  40.4768472  51.8135829  15.5165802
  47.9354196  40.4766730   0.5090938  47.8284817  40.8539469   1.3822828
  48.4552424  41.1227951   0.0310360  11.4111578   9.1870457  60.0683212
  10.8244789   9.5799977  59.4220829  10.9925973   8.3576167  60.2987289
  32.1245861  28.8240409  66.7233419  32.4962258  28.4019661  65.9487629
  32.8426933  28.8383484  67.3560715  37.0038509  42.1725327  20.4146228
  37.5000166  41.5967408  19.8327957  36.7431318  41.6095184  21.1435066
  29.8757315  26.7148304  52.8201914  30.2999783  27.4378490  53.2822418
  28.9603949  26.9840264  52.7432203   8.5102165  40.3902340  48.6104250
   7.8509432  40.4240894  49.3035650   8.5643107  41.2895823  48.2871962
  26.3086898  48.4552712  57.8959751  27.1500785  48.4750123  58.3519459
  25.7327802  49.0001721  58.4322977  80.3755245  63.8189049  62.1674585
  79.5189223  64.1501493  61.8977499  80.9072337  63.8543708  61.3723087
  48.2002544  20.5962133  43.6052132  48.2398224  20.3456402  44.5281839
  49.0996838  20.5000401  43.2921505  63.6656189   9.4668728  57.7790403
  63.3824539   9.3401563  58.6845779  62.8971338   9.8263872  57.3358631
  24.5940247  65.7498033  11.4935909  23.8676396  65.6477435  10.8786331
  24.3849602  66.5465863  11.9810997  39.7636747  14.9155462  50.7570314
  40.5877018  14.4358277  50.8411980  39.1668558  14.2949128  50.3388739
  60.3089731  59.3894227  13.1672989  61.0923164  59.5743759  13.6853729
  59.6098702  59.2975600  13.8146434  17.7210045  23.4011507  26.5698314
  17.5694573  22.4726439  26.7462945  18.6498618  23.4536648  26.3446689
  64.3559408  14.4768274  48.5361433  65.1275921  14.8950577  48.1542158
  64.4292068  14.6504831  49.4746017  19.2186248  52.1921539  28.7098765
  19.4441211  52.6365614  29.5271206  19.5287418  52.7821970  28.0229211
  23.4439421  24.0961599  53.9724970  23.5295081  23.5275722  54.7377539
  23.5234380  24.9832678  54.3231487  80.8254781  27.9263759  56.5251875
  80.0592419  27.9223585  57.0988607  80.6514844  28.6282849  55.8980656
  20.2242708  33.8774085  44.1381359  19.3008399  33.6727476  44.2851782
  20.2316284  34.8102045  43.9235020  16.5263855  25.6087017  65.3783369
  15.9013391  26.0257149  65.9713411  16.9252467  24.9132013  65.9012318
  14.3922412  24.8642445  28.9600611  14.3394578  23.9488196  29.2347288
  14.8039830  24.8318553  28.0965495  33.1222129  28.5765886  55.0214815
  32.2732329  28.4276462  54.6052074  33.5464883  29.2350411  54.4713354
  82.6788323  66.4550288   4.4401155  81.7928451  66.2553366   4.1378246
  82.6917880  66.1649187   5.3522049   6.1084723  30.2727294  40.4120111
   6.6905016  31.0312867  40.3665733   5.3302205  30.5948758  40.8667374
  55.1518488  28.2211757  55.3424072  55.5966616  27.4967957  55.7824612
  54.8491812  28.7844968  56.0546494   3.8893992  79.7626078   2.2309183
   3.9948923  80.1255949   1.3515189   3.0471522  80.1039479   2.5314772
  50.7993078  16.2521994  38.4859872  49.9125957  15.9971642  38.7407923
  50.6722641  16.9405448  37.8330922  84.1991466  22.9383822   1.0285984
  83.2604402  23.1241401   1.0050426  84.5576470  23.5919722   1.6290413
  15.5951023  14.6015787  44.1312790  15.9127378  13.8212180  43.6769915
  16.1348474  15.3142250  43.7891674  39.0078235  24.8611212  49.2890310
  38.3904314  24.4549489  48.6806917  38.5973835  25.6923389  49.5274591
  62.5677984  55.1675530  12.6556430  63.1791490  54.5260687  13.0175624
  62.5219100  54.9552615  11.7234169  59.1190906  79.2769451  58.9605665
  58.3843796  79.5360394  59.5167160  59.8788977  79.2978309  59.5423651
  15.4181898   4.2507282  57.4150610  14.8067796   4.1315719  56.6882801
  14.9928403   4.8931861  57.9830074  24.5604730   0.2898012  48.3996725
  24.5165658   1.2394732  48.2881975  24.6966743   0.1649344  49.3388700
  48.5891514  31.0949172   8.5135208  49.3960374  31.1007847   9.0284286
  48.8702004  31.3149150   7.6253544  40.0741082  60.9779807   2.4778734
  39.7547071  60.9719856   1.5755544  39.8938470  61.8647702   2.7898679
  21.7256689  34.5851922  56.1786890  22.6766586  34.6939421  56.1836338
  21.5665007  33.8983893  55.5312347  47.0223945  79.5617469   3.5728727
  47.9093247  79.2074211   3.5093294  46.7015617  79.2536886   4.4204555
  38.0248928  21.4125967  54.8119259  37.2937274  21.6190815  55.3941584
  37.6210237  21.2976885  53.9517403   2.8039074  18.5053909  50.2636909
   3.2313830  17.6719129  50.0666857   2.4592407  18.3942521  51.1497402
  15.2688551  42.0340681  63.5766745  15.5145550  41.8269062  64.4783115
  15.7167125  42.8591633  63.3899355  24.1141828  15.4531157   5.5817924
  23.1719907  15.3086007   5.6691251  24.4949659  14.5754493   5.6124340
  60.3984182  51.5059491  10.4403434  59.5928567  51.2195619  10.0099025
  60.6315606  50.7803168  11.0194240  28.7075067  52.9923820  67.9428625
  29.4284678  52.6607800  67.4076176  28.9009452  52.6785088  68.8262033
  28.9364648  11.8483543  64.1091824  28.9871478  10.9655547  63.7426758
  28.5289383  12.3712969  63.4187603  35.1557970  19.6666920  49.7185230
  34.5901966  20.3652072  50.0477743  34.5624280  19.0777302  49.2524004
  13.7033188  16.0424447  56.3409662  13.5890174  15.4102981  57.0505857
  14.5741117  15.8545411  55.9907627  20.9830165   9.1458863  28.0574226
  21.0419631   8.2702339  27.6753354  21.8219900   9.5559329  27.8471422
  46.5857935  16.4065289  68.4334278  45.6571293  16.2901139  68.2327700
  47.0404148  16.1048472  67.6469564  81.7876332  59.5352121  23.1844459
  82.5554078  59.2964526  22.6650749  81.5491860  58.7298782  23.6435924
  54.1326952  34.3164182  53.1049299  54.2680788  34.0505481  52.1954155
  54.1373396  35.2732277  53.0779934  46.1119461  32.4677658  68.4880257
  47.0332146  32.7256870  68.5192442  46.1284018  31.5126753  68.5493946
  47.6753092  37.5029922  66.9734669  48.5041475  37.2851539  66.5470791
  47.1505165  36.7060232  66.8981838  68.0688375  74.2259319  27.9595218
  67.2359579  74.6888788  27.8688274  68.6502021  74.6534212  27.3306404
  58.6165667  19.1783965  36.3409925  57.7848959  18.7045407  36.3365197
  59.1546297  18.7239695  35.6927538  73.1487226  40.3179502  63.2623291
  73.4256363  40.9405470  63.9345837  73.0673361  39.4847679  63.7264585
  35.1985979  22.4671960  51.4460087  34.9236727  22.9039192  50.6398344
  35.6977439  23.1320882  51.9203568  83.5700321  25.4179597  45.0931263
  84.1427898  25.4029846  45.8599138  83.6205101  26.3189936  44.7740316
  81.7574024  19.3205571  40.3615665  80.8589745  19.0011251  40.4453182
  82.1014309  18.8686585  39.5910716  46.3731432  39.3280387  68.4246874
  46.7356300  40.2021551  68.5687733  47.0190382  38.8891625  67.8711224
  20.1584991   0.5681050   8.3123146  20.9881051   0.7954562   8.7321935
  20.4125341   0.0853980   7.5257431  30.1351714  14.5903969  54.6639585
  30.9436822  14.7251058  54.1695976  30.0266576  13.6397588  54.6912050
  75.5670975   5.5436719  17.9627166  75.4071163   6.4529670  18.2153354
  76.4170800   5.5632556  17.5229679  23.6867269   6.1624968  21.5347419
  23.6771949   6.0669864  20.5823646  23.7166055   7.1080840  21.6803394
  74.8409455  69.3414386   4.0354477  74.7698443  68.4665378   4.4171939
  74.8766463  69.9296887   4.7897134   5.5293306   5.9235776  29.3599258
   5.7227548   5.2167476  28.7441288   4.5757111   5.9152711  29.4422279
  33.0199369   4.5684731  24.0691219  32.7404722   4.6544946  24.9805675
  32.8965171   5.4418338  23.6973224  42.1710396  39.3637347  52.1862078
  42.6634073  39.6294594  51.4095497  41.9374657  38.4503245  52.0208073
   7.0718392  19.2167962   5.0176273   7.1433385  18.4727872   5.6156002
   7.7953394  19.7928584   5.2644668  27.2529920  22.3714507   1.7617403
  27.8801521  22.8561795   2.2983394  27.4577506  21.4510549   1.9266067
  67.4347115  54.9519634  37.7867723  66.9340563  54.2172766  37.4320698
  67.5626135  54.7314167  38.7093949  13.0835435  70.8805227  64.8109579
  13.8523481  70.7846212  64.2488384  13.4421823  71.0868645  65.6741095
  63.1426291  34.5757306   5.7918821  63.6429666  35.3893245   5.7289777
  63.7381153  33.9023126   5.4630457  27.0064282  65.2243519  69.5852184
  26.7833591  65.3200245  70.5111313  26.1634994  65.1098537  69.1463661
  61.3581848  49.5014715  61.2030411  61.9756174  49.1420031  60.5660248
  61.6412735  49.1383553  62.0422316  30.4444726  55.0051558  22.2898040
  30.3338083  54.5302737  21.4661060  31.3173946  54.7568095  22.5940357
  46.5428066  69.2538071  65.8866549  45.5976820  69.1141319  65.8278656
  46.6411352  69.9619579  66.5231180  55.3895617  57.2898149  30.6119633
  54.6514082  56.8820000  30.1591349  56.0881948  57.3135138  29.9580693
  71.6839202  17.3496926   5.2581249  71.2893089  16.4792359   5.2050481
  71.2602409  17.7591479   6.0124956  37.7745899  41.4258445  25.9746299
  36.9213374  41.8065036  26.1826931  37.9870971  41.7733825  25.1084266
   0.9865854  68.6661577  61.8558931   1.8007657  68.2223988  61.6183710
   0.3209207  67.9791117  61.8229151  85.7447720  63.4323025  53.2370377
  85.2332687  64.2025757  53.4845781  86.3614273  63.7552929  52.5800419
  31.4435330  24.7761278  36.9517779  30.6285324  24.3438845  36.6965079
  31.7970124  25.1236277  36.1329198  69.9381733  63.5598564  46.0876656
  70.5546808  62.8325129  46.1720324  70.2008581  64.0042114  45.2815771
  34.8085674  19.4463838  17.6613460  35.6203111  19.0441621  17.9704128
  34.6321042  19.0170205  16.8242393  52.2808743  78.7622595   7.6211882
  53.0966997  79.2470932   7.4963200  51.9953918  78.9971685   8.5041082
  82.7670043   2.3370008  54.6772575  82.8524297   1.6798143  53.9865732
  83.5590928   2.8689890  54.6009684  18.8615640   4.5327676   8.9762912
  19.6348461   5.0266946   9.2488704  18.1245407   5.0172151   9.3482433
  60.9757226  81.9290812   6.6592537  60.4630106  82.6478560   6.2894855
  61.3683718  81.4993127   5.8994136   2.2873869  16.0491114  62.8343821
   2.8510371  16.8225222  62.8153515   2.4799052  15.5922251  62.0155811
  22.9395088  19.4538987  25.6243072  23.6122115  19.8723090  26.1615596
  23.3293756  18.6212838  25.3578601  75.8842175  80.1740535   3.2986913
  75.3737777  80.6219252   2.6240812  75.3120702  79.4700368   3.6040483
  34.1960557  17.6250375   8.6398874  33.2882484  17.3410047   8.5329376
  34.2757018  17.8265632   9.5722328  65.4245043  56.4370918  62.0324755
  64.6461868  56.9548893  61.8267155  65.0854445  55.6639671  62.4836445
  32.1275314  34.4275582  10.6611667  31.8469127  34.7778714  11.5065990
  32.0013507  35.1517117  10.0480495   3.3657637   9.8548346  63.5730886
   4.0189782  10.4815035  63.8842630   2.6057330  10.3921347  63.3497190
  38.8053742   3.3527975  62.1292973  38.1453648   4.0453844  62.1600437
  38.8118401   2.9886370  63.0144978  82.8852177  42.3925114  30.8518767
  83.8214588  42.4381590  31.0457611  82.7632427  42.9935026  30.1169157
  30.1810017  75.3231295  13.5378299  29.9445954  74.5059784  13.0989586
  31.0648194  75.1688369  13.8714157  70.0273936   1.5857344  52.2872639
  70.8828061   1.2525682  52.5583601  70.1261180   2.5377493  52.3000622
  66.2938452  60.1614141  69.0923691  66.7499161  59.7903395  68.3370304
  65.5260706  60.5946589  68.7194729  53.0346649   1.4334898  59.2879343
  53.3945506   1.1305361  60.1215649  52.7632182   0.6327944  58.8391256
  35.2028926  37.2875655   2.2417007  36.0274156  37.3454345   2.7244459
  34.5261939  37.4034036   2.9087053  50.4247141  67.5679827  35.9020424
  50.9154129  67.7718544  36.6982079  49.8369408  66.8572950  36.1583304
  45.0218900  30.4513038  11.1423336  45.8562644  30.8811248  10.9544311
  45.2670511  29.5919145  11.4852367  69.4579077  60.7899570  64.1232824
  68.6155081  61.2390184  64.0530300  69.7225237  60.9183264  65.0341797
  82.8921223  42.2322989  56.9533634  83.2826614  42.9192829  57.4935150
  83.3681297  41.4378357  57.1951866  54.7816849  77.4421072  31.8453288
  54.7604227  78.1934881  31.2527061  55.2483130  76.7644215  31.3562131
  26.5792227  81.5289307  43.7288427  26.4240980  82.2587490  43.1292343
  25.7644653  81.4491463  44.2248631  39.5061111  67.2324562  15.9986222
  38.5652876  67.1321964  16.1436379  39.5807362  67.4896526  15.0796485
  58.5694361  80.5513382  41.7887974  58.2520103  81.3155079  41.3076258
  57.7872419  80.0200176  41.9374561  14.1237338  41.0767329  24.0415512
  14.2731937  40.2048076  23.6759983  14.9161847  41.2646544  24.5444904
  15.5965128   2.1538382  68.7590504  15.6701985   2.3503714  67.8251457
  14.8294440   1.5850000  68.8243103  59.9424601  77.7984428  27.4274087
  60.4115200  78.3033991  26.7631531  59.9060297  78.3786249  28.1878638
  68.3731731  25.6863368   2.7567182  69.0745147  25.8705056   3.3815656
  68.2547458  26.5081752   2.2804962  31.9638515  65.6014109  70.0308943
  31.0285187  65.8008194  70.0711250  32.3540878  66.1438370  70.7162523
  69.0479040  70.0921774  48.4325790  68.9059162  69.1463518  48.3941031
  68.3706903  70.4593468  47.8644228  34.3760338   9.4484453  49.0602922
  35.1830616   9.8258142  48.7102556  33.9253655   9.0938120  48.2938910
  83.8580322  66.2902355  69.0494251  83.3628082  66.9958305  68.6333513
  84.3735409  65.9082651  68.3390903  44.2879725  65.7523537  61.9630718
  43.4740543  65.4528952  61.5579844  44.3363857  66.6828632  61.7438841
  86.2935060  28.7763147  53.2538414  87.1457189  28.3593779  53.3808517
  86.4674657  29.7122316  53.3539200  77.8053761  56.4762449  43.7047148
  77.6416063  57.1550083  44.3594646  78.6684752  56.1292028  43.9302158
  81.6318989  61.1098528  43.2029629  80.7665825  61.0676956  42.7959156
  82.2255516  60.7557058  42.5408554  47.0010265  12.1856130   3.6481557
  46.1663659  12.2800219   3.1891809  47.6312621  11.9768536   2.9586206
  47.1552785  31.9399608  10.5782638  47.0502551  32.8786767  10.4233013
  47.6192077  31.6199220   9.8045860  27.6039203  48.6021102  14.2241703
  26.9420417  48.3805812  14.8792110  28.2616409  49.1018641  14.7077881
  30.7939839  67.1848440  65.7860756  30.3460431  67.8799009  65.3039169
  31.0076332  66.5309668  65.1204729  65.7724380  79.9345732  49.0342665
  66.3826513  79.8004580  49.7594452  65.0422478  80.4171371  49.4217968
  24.5962556  23.5664809   1.7797981  24.6126493  24.5118916   1.6309295
  25.4838260  23.2756198   1.5703951  32.8246435  31.5433085   6.0999523
  32.4018272  32.2317326   6.6132961  33.7371000  31.8236792   6.0288988
  19.2986431  30.9100561  57.1167850  19.2149582  31.0456877  58.0606270
  19.6022597  30.0063829  57.0306683  50.2582741  78.3827496  38.0102587
  50.8595133  79.1214466  38.1054854  49.5012093  78.6195135  38.5460043
  48.2647419  63.9250851  39.5055461  48.2700968  63.6238098  40.4140806
  48.1955004  64.8776340  39.5694876  81.8768215  45.2044439  67.6464319
  82.1114159  44.5032644  67.0385313  82.2126293  44.9098253  68.4929895
  81.7309268   7.3608554  25.5014740  81.5403827   6.8563044  24.7106777
  82.5888809   7.0456851  25.7857452  57.0541239  57.5755596  64.0896606
  57.1907949  56.6623497  63.8374758  57.3820782  57.6277781  64.9874067
  29.7021768  48.9477396  25.4833961  29.2779634  48.9011717  24.6265960
  29.3986127  49.7754049  25.8562875  58.0994558  77.0190811  22.8796554
  57.5768852  76.2524986  22.6440644  57.7427197  77.7264357  22.3424220
   3.1450119  21.2600450  15.7319117   3.9447298  21.2213640  16.2565005
   2.5636664  20.6142931  16.1334968  67.0983458  58.1152725  47.5806093
  66.4275503  58.5339212  48.1200504  66.9236898  58.4304428  46.6938210
  68.1247299  19.0000753  40.3881121  68.1597822  18.1208258  40.7648325
  68.0775087  19.5834570  41.1455202  17.5349608   3.2900839  50.7216978
  17.7078905   2.3741751  50.5038929  16.8959895   3.5750895  50.0684643
  22.6698478  28.1371749  19.3387924  23.5309680  28.5311139  19.4784961
  22.0517238  28.8514197  19.4937454  41.5424252  71.7997742  45.4290009
  41.3476610  72.1992540  46.2767744  42.4705076  71.5710163  45.4795790
  39.6453794   8.2026923   9.8435245  39.4055827   7.3830712  10.2759014
  40.6025775   8.2019341   9.8427044  33.5865441   1.1320524  45.3119040
  32.8493157   1.0546999  45.9174871  33.1827107   1.1524515  44.4442987
  49.0439542  58.9088500   2.4614845  48.6516889  58.4539187   1.7162309
  48.5190471  59.7031367   2.5605283  40.8566713  69.6640730  67.3743486
  41.3965607  69.7934723  66.5946007  39.9803758  69.4870996  67.0322657
  72.3542500  65.7257700  40.3651142  73.2766724  65.9456730  40.4955387
  72.2925997  65.4909849  39.4392061   0.3005407  77.1898127  37.0558047
   0.8632085  77.9599094  37.1370006   0.0054357  77.0135355  37.9491520
  58.6120653  73.0859900  33.7442517  58.6655951  73.7797356  33.0869198
  59.5027256  73.0114603  34.0868950  69.3412876  55.4097414  40.3213310
  70.1721525  55.8466387  40.1342154  68.6784697  55.9765148  39.9267721
  81.1631101  22.3318129  57.4588108  81.9670194  21.8559961  57.6675224
  80.8791488  21.9663553  56.6209316  70.9342051  65.7489872  21.0866165
  71.3724804  66.5019560  20.6901479  70.3863478  65.3946257  20.3862476
  48.1272936  57.0711994  66.1557293  48.7811041  57.6896572  66.4817286
  47.5147057  56.9645119  66.8834496  34.3704867  71.6288805  51.7998838
  34.4691133  72.5468111  52.0526791  34.5969772  71.6108656  50.8700371
  82.9648536   6.1349897  30.5736470  82.0089810   6.1547785  30.6200504
  83.2526725   6.5684729  31.3770628  72.8846550  62.8496885  60.5264521
  72.9819345  62.2716475  61.2831783  72.4773932  62.3006392  59.8564386
  73.3899736  70.9291363  38.5350370  73.4381342  71.8555880  38.2992530
  72.5166988  70.8231020  38.9123726  59.9591112  56.3498592  65.2273560
  59.0918303  56.5236139  65.5932283  60.4502964  55.9596872  65.9503603
  85.1675456  81.7232259  13.8241611  84.6269172  82.2087653  13.2010971
  84.7783559  80.8490594  13.8485942  57.1600628  80.8764267  60.6853294
  56.2232304  80.6815243  60.7096434  57.4047375  80.9911823  61.6035891
  67.9224008   3.9617186  66.1510611  67.0308106   3.6155729  66.1124754
  67.9543345   4.4500952  66.9736767  68.1226254  57.1764803  58.5510349
  67.5108242  56.6746330  58.0124474  67.9809332  56.8517399  59.4402456
  18.3581575  50.5160487   0.6727014  17.4378093  50.7168639   0.8425794
  18.3379777  49.9047721  -0.0636210  16.7798033   8.0008249  30.1990366
  16.7070237   7.0537500  30.0807118  16.1172762   8.3670073  29.6132040
   5.1885984  74.6102571  50.1069450   4.2375085  74.6885777  50.0326395
   5.3538511  73.6677170  50.0835848  69.5254564  61.7506409  34.2083645
  69.1307926  60.9469271  34.5467687  70.1679993  62.0000362  34.8725724
  47.5148065  78.6808242  53.0749512  46.8833310  78.9338545  52.4015713
  48.2730157  79.2429243  52.9156017  45.9785461  78.1582832  59.6934795
  46.0686636  78.9645624  60.2014446  46.8783140  77.8698397  59.5403528
  62.9620361  68.2871914  35.1112056  63.1392336  67.3532724  35.2235723
  62.0580149  68.3966351  35.4061651  70.4198122  79.4167185  22.5264454
  70.3142834  79.5124006  23.4729886  69.9815702  78.5914564  22.3187995
  42.9109335  68.1394577  54.3817282  42.3836708  68.3533812  53.6120129
  43.6452055  67.6322174  54.0356255  65.1769257  75.5982161  57.0452452
  66.0777664  75.8061409  56.7972851  65.2313519  75.3650236  57.9720068
  59.3634319  40.6939125  37.8395152  59.0943718  39.8378468  38.1726718
  59.6004486  40.5318642  36.9263935  55.6642389  66.0242558  65.8646870
  56.1570644  66.6995049  65.3984404  56.1917591  65.2316475  65.7660913
   8.2941380  17.0224028  48.0362988   9.1032210  16.6235571  48.3565140
   8.1216708  17.7383165  48.6478138  12.7546022  41.6862440  55.6319904
  12.6231477  41.5773249  54.6901369  13.1504438  42.5533199  55.7198858
  81.2182808  29.8363471  37.2936678  81.7954636  29.4252515  36.6501665
  80.3354645  29.5997858  37.0092344  71.5737391  64.9888039  62.3756742
  71.9783878  64.4577742  61.6897392  70.6355381  64.8216724  62.2858238
  59.7012806  81.7622089  49.6256447  59.9514484  80.8411789  49.6988201
  60.5287075  82.2255421  49.4955730   1.1631861  17.9531698  40.3511524
   0.2484789  18.0686026  40.0938272   1.2524023  18.4654551  41.1547852
  62.8556538  47.7357149  70.7960033  62.6729393  47.7178860  69.8565722
  62.7989721  46.8198586  71.0684490   5.8212087  58.8111401  51.1601019
   5.8843133  59.7502804  51.3340807   4.9238202  58.6843872  50.8520889
  86.1499882  34.2681813  48.5591984  85.2849960  34.6381712  48.3827925
  85.9751320  33.4966922  49.0981436  72.3718309  52.7462816  30.2993321
  71.4440775  52.5492430  30.1701665  72.5275707  53.5259390  29.7663116
  67.9705048  77.5529337  23.1877446  68.3988953  77.8712893  23.9823294
  67.5984764  78.3377361  22.7853584  63.6899281  74.0077209  48.0037069
  64.0007210  73.6506605  48.8356590  64.4304895  74.5130444  47.6683664
  22.7074989  37.6772988  15.0784336  22.6113304  36.7707932  14.7864853
  23.5609611  37.9485286  14.7403942  44.6131611  75.2977991  33.5225201
  44.7536421  75.8249235  32.7359843  45.2681875  75.6155777  34.1439629
  37.2147592   7.9712260  16.9939647  36.7781766   7.1215880  16.9327865
  37.7539237   7.9072488  17.7822815  73.6090749   3.3848219  47.7557516
  73.7811034   4.0377836  48.4341908  72.7452891   3.0347376  47.9737949
  74.8998547  68.3076143  44.6888018  74.5053244  68.3690739  45.5587435
  75.0502968  67.3711729  44.5596504  25.5397161  40.8634532  17.1420513
  26.2413772  40.2217544  17.0319687  25.9860881  41.6591037  17.4317585
  77.8339761   6.5730696  69.0095949  78.5466569   6.8486719  69.5861053
  78.2019084   6.6338568  68.1280279  75.7437754  75.6693172  58.9618683
  75.3611994  75.3028488  58.1646442  76.6786909  75.4772997  58.8890600
   5.5847891  60.1700843   6.1635290   5.2137049  59.4822658   6.7161880
   6.4891823  60.2574218   6.4646516  51.8512487  75.3393221  65.6694412
  51.6156769  74.4326735  65.8662415  52.5976324  75.5221415  66.2401628
  86.2824052  13.5822611  52.4499607  85.5076640  13.9744215  52.0471954
  87.0070642  14.1412287  52.1694946   3.1881180  18.7196474  68.6038971
   4.0579930  18.9156275  68.2558441   3.0530110  17.7934771  68.4034300
  65.2026892  63.8869286  39.7395635  64.3192101  63.9314651  39.3738937
  65.0679588  63.7088203  40.6703472  14.9971953   0.2635317  54.8486519
  14.2588845   0.1574545  55.4485512  15.7266560  -0.1748915  55.2867222
  16.5669861   7.1379499  70.6267023  15.6227436   7.2177439  70.7618904
  16.6558018   6.4735823  69.9433565  66.1414090  22.7771788  13.2201850
  65.4012719  22.2269087  12.9639781  66.1192170  23.5101156  12.6049292
  54.6667846  67.0096839   4.4336115  55.2918609  67.0034850   3.7087188
  55.1530059  67.3885787   5.1659094  13.2894602  20.6952791  61.8164730
  13.1785670  21.0121279  60.9200668  13.6259308  21.4511614  62.2977877
  46.2518826  70.2529748   7.8258358  46.9603005  70.4706438   7.2200332
  45.6539574  70.9985812   7.7729831   4.2835513   0.6012754  64.6951580
   5.0474587   1.0463934  65.0619602   3.9519778   0.0630026  65.4138708
  76.8804216  76.2694073  55.1338243  77.3039865  76.3207912  54.2769766
  77.5429201  76.5860796  55.7478666  10.5853078  72.1824837  43.9408445
   9.9908349  72.2794008  44.6847773  11.4245508  71.9437170  44.3344116
   1.7614934  60.6382418  67.4893188   1.3315389  61.0288858  66.7285538
   1.0889909  60.6377077  68.1704760   9.4940462  30.5617647  15.7996774
   9.3938389  30.3089266  14.8819280   8.7414112  30.1673059  16.2403333
  67.6754015  14.4100981  69.6042824  66.8516415  14.7951536  69.3053055
  67.4848860  14.0924482  70.4869080   2.3219767  22.9727106  45.9143734
   2.5329819  23.0359201  46.8458843   2.2840777  22.0321684  45.7406616
  59.2578586  14.2601264  26.2861000  58.5249027  14.6342862  25.7971988
  59.6788295  15.0133765  26.7003856  43.5652145  55.8986438   8.0917488
  43.8430866  55.1716292   7.5345455  43.2820257  56.5762580   7.4778495
  30.6069699   8.5926275  58.9716816  30.4423275   8.0964594  59.7735167
  29.7425404   8.8995581  58.6981916  11.7557142  81.2250519  58.5093069
  11.8913076  80.2777481  58.4878683  11.5874860  81.4636230  57.5977087
  42.8347054  25.2386694  66.6911459  41.9082775  25.3471880  66.9060421
  43.2620945  26.0008459  67.0818567   1.8822095  47.8408146  57.4497700
   1.8063066  48.7946463  57.4236393   2.6501081  47.6765585  57.9971123
  60.3760036  68.1805003  22.9149852  61.3262733  68.0664123  22.9289089
  60.2371486  68.9695895  22.3912655  79.3027496  34.3023372  52.6230860
  80.1057339  34.4267654  52.1171618  78.6789465  33.9362478  51.9961262
  86.6983630  14.2152779  15.3570686  87.0661951  13.9022344  14.5306717
  86.0542895  13.5500901  15.5997978   6.7939279  71.3735771  40.3078842
   6.2773511  71.1492586  41.0818768   7.3672483  72.0823383  40.5997419
  73.9537239  67.8377008  47.3902988  73.2711792  68.4498215  47.6653862
  74.7544765  68.3619642  47.3771381  22.9555877  28.3206904  24.6256004
  22.4646409  28.3948815  23.8072429  22.8588231  29.1773856  25.0414692
   4.5637646   7.3846655  64.0609360   5.5083742   7.3430090  63.9119291
   4.3291655   8.2904558  63.8591194  48.1913948  75.6840229  26.9676208
  48.7660694  76.1040545  27.6075864  48.7137461  74.9648952  26.6123199
  68.9292543  27.3918467  48.9878559  68.4034842  28.0957441  49.3677521
  69.0995162  26.7984991  49.7194147  47.9996395  77.1595097  45.0699234
  47.0978022  77.4612761  45.1788282  47.9265261  76.3800001  44.5192480
   4.1525259  15.0908976  32.3108029   4.3934813  14.1947489  32.0760942
   3.4188404  14.9905996  32.9173279  23.2124980  33.5218966  10.7326351
  22.4324926  34.0644181  10.6164871  22.8756650  32.6816333  11.0436569
   6.1603030  68.2134307  11.1128269   7.0566948  68.4327376  11.3670288
   6.1221035  68.4093059  10.1766620  43.0050691  42.0799601  19.1082130
  43.0084022  41.3407100  19.7162662  42.9996999  41.6762126  18.2403408
  30.6297763  56.7129767   2.5810848  30.4105552  56.2035048   1.8009506
  30.6162866  57.6229632   2.2844730  69.7197008  76.0834599  61.3921356
  69.8507833  76.7849350  62.0300865  68.8908958  76.2999630  60.9650040
  30.6388807  71.7858124  31.5755916  31.2891603  71.7324018  30.8752251
  30.5735707  72.7205706  31.7710161  53.3287509  33.9477504   2.1034370
  54.1657718  34.2292273   1.7341123  52.7817424  33.7593377   1.3408695
  80.3503507   0.8922605  66.5579510  80.6751721   1.2121134  67.3996258
  81.0845702   1.0138922  65.9559917  55.3792652  35.1885808   8.9167343
  55.2174362  34.2694104   9.1292701  56.2927039  35.3341401   9.1630588
   8.0458257  58.9843655  17.7838612   8.5437105  58.2066679  17.5317895
   7.7777574  58.8148165  18.6869788   0.0280950  44.5185757  55.1127720
   0.2473161  44.8491526  55.9839201   0.3200433  43.6070347  55.1220369
  38.6249097  32.1520579  21.5265594  38.4295781  32.8757108  20.9312378
  38.7155898  31.3895667  20.9550605  67.4302721  47.0798016  53.0736637
  66.8643904  46.7848301  52.3602247  67.2964525  46.4345646  53.7679243
   2.8727522  29.1371088  64.8087835   1.9319859  28.9627295  64.7807884
   3.2009688  28.5692148  65.5059195  12.6702204   4.1996412  63.3419895
  13.3812657   4.8372297  63.4063053  11.9076863   4.7166662  63.0822372
  62.5757401   0.6329374  51.3129854  63.1870931   0.7788877  52.0349121
  63.1340187   0.5448084  50.5404615  43.9286280  77.5340843  38.8524985
  43.9714193  77.0895147  38.0058837  42.9921055  77.6219177  39.0298367
  36.6831001   2.6696265   3.4180675  35.7600101   2.6121867   3.1714092
  37.0568641   1.8322003   3.1437622  53.4413576  66.9517422  31.4227080
  53.1323528  67.4809599  32.1580148  52.6849842  66.8869781  30.8396697
  78.0795942  33.2327521   9.3550048  78.2087027  33.3079017   8.4095321
  77.9991542  32.2919000   9.5117221  22.6838436   2.7393560  47.3343658
  22.6648846   3.1475668  48.1999493  21.9592133   3.1479864  46.8609142
  62.7372726  75.2142108   4.5456300  62.9034599  75.3477538   3.6124740
  62.1473297  75.9278357   4.7883783  34.3692341  21.5977125  60.4010820
  33.5764351  21.5448885  59.8673010  34.1159287  21.2215357  61.2440300
  28.6144575  15.7588447  17.6929699  28.8333972  14.8347867  17.8130470
  28.6190256  15.8847344  16.7441021  57.5152779  72.3587084  62.4660206
  58.4505463  72.1609640  62.4169493  57.1656418  72.0739412  61.6216898
  31.8243774  45.8208430   2.1135984  31.2034829  45.6011451   2.8081880
  32.5536044  45.2145827   2.2436224  82.5400250  27.1348505  35.7979107
  81.9611400  26.4552908  36.1433554  83.0476563  27.4250345  36.5557575
   4.4235513  63.3212996  31.9567466   4.6211717  64.0549850  32.5388861
   3.5884282  63.5551882  31.5516543  68.9581013  70.1956940  53.9792871
  69.2094517  70.0419235  53.0685663  68.9150667  69.3214798  54.3667555
  71.9084787  57.9084969  51.3819218  71.2113523  57.6056480  51.9637489
  72.7164888  57.7296877  51.8629408  73.4418106  51.6999912  57.1582985
  72.8397179  51.1293697  56.6806936  73.3810139  51.4053535  58.0669928
  81.6107028   3.2378035  31.2966681  82.2543710   2.6885443  30.8491731
  82.1298068   3.7785273  31.8919635  25.1817646   0.2536898  51.0531235
  25.9822502   0.6979685  51.3325310  24.9708882  -0.3370829  51.7761421
  51.5560000  69.9455793   8.2161270  51.9885176  70.6798156   7.7801738
  52.2655957  69.4750030   8.6534629  83.7648964  73.2390118  69.2159557
  84.2011833  74.0730762  69.0421104  84.4316292  72.5771523  69.0325356
  14.5456966  66.1361564  43.1252132  14.8984607  66.9964850  42.8980289
  14.1326698  65.8262027  42.3192535  23.0401882  63.2518542   3.6335359
  23.9229616  63.0325187   3.9315830  22.8312095  62.5775683   2.9870830
  67.8321069  11.4498453  21.1176252  67.8187817  10.9389906  20.3082561
  66.9159692  11.4870672  21.3924718  24.8367021  76.1103678  42.5130701
  24.8004625  75.1638889  42.3749018  24.4711397  76.4836693  41.7110443
  69.5220709  75.4515886  68.2834053  69.2535210  76.3540840  68.1113243
  69.2444706  75.2867746  69.1845179  40.8778556  28.7133801  21.2759529
  39.9761136  29.0042890  21.4118515  41.0535653  28.9007008  20.3538547
   3.7621840  27.4760688  20.5642162   3.3586343  27.7237761  19.7323452
   3.7197026  26.5198815  20.5756984  25.0432148   7.8186731  51.8470430
  24.3645611   7.1833162  52.0750570  25.8663788   7.3516111  51.9901562
  47.7640851  45.2272952  16.0252414  47.4871524  44.4090712  15.6128631
  47.0184596  45.4871524  16.5663086  55.8189376   8.0284989   4.1702304
  56.2937625   7.6365865   4.9031530  56.5037807   8.3845580   3.6041484
   8.0373421  12.0168714  54.5795774   8.4079256  12.1655970  53.7096453
   8.1637040  11.0811930  54.7369766  13.3253517  25.1617269  44.9723482
  13.4116164  24.8748426  44.0632343  12.5771942  25.7587557  44.9651384
  34.7598591  17.2671442  62.3950529  34.5443478  16.9037180  63.2539511
  35.5904618  17.7234583  62.5296211  12.1984289  81.8447208  67.7908468
  11.3651750  81.3933563  67.9257584  12.5275037  82.0092773  68.6745119
  79.6209908  68.4582281  47.7941179  80.0564861  69.1957998  48.2213783
  80.2004623  67.7131367  47.9531288  42.1789685  14.5487528  54.2835712
  42.0490685  15.4967146  54.2568970  42.4655190  14.3713789  55.1794815
  83.2113171  69.9893141  49.8571587  83.7429810  69.2201567  49.6523142
  83.8443470  70.6502247  50.1377153   1.0874119   0.7549791  47.2001505
   1.4068022   0.4629354  48.0539274   0.4643145   0.0790529  46.9335079
  78.0636644  58.8790274  45.5855799  78.7933731  59.4331884  45.8624601
  77.9253292  58.2806492  46.3197708  76.1974137   4.6217661  63.8690519
  76.3775056   4.4349318  62.9477024  75.2692931   4.4147520  63.9784479
  50.1041937  77.4556875  59.0015745  50.7626581  77.9800892  58.5458755
  50.4418993  77.3691416  59.8930359  32.3281422  76.7292623  36.8729019
  31.6650620  76.0870962  37.1262455  32.3105278  77.3809652  37.5737619
  57.7810001  76.0067606  40.4301453  57.0108795  75.7770491  39.9101639
  58.3733416  75.2625990  40.3224993  37.8383859  37.5515807   3.2768808
  38.6778768  37.5395310   3.7366043  37.9706653  38.1633342   2.5526653
  28.4231790  42.3963988   2.9967199  28.1153663  42.8726352   2.2255645
  27.7410920  41.7461932   3.1647382  40.2790864  33.8337529  -0.2030148
  41.2218603  33.8946021  -0.0490250  39.8939594  34.4456876   0.4242359
  69.9086332  57.3760843  70.7808304  69.4981861  57.4731970  69.9215651
  69.2341518  56.9679070  71.3236904  76.4134789  49.6294260  53.3464003
  76.8933487  49.9700403  52.5914621  77.0932579  49.4135237  53.9847708
  67.4723625  72.5532007  59.5355225  68.4012413  72.6445484  59.3232250
  67.4633360  72.2238636  60.4342413   7.1405408  43.1373024  51.2177753
   7.4628923  43.1985283  50.3185749   7.7781198  43.6296177  51.7348289
  81.4320564  76.1967325  48.0242300  80.9675026  76.2212753  47.1876812
  81.2697601  77.0559549  48.4136248  35.0832501   6.5769510  22.0403886
  34.7627297   7.4767141  22.1030068  34.7486821   6.1481504  22.8280616
   2.1389863  66.2894917  57.7117920   2.5766942  67.0936871  57.4326754
   1.2057969  66.4991570  57.6738453  77.3335552  74.3824339  49.1323566
  76.8119287  73.7353897  49.6071959  76.7642450  74.6727419  48.4197283
  29.1179546  13.4748090   1.2334047  29.3983920  12.8258384   1.8787132
  28.3595594  13.8992465   1.6345535  64.7824081  51.4513743  26.7363678
  65.7109531  51.5912593  26.9220291  64.7055515  51.5777266  25.7906662
  29.6794358  20.1176577  69.3923521  28.9778557  19.7037153  69.8950195
  29.6688118  19.6652441  68.5488796   7.8271904  32.5034075  59.2269468
   7.3853245  32.4322443  58.3808279   8.7300005  32.7332621  59.0071011
  45.2526608   3.1998949  36.7007351  44.9403038   2.5646048  36.0564780
  45.2412262   4.0370016  36.2366676  56.0195916   7.3635702  67.5108671
  56.1949485   6.4643984  67.2334433  55.7914393   7.2881823  68.4374142
  40.7488902  56.4717353   5.6908880  40.4620870  56.0833228   6.5173946
  40.1637586  57.2180808   5.5611978  49.3419695  71.6938019  16.5341353
  48.7495995  72.0662975  15.8810067  48.7965298  71.0856390  17.0330024
  65.9149885  64.2278099  61.7238522  65.8749962  63.2736635  61.7889786
  66.8493271  64.4317150  61.7646503  81.2018394  70.8742523  26.2278843
  81.2636852  70.7433891  27.1740794  80.2895164  70.6750250  26.0176587
  13.5631838   5.6350069  66.9079161  14.0543404   6.2451010  66.3576508
  12.6499596   5.7629042  66.6512299  59.0083408  67.7430534  46.4274883
  58.5052824  68.4924841  46.1088705  59.0154791  67.8464842  47.3790598
   6.3034723  78.7197495  27.4876189   5.9265420  78.8681889  28.3548713
   6.3678453  77.7675438  27.4142218   1.1259839  56.5109015  48.6267185
   0.3107736  56.7418480  48.1813717   1.2587831  55.5860424  48.4187889
  60.0742515  33.5179484  18.6438690  59.4790252  32.7918351  18.8301693
  59.7638400  34.2312444  19.2016254   2.5511358  25.2058434  70.3959608
   2.4745557  25.2360368  71.3496161   3.3374975  25.7161880  70.2025509
  59.8050578  18.8383878   9.9853550  59.2273219  19.5622361   9.7434841
  59.2363246  18.2218135  10.4464470  76.7316198  80.4661751  40.0365973
  75.7947254  80.4205990  40.2273321  76.8179703  80.0778961  39.1659617
  35.3209207  70.4517698  56.1559534  34.5283124  70.9109306  55.8781433
  35.2976510  70.4907846  57.1120739  56.5056705  75.4256868  46.5147591
  57.2704077  75.7470512  46.9923973  55.8270979  75.3331375  47.1834946
  84.2017651  73.5978889  53.5399866  83.4496021  74.1115141  53.2455873
  84.4320202  73.0560923  52.7852201  37.5495609  26.2973130  15.2793537
  37.7900823  25.3919089  15.0828300  36.8368801  26.2234319  15.9140621
  78.9564419  77.7969027  56.4334774  79.7679234  78.0168152  56.8910503
  78.2622766  78.1158733  57.0102119  75.9057236  79.1130638  37.3531866
  76.2022686  79.8868656  36.8741035  74.9574089  79.1000509  37.2237158
  11.6592493   1.1032228  69.8319244  11.6261139   0.7100706  68.9598227
  12.4799672   0.7843237  70.2073812  10.7844200  44.4878702  56.1649847
  10.1458969  45.0361662  55.7090425  11.5985718  44.6122484  55.6772089
  18.7541905  14.7478037  58.4572935  18.0267849  14.2109423  58.7717533
  18.8278141  15.4522352  59.1011810  20.6772897  19.1227305  51.6381931
  21.1369893  18.5886359  52.2860003  20.5047700  18.5230768  50.9123278
  86.8873303   4.2187052  51.0535383  86.9182008   3.4067659  51.5595341
  87.1472400   3.9599543  50.1693869   4.5920887  27.2408514  26.8043470
   4.5183268  26.2891417  26.7333746   4.8363152  27.3947649  27.7169776
  11.1272850  12.2322779  61.1193657  11.3842287  11.3634329  61.4281225
  11.2058249  12.7935057  61.8907833  72.7173376  74.5879745  38.4866142
  72.0902061  74.6012020  37.7635932  72.2743320  75.0528336  39.1964602
  27.1965351   9.4678335  55.8975363  26.5457859  10.1335268  55.6747961
  27.5842610   9.2214708  55.0577688  12.5315759  62.7345753  17.0828331
  12.5401494  61.9144154  16.5893805  13.1298444  62.5804758  17.8139651
  85.1181214  20.1249628  43.9807510  85.5699389  19.5143633  44.5632076
  84.1996806  20.0732546  44.2453766  53.7139320  65.6919575  40.2385378
  53.2082844  66.2066603  39.6095443  53.6756229  64.7969103  39.9014163
   0.5781362  74.4330168  27.8398561   1.2918565  74.7103691  27.2654796
   0.1284406  75.2453613  28.0724645  10.1989689   7.7098684  57.1445608
  10.0317707   8.5129766  57.6378107   9.3309107   7.3347406  56.9963026
  51.1648560  73.7859488  56.4043665  51.4248753  74.5146179  55.8407545
  50.5091572  74.1603518  56.9926834  40.0056987   7.5158720  31.3198447
  39.7506826   8.4068422  31.0803056  40.9626012   7.5359373  31.3328290
  59.3054533  71.1591625  46.3756752  59.1343880  72.0689440  46.1322212
  59.0330362  71.1010027  47.2914457  70.7787030   5.2585249  62.8427935
  70.6284850   5.8233004  62.0847034  71.3325589   4.5525484  62.5095177
  10.7832789  28.2985282  20.6831789  11.7188001  28.1103230  20.6082654
  10.4449749  27.6080966  21.2533426   8.3640582  49.4430895  60.5921936
   8.8483316  48.7104769  60.2114201   8.4384663  50.1426001  59.9430561
  76.4864871  50.1052327  39.9318790  75.7510695  49.5028849  40.0439978
  76.7163584  50.3709240  40.8222723  39.4245487  63.3186896   8.5829483
  39.5151632  62.4205573   8.2645450  40.3238373  63.6374529   8.6597620
  73.3107417  19.7890790   7.9679809  73.6203568  20.0359185   8.8394390
  73.9175694  19.1059525   7.6827989  35.3199816   4.5934713  19.8261309
  35.1292825   5.1505828  20.5807781  35.6709218   3.7878823  20.2057338
  37.6263928  23.8472676  26.4569044  38.0108809  24.3254399  25.7222271
  37.0787454  24.4933581  26.9028664  10.5442142   9.7947878  26.9271064
  10.5754709   9.0087253  27.4724126   9.6124488   9.9293792  26.7541027
  20.8955199  66.2393792  45.4935551  21.7561395  66.3987548  45.8810663
  20.7483680  66.9911189  44.9195671  11.8044865  34.2070317  55.2408504
  11.4616728  34.5838308  54.4304609  11.6836870  33.2632875  55.1360512
   7.2874386  66.2426455  53.5587645   6.4144618  65.8624692  53.4607553
   7.6304061  65.8510597  54.3620491  65.1856327  14.5628715  43.7017775
  65.9849882  14.2230296  43.2995701  65.0326777  15.3988814  43.2614088
  14.7067792  60.5690331  62.5308800  14.7317941  61.5235491  62.4637604
  13.7767846  60.3592343  62.6164722  23.8349084  71.2355840  68.0485411
  24.5905066  71.5310394  67.5405957  24.1374216  70.4405510  68.4874516
  21.3858771  24.0823436  43.6834812  20.5505133  23.6442876  43.8462830
  21.9800186  23.3772039  43.4265614  16.0499740   6.2739044  52.7892208
  16.2178504   6.8819684  53.5091543  16.6589212   5.5508322  52.9394913
  75.1494977  70.3560205  64.5657730  75.3449616  71.2271590  64.2206001
  74.6570263  70.5218644  65.3696394  17.1732337  27.5026913  34.8038149
  17.2300536  27.7120323  33.8715172  16.3376529  27.8770800  35.0828671
  12.4088645   1.8571807  45.8439302  12.9496574   2.0591441  46.6074657
  12.2423697   0.9169117  45.9103060  25.5059821  80.3738257  13.6642671
  25.9761102  79.5476083  13.5521173  24.6002204  80.1132381  13.8313627
  19.2156327  22.1521616  43.8442278  18.6613119  21.4488435  43.5061407
  19.2720735  21.9816875  44.7844315  27.6066780   5.8781290  16.4967620
  27.7078176   6.2557346  17.3704994  27.6171422   4.9320725  16.6420197
  85.4861865  63.5277052  45.6717825  85.7786069  62.6212950  45.5761719
  85.0071344  63.7113304  44.8636866  27.2650981   0.2022545  54.6077776
  26.4557672   0.3189058  55.1053810  27.8649306  -0.2211480  55.2219152
  32.4647334  20.8335789  14.5387970  31.7314621  21.2847586  14.1204868
  32.8670131  21.4979513  15.0982700  38.4717115   3.0983842  46.7081676
  39.2398437   2.6003373  46.4285980  37.9471954   3.1958497  45.9134327
   3.9402492  59.1922469  37.0617747   4.3812329  58.8628979  36.2786436
   3.6984426  60.0914998  36.8401766  28.4425838  74.8794664  40.0551558
  27.7761704  75.1719399  39.4333959  28.0725104  74.0893627  40.4488707
  62.9510736  18.2902658  32.0286989  63.7087822  18.4072161  31.4556146
  62.6896620  19.1803086  32.2647476  13.5216057   8.3918798  31.3662910
  14.1950560   8.2601428  32.0336294  13.5829008   7.6168519  30.8078933
  70.6216281  56.6939230  20.8481060  71.1669868  56.5679141  20.0716148
  70.4768508  57.6392575  20.8882652  39.8015857  15.4875278   4.3805116
  40.1524353  15.2293527   3.5281724  39.2308688  16.2317646   4.1891348
   3.2845110   5.2618837  61.5167999   3.7617955   6.0912603  61.5405893
   2.5612772   5.3840172  62.1318150  27.4402905   1.1536703  47.1145773
  27.2865248   0.3180885  47.5554752  27.0949864   1.8105760  47.7191210
  39.2487669   8.0137783  18.9585829  39.2863560   7.4638772  19.7411609
  39.8241043   7.5766128  18.3308053  20.9148455   9.0299636  54.9298096
  21.6800737   8.5733086  54.5803499  20.2046084   8.3915466  54.8648643
  50.5622595  44.4097419   6.4718853  49.6344464  44.4548340   6.7028795
  50.8935230  45.2923639   6.6376434  40.8921814   2.2719537  33.8275409
  40.0547314   2.7354005  33.8165069  41.3094568   2.5506935  34.6426606
  13.5572345  48.4536572  53.9940596  12.8854329  47.9856701  53.4981728
  13.7445600  49.2314668  53.4685564  59.8497146  25.3383799   2.1161399
  60.5702489  25.9369655   2.3130117  59.0721672  25.8964224   2.1006570
  71.8826387  55.8000751  29.0458202  71.6068265  56.1331387  29.8997688
  71.4262089  56.3550777  28.4134626  35.8848667  21.7075586  46.4750338
  36.6758513  21.2039256  46.6672087  35.2064061  21.0458755  46.3405037
  43.5714626  11.9995344  61.4547062  44.2020226  12.6418424  61.1290312
  43.1361103  12.4400461  62.1845388  53.7183714  22.0272493  60.8917475
  53.3621025  22.9097891  60.7896137  53.5647202  21.6074944  60.0453281
   3.7049229  51.1152048  51.8779516   2.8193695  50.7518668  51.8816996
   3.6718661  51.8332739  52.5100279  24.6594722  68.7217350  62.8450775
  25.1914556  68.5923274  62.0599174  23.7742764  68.8707848  62.5127411
  26.9505364  37.9214830  41.6190863  26.6715438  38.7391729  41.2070417
  27.5217397  37.5093718  40.9709167  67.6016658  54.0442903   2.2757469
  68.3324306  53.4461339   2.4320350  67.9722136  54.7375591   1.7295728
  65.0356034  61.1742420  31.2234664  65.6464312  61.0483618  31.9496036
  64.2142138  60.7920237  31.5324354  11.4664945  80.0778568  15.2908170
  10.8818397  79.8895028  16.0249352  12.3116979  79.7175261  15.5591989
  24.7174168  15.2898717  42.8398752  24.3662524  15.1312709  43.7160969
  25.1216507  14.4590211  42.5898457  80.6172642  72.9939516  52.7703571
  80.9608922  73.8590158  52.9935455  80.3785000  73.0622799  51.8459368
   8.9675009  29.4368052  51.0799360   9.7872019  29.9126363  50.9461212
   8.3188832  29.9315166  50.5791473  76.2591648  25.6136656  55.0483465
  76.2657452  24.8125935  54.5244408  75.4239511  25.5876637  55.5152178
  60.8320001  48.8889022  20.8811426  60.3547234  49.6380658  20.5245042
  61.4162740  48.6179991  20.1729989   6.3111956  70.7540889  33.7271070
   6.4795596  70.5989642  32.7976871   5.3568203  70.7760365  33.7972307
  38.1726193   2.7996978  41.2486362  38.2175779   3.0246156  40.3193235
  37.5922108   2.0393291  41.2832260  29.5588446   9.4797629  44.9599743
  29.8922443  10.2620959  45.3993273  28.6167169   9.6309125  44.8839378
  19.2651422  60.1737232  15.6046402  19.4534308  59.4721336  14.9813032
  19.5769650  60.9685845  15.1719832  50.6274387  72.6928885  63.2891464
  51.3659624  73.2545663  63.0539179  50.8151409  72.4131395  64.1851044
  84.3322835  75.7949067  33.7227869  85.0911722  76.2172265  34.1252327
  84.6321020  75.5465914  32.8483272   8.6901695  72.7223296  45.9871960
   9.2208607  73.4951003  45.7937384   8.5504086  72.7585162  46.9334459
  38.3562160   3.6515322  38.8552785  37.5871396   4.0867674  38.4874177
  39.0974140   4.1703767  38.5427737  15.6962974  72.9649766  36.9354248
  16.0844619  73.7491245  37.3235869  16.4463002  72.4313326  36.6728306
  18.3293128  15.6537426  53.8041687  18.2185042  14.7371459  54.0567636
  18.3857214  15.6337762  52.8488398  85.1633629  57.2335644  31.9042873
  85.8669171  56.5912862  31.9976878  84.3886218  56.7925496  32.2528791
  54.3513584   8.1954288  49.8445415  53.4920740   8.6169815  49.8569870
  54.7179699   8.3733070  50.7106781  38.9822984  12.1790779  53.5456324
  39.0084338  11.2317991  53.6805773  39.4874191  12.5389004  54.2747498
  31.3229966   6.0614973  57.1525192  31.5884137   6.8929923  57.5454617
  32.0634270   5.8103895  56.6003036  82.9032812  43.7142105  24.4332552
  82.6497779  43.2480330  25.2299023  83.0401859  44.6178241  24.7178078
   2.0331076   2.7224389  62.1251869   2.1463129   2.8245172  61.1802053
   2.9180181   2.7987209  62.4820471  81.0560164  63.0064995  40.2839470
  80.1679215  63.3174737  40.1084042  81.1296639  62.1955569  39.7807741
  32.6187076  22.9217585   3.1896816  33.1132158  22.2783752   3.6973749
  32.6444411  22.5897367   2.2922788  20.3780842   6.2513858  36.3002563
  20.9214830   6.9711936  35.9795904  19.6310258   6.6819924  36.7158437
  81.0374961  78.8568739  28.7447071  81.3780222  78.7488316  27.8566742
  80.1570234  79.2117838  28.6220694  29.4116265  77.7059473  51.7192173
  28.7578303  77.1977658  51.2390757  29.9107177  77.0522694  52.2089577
  29.7443492  61.6371126  27.6306057  29.6853930  61.5139122  26.6831994
  28.8630349  61.9031067  27.8928471  30.2046609  11.5819418  48.6477184
  30.2901506  11.0786867  49.4574499  30.9434533  12.1903229  48.6647034
  65.3054421  39.5967962  11.5550743  66.0494249  39.2193051  11.0857998
  65.1662176  39.0078220  12.2966705  43.3384943   1.6910866  32.6960731
  42.4918365   1.8610716  33.1090021  43.1641912   1.7552713  31.7570686
  84.7720656  66.6339238  42.1995783  83.9697609  67.0397015  42.5280333
  84.5427427  65.7123287  42.0799732  12.9570586  79.3292869  38.8005066
  12.4327523  78.5329120  38.7161231  13.2388741  79.3347020  39.7152638
  62.2463226   7.8995299  50.2148676  62.8112984   7.6475054  49.4844437
  62.0452785   7.0750844  50.6577015  60.4510307  29.1839314  55.9946489
  60.0043249  28.3492804  55.8530664  60.1757097  29.4575429  56.8696165
  30.5813122  12.0513189  45.0374508  31.3016939  12.1293163  45.6629086
  30.2182889  12.9350650  44.9788141  43.0096054  17.0476151  60.0571012
  43.7765932  17.2600722  59.5252895  42.6891756  16.2211287  59.6958876
  26.0357816  67.8218133  32.3646140  25.5664260  67.0275528  32.6197314
  25.3830821  68.5185034  32.4341536  78.7894520  50.8820934  29.1914892
  78.2168660  51.6151686  28.9656997  79.1931114  51.1399050  30.0202370
  49.5270995  81.6092962  23.1742072  48.7738517  82.0947464  22.8377724
  49.2412356  80.6957851  23.1775451  71.7797145  76.6284562  35.1162815
  71.9435951  75.7172037  34.8733950  71.4685199  77.0390989  34.3095851
  51.5969324  13.4755743  38.8104916  51.5121222  14.4100571  38.6213326
  50.8444691  13.2745886  39.3669415  80.0912033  20.6718934  14.1630111
  79.7763215  21.4894164  13.7773548  81.0340153  20.8024562  14.2644630
  34.5966601  38.7521291  26.0412478  33.7959266  38.9680290  26.5192080
  35.1371408  38.2847571  26.6781735   5.2949936  64.3221564  56.3290215
   5.2735836  63.6998160  57.0559788   5.0376231  63.8065918  55.5647039
  29.4086266  18.4682822  38.1537819  30.2121782  18.3915639  38.6682224
  29.1368508  19.3788981  38.2684422  43.6013610  80.8442700  49.2364407
  42.9022033  81.4175110  49.5507717  43.2658298  79.9586983  49.3757629
   7.0681924   8.4981251  36.8645692   7.2713482   9.4182342  37.0329714
   7.8928632   8.1235313  36.5550065  40.2808285   3.0800492  59.5437670
  39.7605920   3.1131569  60.3465700  39.7784519   2.5158918  58.9559078
  73.3273086  78.2650657  25.6804776  74.1924283  78.6609389  25.5752015
  73.4183964  77.6886524  26.4392138  49.2013172  79.2093695  34.9880815
  48.3720675  79.0761761  34.5289111  49.0379772  78.8892011  35.8752370
  13.9210784   1.3332225  64.6260738  14.3335617   1.9160034  63.9885330
  13.4543490   1.9205479  65.2205849  61.9741392   1.0309097  17.6292503
  61.6511583   0.1511269  17.8239202  61.3725805   1.6146150  18.0914700
   8.4175760  68.7394578  40.1919413   8.4416348  67.8041549  40.3940821
   7.5706655  69.0350027  40.5260515  14.6308339  10.5562484  43.2650518
  14.4296885  11.2475169  42.6342440  13.7963426  10.1083422  43.4037495
   8.2831151  55.9059949  23.0844164   9.2350394  55.8861918  23.1828237
   7.9494745  55.5613728  23.9127588  79.3476424  72.5932981  64.4989109
  80.2849230  72.7602245  64.5982647  79.2848549  72.0326765  63.7256098
  11.2847573  65.1609774  17.8493476  11.9892556  65.4182334  18.4441030
  11.5274245  64.2826290  17.5563514  68.0591147  52.4686237   5.3566490
  67.3531645  51.8828209   5.0833355  68.7896317  51.8846007   5.5603490
  57.8356845  70.8236308  32.4501944  58.6548262  70.3619344  32.2710991
  58.1042975  71.6171463  32.9132414  16.6803277  13.4777331  54.3343973
  15.7320154  13.3728790  54.2573261  16.9166040  12.9610693  55.1047611
  73.8737127  64.8501892  59.1447496  73.6029861  64.1122110  59.6909428
  73.5307929  64.6432133  58.2753849  66.1415085  70.5536468  17.0711160
  67.0418367  70.7940025  17.2899079  66.0959426  69.6132631  17.2438371
  14.4610650  81.2037905  44.1580486  13.8649899  81.9478270  44.0724087
  14.9079902  81.1564330  43.3129168  16.5245676  24.1303778  70.5725908
  16.9463992  24.9255991  70.8980322  16.0534716  23.7821722  71.3295937
  84.7397623  67.4944837  17.7355254  85.6642947  67.4625618  17.9813969
  84.5461115  66.6129227  17.4168086   6.6559751  78.1264405   1.9423127
   6.2591774  78.9862020   2.0822895   6.1780030  77.5432007   2.5318924
   0.2034947   1.2333375  40.7143068  -0.5980781   1.5448441  41.1346340
   0.8934069   1.7941269  41.0689449   2.9608095   5.1050377  51.8996954
   2.5859576   4.2251593  51.9388342   2.4990493   5.5926585  52.5817776
  27.1503980  79.1895087  50.1530218  26.4758403  79.8598608  50.2618122
  27.5255830  79.0831767  51.0271835  41.6419077   5.6142646   1.6149525
  40.9610176   5.8497435   2.2451691  41.1737871   5.1573879   0.9161250
  32.5093246  16.7096591   3.5563749  33.3887482  16.7283261   3.1788868
  32.0225930  16.1018229   2.9997241   3.1971771  57.2702212  21.2281227
   3.1501300  57.6852460  20.3668594   4.0951497  57.4263783  21.5205097
   5.0836617  67.3273809  30.6986094   4.3648846  67.4798126  30.0851321
   5.3486807  68.2032425  30.9794331  81.7795822  14.6961403  57.6355410
  82.5972461  14.7882473  57.1464872  82.0368599  14.7919655  58.5525227
   6.0497004  22.6728511  57.2076845   6.3181823  23.4905505  57.6266336
   6.7168754  22.5157452  56.5395308  16.1869383  20.7631254  33.0110359
  16.1082351  20.5206013  33.9336514  15.3656542  20.4708767  32.6156664
  29.0888691   6.0172564  51.2814426  29.3663979   5.2853137  50.7305574
  28.1369495   6.0426539  51.1843014   4.5101864  76.8574084  63.9203501
   5.1171500  76.1951215  64.2508125   4.2435319  77.3473353  64.6982288
  25.2659900  58.8460321  56.5132952  25.3767259  59.4750781  55.8003616
  25.4844005  58.0000467  56.1223507   3.1261856  78.8621928  49.6260691
   3.7183673  78.2344688  49.2119265   2.8693206  78.4431813  50.4474592
  14.9137551  71.5694804  66.9843912  15.2945859  71.9222517  67.7886009
  15.1832730  70.6510599  66.9745541  34.9257468  44.9313887  14.1746078
  35.1443022  44.2279773  13.5633217  35.5383199  44.8163234  14.9010692
  69.8151168  37.3037548  38.5320234  68.8610766  37.3392983  38.4629297
  70.0677511  38.1828899  38.8140345  62.1110027  12.4582441   7.1709905
  61.5702622  12.3970898   6.3835321  62.9170340  12.8817685   6.8757473
  17.7593429  73.6525275  66.4955425  18.4911401  73.4213359  67.0676041
  17.9558141  74.5425470  66.2031412   2.3708259   7.2624189  30.0736046
   2.2176605   8.0762309  29.5935202   3.0295625   7.4914521  30.7292295
   6.1019843  59.7995134  12.9106556   5.6162541  59.1884644  12.3566566
   6.7790263  60.1572450  12.3363052   1.5520293  64.1881890  33.4865785
   0.9742624  63.5489733  33.9034963   1.0867126  64.4490607  32.6918101
  32.3895812  23.3425117  34.4583035  31.9027567  22.5229645  34.5453453
  33.2679725  23.1342745  34.7765708  34.2495203  13.8663983  41.9333172
  34.1092849  12.9235923  41.8456650  34.9910116  14.0528178  41.3574123
  79.2012432  11.1159706  42.8553104  78.3109912  11.0129714  42.5190449
  79.3680301  12.0572984  42.8072023  74.1730091  72.6668031  19.1265583
  73.2513342  72.6738752  19.3848181  74.2350135  71.9642873  18.4793651
  11.6450682   8.2920845   7.0763288  12.4732819   7.8401192   7.2376428
  11.8771973   9.0180119   6.4972101  14.9075404  32.0738883  12.3662029
  14.3279591  31.4699562  12.8305088  15.2736607  31.5527673  11.6516243
  55.5157471   3.2538873  49.3840599  56.2871075   2.9059279  48.9366674
  55.7229710   4.1758332  49.5367289  15.0002801   9.4839656  39.4131780
  14.6993613   8.5771120  39.4705892  15.5864871   9.5896900  40.1624537
  19.7882182  68.5279067  15.1790571  19.8289306  67.6318927  15.5133259
  20.5100448  68.9796610  15.6162226  68.5860655  43.8529320  51.7667246
  68.6628732  42.9015751  51.8392038  68.0811534  44.1118808  52.5375938
  31.2802798  65.7756217  32.8605700  31.0071380  65.6295617  33.7662697
  31.5536267  64.9122245  32.5506377  65.7717180  11.9219840  57.9993582
  65.9489298  12.8016901  57.6662779  64.8213291  11.8282557  57.9344702
  46.5717587  73.6582924  27.9033828  46.6527125  73.5621477  28.8522959
  47.0405111  74.4686682  27.7038980  25.7221627  16.9641161  29.4985676
  25.9018970  16.2301040  30.0860643  25.5398250  17.6997566  30.0832176
  41.9750357  35.9564233  67.3091984  41.0377216  35.9544063  67.5032997
  42.3724842  35.4867673  68.0424738  31.5570378  10.0446022  65.9818077
  32.4010658  10.4961002  65.9813118  31.1420751  10.3116536  65.1616096
  14.3309605  37.2777033  11.7974401  14.9913561  36.5937686  11.9085348
  13.4949470  36.8153811  11.8571985  21.5560555  25.8892083  52.5110579
  22.1003652  26.4869452  51.9985485  22.0387769  25.0626516  52.5070524
  47.6064873   9.1660947  30.9083533  47.7980804   8.8767624  30.0162697
  48.4587717   9.4103426  31.2691736  12.1490717  14.9825263  54.3438196
  11.7727768  14.2718148  54.8629761  12.7979708  15.3837919  54.9218702
  82.3957166  20.9794068  43.7332630  82.6175856  21.3723254  42.8890944
  81.6626396  20.3949928  43.5401583  71.8312714  67.2645206  50.5120039
  71.7679534  67.7784367  49.7069502  71.9519279  66.3635452  50.2121449
  50.4813147  18.2616639  48.5316801  50.3227186  18.1783402  49.4719648
  50.7516670  19.1723406  48.4141588  87.1932277  52.8196449  69.8414278
  87.0264635  51.8811650  69.9290562  86.3533530  53.2320328  70.0433636
  36.6484094  14.2094672  40.6018639  36.7779756  15.1525986  40.7015991
  36.1999273  14.1168833  39.7613120  34.1056037  21.4621520  39.0527964
  33.8169003  22.3129821  38.7226915  34.0794420  20.8871055  38.2880282
   8.4692682  61.7631256  66.0758128   9.0987791  61.1109435  65.7682266
   8.8862671  62.1553504  66.8429528   8.0853486  18.5846448  55.1290464
   7.5928807  18.7305677  55.9367704   7.4141598  18.4872150  54.4535875
  35.7610035  16.4120722  26.1903691  36.4390516  16.6307592  26.8296313
  35.9399271  16.9861054  25.4455829  77.6265996  65.8999212  10.1535450
  76.8415587  65.4249771   9.8808323  78.3531993  65.3514584   9.8577819
  76.7610925  41.1053598   0.2300773  76.3361590  41.6804388   0.8664356
  76.1090510  40.9896873  -0.4610695  22.5021505  34.5403743  32.5016761
  21.6771030  35.0155997  32.4032474  22.3077655  33.8522840  33.1380534
  70.2762792  81.2253321  45.7051229  69.5670113  81.3930888  46.3256264
  70.0594566  80.3776483  45.3169823  75.2088206  70.1938351   8.6152874
  75.5458014  70.9162958   9.1451202  75.2669423  70.5104859   7.7138506
  57.2233909  64.1196354   6.2398277  56.2851112  64.2995317   6.1806617
  57.5474828  64.7478493   6.8852268  44.3933487   6.3478875  52.6418734
  43.6952257   6.1357051  52.0223331  43.9349174   6.5723872  53.4516144
  28.3108902  30.1544213  57.3532534  27.5780964  29.6309471  57.0288754
  28.4008646  29.8977375  58.2709932  55.7642980  62.6414557  34.6619058
  55.1259151  62.0294089  34.2957139  55.3847143  62.9116864  35.4980421
   4.2071471   3.7323442   5.9087151   3.2995310   3.4295514   5.8807552
   4.1907668   4.5796844   5.4637682  67.2745085  34.9899936  18.6653745
  66.9915342  34.6484280  19.5136034  67.7148294  35.8139563  18.8737810
  43.0343342  16.7698252  62.9087353  43.2536983  16.6229415  61.9886637
  42.2045565  16.3092732  63.0335999  37.3318952  32.0948513   9.9842201
  37.8132599  32.9205127  10.0371681  36.5812510  32.2175481  10.5653511
  50.4449606  16.5900743  14.8862195  49.7472525  16.2510407  15.4470134
  50.0006962  16.8409014  14.0763140  61.0794210  25.9877968  42.4510527
  60.7454252  26.1313534  41.5655708  60.7831478  25.1065683  42.6788473
  63.5868073  27.8080392  43.2922792  63.3411407  27.5721335  42.3977232
  63.3622646  27.0372319  43.8134956  77.7007958  40.0253153  41.8203592
  76.7482152  39.9996328  41.9107056  78.0261811  40.0489569  42.7202463
  18.1879479  50.9310336  56.7026854  18.1913764  51.1549087  57.6333284
  17.3329598  51.2253661  56.3886833  75.8190823   6.0425836  41.3899469
  76.5634775   5.7832289  40.8469534  76.2062025   6.5613985  42.0950699
   0.5310383  33.2311519   6.8844591   1.2791958  33.2775350   6.2891946
  -0.1944885  33.6086710   6.3871418  13.4632540  17.2696698  42.0376873
  13.6294174  18.1391096  42.4019623  12.9322624  17.4339628  41.2584019
  33.9537811   4.7849527  33.9018393  33.7031960   4.7133848  32.9807973
  33.2296467   5.2587509  34.3109536  11.9253695  22.9559278  61.3136959
  12.4298322  23.7657952  61.2371254  11.9605410  22.7390170  62.2453308
  83.8443002  60.8120532  26.1787629  84.6043453  60.4206963  25.7481813
  83.6799917  61.6177888  25.6888390  66.6234558  57.6265295   1.2630067
  65.9245866  57.0637949   0.9296260  67.4083083  57.0796783   1.2284599
  27.1316173  29.0711339   8.2123838  27.2914707  28.9966662   7.2715650
  27.2771794  28.1876381   8.5507284  69.8429769  50.8141591   6.3818584
  69.6888011  50.0534429   5.8217035  69.2438500  50.6943835   7.1187006
  80.5210876  16.7552412  51.2954521  81.3531590  16.6253424  51.7504406
  79.8911428  16.2361300  51.7953873  65.9076897  59.8912878  52.2986460
  65.1653353  59.9450798  51.6967773  65.6927392  59.1614265  52.8794479
  37.2584248  16.6679883  51.1555481  37.6416111  15.8289909  50.8996534
  37.9082203  17.0601118  51.7388487  29.7735643  27.2586799  57.9663372
  29.5614791  27.7767253  58.7427902  30.0394225  27.9051280  57.3123837
  57.7682114  20.9296608  69.9254227  57.8512907  21.1489058  70.8534622
  58.1666040  20.0628018  69.8475122  21.0793693  55.3411431  60.2199554
  22.0270450  55.2100368  60.2508545  20.9642941  56.1348815  59.6974945
  30.1254916  14.7834921  43.9371824  30.8094811  14.9361014  43.2851839
  30.4934716  15.1209760  44.7538376  10.4791498   5.0394648  54.0460443
  10.8952963   4.1811422  54.1256475   9.8229027   5.0530100  54.7427416
  32.0144725  15.2461123  63.6750984  32.4839425  14.8080039  62.9652452
  31.1042166  15.2719021  63.3801413  78.8600955  44.4730063  64.4014645
  79.5984611  44.0271444  63.9864302  78.3215603  43.7654681  64.7558689
  41.0200405   7.1914852  36.1542678  40.4373837   7.7793086  35.6734324
  41.5539217   6.7764837  35.4767871   4.6421584  26.3688469  24.2087960
   5.5269063  26.5327692  23.8823271   4.6612448  26.6738439  25.1159024
  16.0323191  18.6912644   8.4906393  16.1069024  19.6337974   8.3413011
  16.6355324  18.3001590   7.8586566  31.9862890  29.4013762  17.6267982
  31.4045739  29.0554881  16.9498932  32.7080727  28.7738919  17.6658404
   8.5899074  80.2949294  32.1590614   7.7528889  80.7590671  32.1446347
   9.1380054  80.8078673  32.7529597  17.2371013  72.7106334  20.2574682
  17.7394444  73.0164154  21.0127044  16.9694478  73.5119547  19.8074961
  76.6072616  75.4508580  31.4660311  77.4714741  75.1018049  31.2480164
  76.5083501  75.2779998  32.4022841  55.1192665   4.4656920  34.5587826
  54.2493725   4.7604072  34.8283339  55.6550074   5.2588415  34.5700073
   6.1820561  75.4312212  65.6829262   6.1827094  75.6847621  66.6059351
   7.0861060  75.5634959  65.3975677  18.9204621  17.2927046  25.8821392
  19.2565477  16.8740737  26.6746187  17.9796875  17.3778689  26.0368085
  49.7259665   1.3801588  67.0904493  49.2444992   1.7957954  67.8057575
  49.2963314   1.6977397  66.2962246  37.1800208  27.5431561  57.5889206
  37.2688627  27.9726410  56.7381096  37.9655933  27.0018768  57.6671743
  23.5179830  22.4735093  63.8012743  23.0313635  22.3649669  62.9841709
  23.1819057  23.2887244  64.1737080  56.9636583  15.4856420  37.8612781
  56.1996841  15.1502049  38.3303833  57.2265053  14.7667229  37.2865605
  70.9490010  72.2739310  -0.0548872  70.2300844  71.7672308   0.3227974
  71.2729880  72.8075619   0.6707177  83.9339981  79.8789923  53.1601477
  84.1126237  80.7500012  53.5146475  84.0037808  79.2943220  53.9148188
  10.6422579  15.1388693  35.9197783   9.9462229  15.4164481  36.5153599
  10.7848620  15.8942556  35.3494406   2.5719959  73.9232100  49.1892242
   2.2918517  74.2914803  48.3512926   3.1091172  73.1675340  48.9511347
  61.6926527  14.2259037  47.6298332  62.4282122  14.5889843  48.1231499
  62.0976782  13.8018751  46.8732738  28.3162975  20.5342674  56.2969494
  28.9148045  20.7068372  57.0237494  28.8756251  20.5373812  55.5201769
  38.6712848  29.8277219  19.3415390  38.5553616  29.0824802  18.7521301
  39.3114894  30.3853758  18.8995109  26.7401320  65.6047101  59.1355801
  27.3119933  65.3811092  58.4012747  25.8596141  65.3905327  58.8272858
  37.5852609  20.9934831  14.0004706  38.0814266  20.3932905  13.4438550
  36.6702151  20.7517219  13.8573730  57.9440975  19.8757637  52.3057127
  57.3821259  20.2030587  51.6033602  58.4470415  19.1693032  51.9005013
   1.4209588   4.3443025  14.2184673   1.1319288   4.9012816  14.9412857
   0.6507285   3.8211692  13.9964138  21.5689278  17.6010394  59.8094988
  20.7312441  17.2653925  60.1286459  21.5851760  18.5146427  60.0946236
  33.7488675  15.5192268  50.6545210  33.6999702  16.3588989  50.1975822
  34.6866322  15.3486192  50.7423973  28.1584072  37.3056149  38.8726783
  28.7823582  36.7604208  38.3934331  28.2807612  38.1835961  38.5115552
  43.1740332  16.1343038  21.1949420  42.5771189  16.5432227  20.5682778
  43.1784630  15.2083635  20.9523582  57.0336907  56.0675724   2.6875959
  56.7531317  55.3631993   3.2718692  56.9286197  55.7051988   1.8078933
  41.6965675   4.8147866  21.3543749  42.2891998   5.5310333  21.5824270
  41.2669039   4.5876443  22.1790123  22.1343190  63.1014569  58.0794287
  22.6589066  62.6842721  57.3960543  21.7841441  62.3723037  58.5912371
  10.1535559  26.5564322  26.6046906  11.0229099  26.9258237  26.4497566
   9.8155326  27.0458674  27.3546410  76.1784229  47.4313254  19.8691750
  77.0648775  47.2080154  20.1530099  76.1299774  47.1178026  18.9660764
  50.7033110  18.8616908  30.8224750  50.1980591  18.3170557  31.4260674
  51.6074514  18.5681057  30.9345698  49.0109253  20.6989694  51.6852713
  49.3177414  21.5331101  51.3298702  48.1221485  20.8810711  51.9904709
  54.5162773   3.5459408  43.4996510  54.1793919   4.4207984  43.3063507
  55.4550028   3.6062142  43.3224726  39.4848132  11.3830304   9.6530324
  39.0439463  11.5226793  10.4911053  40.2982569  10.9335983   9.8822761
   5.3135300  28.1751823  71.0326910   5.5394095  28.8292694  70.3713465
   4.4177490  28.3938026  71.2896204  41.9892447  64.5853456   8.3734499
  41.9970053  65.0120862   7.5166736  42.2658854  65.2687343   8.9839206
  22.6126487  75.7313002  39.6401262  23.5365588  75.8554537  39.8574042
  22.4764735  76.2664307  38.8582540  51.3461208   3.7020004  49.9752569
  50.5633116   4.0502360  49.5484400  51.0633135   2.8681949  50.3507853
  30.9741473  24.9618840  58.5332489  30.2597213  24.5857620  59.0474081
  30.7019997  25.8649063  58.3697939  48.9549828   2.5421220  38.1411934
  48.2270908   2.9721847  38.5900259  49.7387600   2.9390764  38.5211301
  40.1345873  15.2006769  36.1881852  39.9458051  15.2554512  35.2513838
  41.0880041  15.1309025  36.2367034   7.8956801  78.2771255  57.9303503
   7.7717955  79.1451011  57.5462914   8.7883694  78.2930951  58.2754326
  26.5658927  14.8067141  26.8839979  26.8824625  15.2470946  27.6727176
  27.2198319  15.0124598  26.2159705  29.2170835  28.4469366  66.9817352
  28.8832784  28.1842041  66.1239624  30.1453662  28.2145429  66.9589472
  39.1797090  24.3132210  53.4423780  38.4117365  24.7157431  53.0368853
  38.8699841  24.0138483  54.2971754  19.4816351  23.9686537  58.3576298
  19.3537068  23.4690619  59.1640234  19.8940420  23.3495831  57.7552128
  66.3769481  82.3130708  43.8690281  67.1106914  82.0523159  43.3123779
  65.7656786  81.5781426  43.8194132  22.7228260  14.1515636  48.3415079
  22.7934813  13.4712160  49.0111065  21.8242264  14.0786791  48.0198860
  52.8462093  14.1887887  18.0143486  52.5282901  13.4340556  18.5098682
  52.9245775  14.8866160  18.6648307  63.5626810  36.7047022   8.9418207
  63.5228460  36.4212652   9.8552261  64.4367736  36.4469580   8.6489664
  18.4475911  25.4504800  29.2662072  18.7570107  24.5544124  29.3987083
  18.9088941  25.7497692  28.4827185  41.6541004  10.1359832  61.3488579
  42.1631050  10.8524406  60.9696007  41.2558222  10.5139804  62.1329021
  86.2013461  49.3939638  37.5644684  86.4750302  48.4996414  37.3606920
  85.2666288  49.4110966  37.3589396  29.2243535  77.5930370  39.5934868
  28.7386567  76.7682673  39.5843244  29.5021302  77.7175079  38.6859751
   6.6904528  52.7285190  44.6402311   6.6044170  52.4166317  45.5410957
   7.6342566  52.7446361  44.4814587   8.7664485  23.7067485  62.1653795
   9.6530253  24.0465808  62.0440197   8.8370520  23.1155825  62.9148912
  19.0227437  22.3115420  61.1525631  19.5849180  21.8075633  61.7409468
  18.4915662  21.6523695  60.7058239  40.3168869  38.1919098   4.2903438
  41.0530186  37.5813317   4.3295792  40.4199934  38.7416124   5.0671494
  28.1475282  14.0585160  71.0458755  27.2643542  13.9206338  70.7034922
  28.5918379  14.5645344  70.3656054  14.1818387  57.4941201  37.6215267
  13.6547811  57.5395412  38.4192586  15.0780065  57.6546021  37.9170918
  39.8502302   8.4888256  56.6525555  40.5705070   7.8650224  56.5614367
  40.0741386   9.0014267  57.4292994   5.9167308  22.9459000  39.9809933
   5.1669586  22.4114370  40.2425718   6.1552286  23.4278488  40.7728720
  35.6028724  23.9799476  60.0706434  36.2576509  23.8024354  59.3953753
  35.4035378  23.1208372  60.4427052  84.4877514  70.1402648  22.3925853
  83.7936172  70.4848595  21.8307447  84.8976621  69.4502361  21.8709874
  30.1146436  21.8621373  51.8526840  30.1594305  21.5227985  52.7465963
  29.3974710  21.3748479  51.4471674  18.5732615  34.6287513  22.4179053
  19.4185698  35.0184321  22.1946669  18.0667305  35.3514862  22.7884579
  20.6796861  44.3776846  35.8790421  21.5154052  44.3489170  36.3448501
  20.8485365  43.9197063  35.0556469  19.2238653  12.8847766  46.3335466
  19.8416972  12.1705866  46.1771870  18.7180638  12.9456413  45.5231810
  65.1102686  25.2811575  48.5868073  65.1614523  24.6622157  47.8584385
  64.7485209  24.7698474  49.3106365  30.3413081  26.7298079  32.7141786
  30.2698612  27.3592925  31.9966292  29.4388318  26.4636731  32.8900719
  10.6119978  16.8709779  68.1666946  10.3414822  17.6747489  67.7228403
  10.4094768  16.1733675  67.5433493   5.7666600  10.1419175  69.7378111
   6.6419327  10.4496479  69.9732447   5.1728791  10.7623076  70.1606226
  28.9720821  23.3259320  57.2870016  29.2125821  22.5372839  57.7732372
  29.7193217  23.9135695  57.3990250   3.6686486  34.3766379  28.5991335
   3.7813824  34.2154574  27.6623607   3.7388760  33.5108590  29.0012836
  25.3920817   6.9803739  67.6615381  25.7087994   6.1206275  67.9385948
  24.4836950   6.8283892  67.4008369  38.3219314   6.6768432  44.1281509
  38.8027239   6.0420847  43.5969687  38.8728118   7.4596179  44.1229677
  35.0068910  74.1961194  52.4607563  35.9277303  74.0734024  52.6914644
  35.0001962  74.9791552  51.9102621  17.8912914   4.3669868  53.2140160
  17.8370404   3.7456658  52.4878979  17.4794364   3.9128512  53.9491129
  68.9490518  74.1369904  66.0407019  69.5286975  74.4512315  66.7346001
  68.1820819  73.7998630  66.5036631  16.8004322  13.5687137  24.2429566
  16.5058577  14.3394578  24.7281504  16.0005879  13.2040048  23.8641858
  29.0006948  24.1236687  60.2280474  28.4115291  23.3697319  60.2544165
  28.4380603  24.8741078  60.4191256  29.7045524  49.8929615  31.5577340
  30.3870589  49.3053980  31.8820572  29.6784169  50.6053753  32.1964931
  58.4516954  17.3172963  39.8192549  58.8839197  17.7807105  40.5366564
  59.1214943  17.2515643  39.1386032  21.1751372  60.3151484  51.5602541
  20.5278737  59.6994443  51.2164593  21.6019637  60.6733770  50.7819700
  31.1959076  23.8126540  31.2463856  31.9417429  23.7990737  31.8461990
  30.4433846  23.5910535  31.7948699  70.3737542  65.6891782  25.8162045
  70.5279801  64.7539051  25.6831217  71.0471925  65.9563417  26.4417744
  55.3955603  44.2953587  49.8264122  54.8987961  45.0330067  49.4723988
  56.3111448  44.5249176  49.6675634  48.0940872  72.2521503   0.8665500
  48.3059066  73.1658919   0.6756578  47.4972015  71.9929631   0.1645647
  85.8281097  70.6919987  38.1714749  85.1891193  70.1961024  37.6596069
  85.9330973  71.5138371  37.6921082  21.8155313   8.4840643  35.8983684
  22.7475977   8.6406350  35.7468152  21.3857651   9.2832398  35.5936527
  31.2143636   0.9594946  20.8831215  30.3085709   1.1230215  21.1458588
  31.7126656   1.6706671  21.2858129  18.5795987  50.6571388  51.0115385
  17.9075837  50.1951265  51.5127087  19.2613840  50.0016642  50.8640337
  33.7491179  11.2920797  15.6801367  34.3203378  10.7942605  16.2650442
  33.6813569  10.7507527  14.8936224  11.9096906  67.1693642  33.2369375
  11.0217340  67.0003958  33.5519171  12.3055942  67.7139659  33.9173055
  21.2928843  35.7677126  40.3551960  22.0010090  35.1323724  40.2496719
  20.4942465  35.2401686  40.3447247  51.5760565  16.8075669  10.8974850
  51.9058418  17.2238731  11.6938293  51.6328001  15.8690155  11.0767436
  23.4931878  40.1199143  62.2903623  23.2292471  40.9171515  62.7496882
  23.9579288  39.6058029  62.9506178  33.4263665  68.1513889  56.3329935
  34.1403491  67.5187082  56.4115715  33.7874562  68.8541312  55.7926226
  63.7045860  23.7646031  50.7876873  62.9292011  23.2673144  50.5274725
  64.2910576  23.1114554  51.1693716  43.7765074   5.5568981  70.0546026
  43.9693785   4.7646931  70.5560446  42.8450632   5.7161188  70.2072096
  30.1040792  35.0974154  29.6516323  30.9912014  35.2658367  29.9692535
  30.2078223  34.9674273  28.7089920  85.2816817  12.3015165  67.0172739
  84.3447339  12.2470999  66.8291283  85.6527325  11.5161097  66.6151667
   3.4273464  79.8817083  67.7620745   3.1318004  79.5754164  68.6194372
   2.9882414  80.7240458  67.6442289   6.5409142  80.9167725  45.1969051
   6.0205538  81.6839802  45.4353333   7.0823867  80.7457271  45.9674740
  62.4356890   7.6726836  30.7060003  61.5574980   7.2947967  30.7531142
  62.4590349   8.3136976  31.4164829  85.3318977   6.8516535  39.3209720
  85.7061195   6.0729104  39.7329807  84.5644093   7.0592421  39.8539877
  27.4111247  16.5057921  32.6471853  26.8963408  17.1958399  32.2287822
  28.2711267  16.5626383  32.2307754  84.4011101  61.2341948  51.2557650
  83.7621054  61.6032834  50.6461096  84.3372640  61.7878957  52.0339489
  32.2731733   3.3638492  36.9923258  31.3591480   3.0986384  37.0945573
  32.2498941   4.0523514  36.3277555  21.2927110  81.3648253  25.3830600
  21.4003760  82.0446503  26.0482502  22.0094974  80.7523440  25.5483508
  36.2335944  42.1881866   7.5613499  35.9926176  41.6422510   8.3097595
  35.3996992  42.5200272   7.2285813  71.9076869  78.1401930  45.3767872
  71.0665831  77.8814275  45.0002050  72.5373277  78.0120761  44.6673012
  32.1761847  21.9939518  64.4979286  32.8499460  22.6623082  64.6227360
  31.7656469  22.2206092  63.6634731  39.5535803  11.9750774  34.4565630
  40.3419781  12.4341059  34.1668129  38.8309169  12.5180936  34.1417241
  37.1481848  30.4183435  53.7598085  37.3840213  29.5123792  53.9594173
  36.2181687  30.3801131  53.5365582  27.6315522  22.8441858  39.8957443
  27.6766396  23.7350368  39.5484948  27.9030156  22.9293466  40.8096838
  29.8264742  27.1333051  35.7936645  29.7994304  28.0429149  35.4968309
  30.6443524  26.7886043  35.4352069  72.4765389  44.4116424   4.3771301
  73.1770175  43.8828324   4.7591196  72.8509419  45.2896987   4.3059240
  41.3223553   4.5071667  47.0456648  40.6843138   4.5177907  46.3322115
  41.6191053   5.4145509  47.1151352   0.5636731  67.1826632  19.0543209
   1.1874905  67.1897967  19.7802959   1.0864439  67.4154504  18.2870231
   9.6724603  24.9579620  65.1798725   9.0673349  24.3212247  64.7995806
   9.3277738  25.1212454  66.0578012  37.9872465  12.3303211  63.6454535
  37.3131490  13.0095363  63.6232424  37.6203847  11.6118371  63.1302643
  33.7498069  28.1664133  51.0523033  34.1097832  28.4215903  50.2028751
  32.9388380  27.7044773  50.8397579  39.4865131  21.7459869  65.6253290
  39.6274757  22.3208261  64.8730516  38.8241696  21.1217284  65.3289557
  62.7854013  40.2232742  67.8336525  62.2246408  40.8555698  67.3842335
  62.2256994  39.4580460  67.9655313  47.2597122  24.0712428  53.0976629
  47.2913647  23.1275797  52.9404116  46.7219830  24.4150305  52.3843002
  59.6854544  18.8232505  54.6971226  58.9823580  18.3342302  54.2696381
  59.2911100  19.6674585  54.9162912  19.8153646  77.7087985  70.1898432
  20.0118310  78.3065589  70.9111691  20.3807456  78.0018137  69.4751978
  17.9907996  65.9948952  58.3685112  18.6240346  65.3215833  58.1197166
  18.2932193  66.7851622  57.9210186  58.2394361  24.0095353  40.3130960
  57.4290180  24.4271326  40.0214434  57.9523802  23.2046604  40.7443810
  50.4023600   4.9148196  40.6418467  50.6603527   5.3492290  41.4548397
  49.7712326   5.5123949  40.2408266  19.4497752  27.6682901  52.6656914
  19.8883414  28.1124043  51.9399834  20.1438189  27.1678948  53.0948067
  78.2278395  53.9152050  46.5597200  77.8108978  54.7766685  46.5761089
  77.5098944  53.3047915  46.3918447  68.0051708  17.9386926  52.4021959
  67.8412294  17.4913323  53.2323933  68.9292812  17.7705133  52.2179079
  14.9017770  75.3396477  22.2945976  14.6382720  74.4303639  22.1531796
  14.4767577  75.5872382  23.1157470  34.0368032  16.4039910  65.0732899
  33.1669021  16.1357570  64.7773933  34.5129466  15.5823135  65.1931429
  20.4988232  39.9358830   6.7258058  19.8567143  39.7635187   7.4144397
  20.1879301  39.4285514   5.9760128  11.1496694  73.0984451  47.7900553
  11.4705092  72.2888215  47.3928118  10.3053314  72.8594185  48.1724024
  59.8744249  12.9845285  12.5186288  59.2514753  12.3337150  12.8420627
  59.4448709  13.8255596  12.6747787  11.3224656  71.3774200  54.9880314
  11.1454732  72.2813703  54.7276878  11.9205911  71.0477526  54.3173647
  56.6217232  40.7633162  46.4830494  55.8937597  40.8247232  45.8645535
  56.7045116  41.6460133  46.8439198  74.3151617  35.4989600  58.8660574
  74.0667200  34.6347117  59.1940594  73.4964752  35.9947658  58.8533831
  53.7415457  33.7265778  13.2231975  52.8056049  33.5679793  13.1003296
  53.9187908  33.4336543  14.1170716  44.9013042  41.2594175  47.9343748
  45.2143240  41.0150194  47.0634413  45.6938171  41.4968061  48.4158325
  24.4250568   1.3560021   8.1625543  24.5962938   2.0523227   7.5284849
  25.2856954   0.9762347   8.3394943  63.9279938  59.0481472  44.7218037
  63.6632013  58.2095242  45.0997257  64.7512484  59.2598915  45.1618528
  61.1650229  42.7697754  44.5789528  61.4733458  42.2208977  43.8579130
  61.9483280  42.9404163  45.1019669  56.8637562  32.4039960  44.3904400
  57.5372219  32.7802157  43.8237524  56.0810852  32.3674655  43.8406038
  63.0108213  42.5074244  62.0879841  62.1676779  42.8327036  62.4034691
  62.8732300  41.5686464  61.9614887  66.7832422  41.3394690  49.8004484
  65.8422709  41.3928318  49.6332359  66.9226599  40.4412031  50.1003075
  69.2585707  30.0558138  52.4700642  69.0001869  30.9042215  52.8301620
  68.4418488  29.5594740  52.4167681  62.4086237  37.2463155  69.7085047
  61.9443607  37.9327774  70.1875257  61.7830086  36.9507909  69.0470648
  12.0578096  54.7835875  30.9662366  12.9886625  54.8816729  30.7659316
  11.9378660  53.8423634  31.0925126  50.5429649  26.1591458  60.1572037
  50.9591389  26.9997025  60.3482389  50.1079941  26.2931347  59.3151379
  50.1655102  44.1551352  50.6169987  49.8407078  43.2822180  50.8377934
  49.5579147  44.4751883  49.9501944   8.8276902  77.2472318   0.2175508
   9.1220274  77.9636295   0.7800184   7.9788103  76.9922288   0.5789505
  52.9942036  36.8754339  50.4428577  53.2585526  37.7799606  50.6107473
  52.0377493  36.8955755  50.4747629  69.3528843  69.8463249  51.1755037
  69.1582394  70.0313187  50.2567434  70.2935934  70.0031900  51.2573290
   6.1562536  35.4631567  31.7753530   6.1726282  34.5153952  31.6422725
   6.1312101  35.5711198  32.7261162  45.4195118  30.1514149  63.1357861
  46.3727283  30.2176833  63.1925058  45.1022243  30.5714846  63.9352226
  77.9232931  31.2148714  46.9764280  78.7428761  31.3436365  47.4538469
  78.1684256  30.6840205  46.2185764  75.1076460  22.4310899  55.0692844
  74.8114443  22.8126860  54.2429161  74.9354506  23.1098461  55.7218695
  82.8522437  78.1484421   4.0819727  82.8132098  78.4791620   4.9793754
  83.7009185  78.4456666   3.7538801  31.4900859   0.8523333  16.0293232
  30.9170707   0.1434338  15.7371841  31.9233497   0.5043376  16.8086944
  71.9909573  21.0090446  65.5956030  72.2591162  20.9171224  66.5098619
  72.7812433  21.3031101  65.1426077  71.3564634  29.2448354  64.5155430
  71.5525389  29.7150898  63.7052059  71.3212299  28.3242512  64.2557049
  56.2774134  45.2247858  61.4373159  55.9407949  44.4350433  61.8606758
  55.5547667  45.5286694  60.8880711  30.5406704  81.0465749   4.0729843
  30.1172200  81.7795403   3.6261306  31.4655438  81.1256965   3.8393722
  45.7087851  46.1763620  49.6002817  45.3034019  46.9385862  50.0136995
  45.4166698  45.4336166  50.1287031  49.3309164  38.8728642  51.6130304
  49.6999884  39.5908856  51.0987711  49.5316648  38.0866861  51.1052322
   0.9975622  52.9401922  54.6215868   0.6808565  53.6847591  55.1330042
   0.2839563  52.3032951  54.6586466  71.4566978  10.8937467  29.1723476
  71.2879451  10.1405681  29.7384582  70.5944045  11.1394465  28.8372265
  84.5056343  34.7149491  59.9244404  84.8084736  34.1056657  60.5977106
  84.1244030  35.4433918  60.4146147  49.3851614  61.4185858  26.2377954
  49.0356684  61.2189388  27.1062589  49.9044943  62.2124767  26.3653040
  15.9504888  39.1036844  58.0247593  16.9006154  39.1178656  57.9094791
  15.6203649  39.7168756  57.3680639  18.4186354  59.3103953   9.7950588
  18.6456004  59.9007781  10.5135093  19.0133801  59.5558627   9.0863548
  59.9552345  63.7363672  52.9284096  59.9468708  62.8141785  53.1847906
  60.7304668  64.0974712  53.3583450  68.9873028  16.2566900  44.7825575
  68.5023308  16.1757731  43.9612865  69.8575974  15.9124827  44.5816994
  28.5799065   1.8513994  56.7189264  29.2876568   2.4542360  56.4910889
  28.9931813   0.9880285  56.7245436  82.3753738  64.6562099  51.3532495
  81.9004726  64.6242619  52.1837187  82.3549366  63.7551737  51.0308361
  83.4372997  53.7637234  28.8683963  83.9386654  53.6746979  29.6789145
  82.9363728  52.9504490  28.8060784  52.1877956  63.2813454  34.3547559
  52.1323013  62.3321819  34.4653893  52.5921869  63.5935879  35.1642013
  15.6783438  82.2386932  26.0976386  16.5942121  82.0570850  25.8868504
  15.4395592  81.5618324  26.7309403  15.4166601  63.3528805  27.2666955
  15.4962919  63.6472273  28.1740260  14.6143911  62.8309298  27.2537637
  72.0988894  34.8016453  53.6641979  71.3136005  34.6565604  53.1364632
  71.7665625  34.9820065  54.5435524  48.6926603  69.2073917  35.2453566
  49.4446135  68.6588526  35.4687548  47.9426956  68.6140108  35.2864861
  82.2929573  81.4769363  28.1073070  81.4466095  81.5819740  28.5419345
  82.3927212  80.5307102  28.0027890  67.4617434  50.5333948  43.2297182
  68.0824852  51.2408924  43.4039593  67.9585171  49.7323990  43.3966112
  64.4727755  56.9285059  36.4426494  64.5850515  56.0620642  36.0516191
  63.8227367  57.3593569  35.8876276  68.6517286  59.4685030  31.4597654
  67.7983189  59.4933605  31.0269809  68.5584879  58.7962437  32.1347523
   3.1794736  60.3717518  52.5147057   2.3999975  60.8362198  52.8195238
   3.7891576  60.4180241  53.2511663  56.8250275  54.1547537  40.8289194
  56.8000555  54.5474052  39.9563169  57.6997614  53.7715960  40.8942032
  67.4876595  67.8406811  42.4226522  67.3756552  66.9197559  42.6584244
  67.8374243  67.8190374  41.5319061  61.9153881  43.3060408  54.2682362
  61.0153055  42.9971600  54.1649055  62.3027134  42.7062988  54.9058247
  70.5105543  82.0230293  55.8603477  70.3670835  81.1752033  55.4398155
  70.0874805  81.9410896  56.7150545   9.1098020  56.2455463  63.9237022
   8.2701204  56.4194489  63.4983492   9.1217992  55.2969456  64.0511751
   5.8320942   0.6255941  22.9702187   6.0520306  -0.2837439  22.7678156
   6.1321059   0.7498579  23.8706541  37.2863817  72.7451086  46.4987326
  36.4624476  72.3090124  46.2815094  37.9063582  72.4261522  45.8428955
   5.6627462  79.8872185  42.8047943   6.1862275  80.1149178  43.5731411
   5.0250623  79.2513847  43.1293011  80.5093575  53.4813356  48.0678988
  80.4836369  54.4152641  47.8596926  79.6615696  53.1471872  47.7749300
  63.5626125  30.8456564  42.3124599  64.0760517  30.7309127  43.1121159
  64.2033386  31.1100149  41.6522980   9.4013021  43.7995815  53.5481739
   9.6325872  44.6733904  53.2332277   9.2108629  43.9227962  54.4781113
  76.5787935  63.7337542  21.7882919  77.0725250  64.3678713  22.3082447
  76.8621397  62.8810549  22.1182251  14.7762582  52.6622200  47.3599005
  14.8669813  51.7940807  46.9670391  15.1541231  53.2583761  46.7133379
  68.2094479  56.6312695  61.0085535  68.6906433  55.9797096  61.5186119
  67.3309851  56.6319799  61.3887405  86.1556625  30.0111413  32.6336765
  86.0436058  30.9609938  32.5955176  86.9294071  29.8831034  33.1824517
  73.3199596  32.8160858  41.7663622  74.1247797  32.7935433  42.2840357
  72.6172924  32.8248596  42.4163008  82.4653149  61.7759895  49.3788767
  82.1489906  61.1102962  48.7681246  83.0265045  62.3409939  48.8477755
  61.5821266   2.7394724  26.1225772  60.6815958   3.0111372  26.2999797
  61.5514183   1.7829096  26.1392140  17.8573987  67.1540260  49.7060680
  17.1244428  66.5908432  49.4573975  18.6116502  66.7809248  49.2498541
  66.8897915  62.3205471  42.8301907  67.2075176  61.7338705  42.1438265
  67.3838902  62.0668697  43.6097717  28.0042687  -0.0793715   9.0210176
  27.6590481   0.3948717   8.2646149  28.9437046   0.1038389   9.0102309
  56.3862038  75.6714821  30.2575183  56.7241096  76.3619900  29.6872091
  56.5655422  74.8597670  29.7829771  70.1162338  55.2206421  58.6740494
  69.6548748  56.0340214  58.4696198  70.3717947  54.8693657  57.8210974
   3.9400956  48.2860518  20.7647109   4.3102834  48.5321188  21.6124368
   3.3598611  49.0124321  20.5368066  11.9000528  26.9220209  56.2261724
  12.6813886  27.1331644  56.7372227  11.2364480  26.7061090  56.8813419
   0.8833024  67.0499325   7.8883183   1.5212915  66.3973713   8.1770557
   0.6617162  66.7890882   6.9944000  70.8493614  52.7398634  67.5921345
  71.6240263  52.1779251  67.6110077  70.8140564  53.1285334  68.4661579
   7.9234311  58.2381678  20.4383755   8.6450765  58.7411070  20.8158827
   7.3526189  58.0434465  21.1816692  67.2324944  53.7601519  26.0536337
  67.3066044  52.8060722  26.0755157  67.1927691  54.0184784  26.9744587
  64.6691990  54.9500942  40.6193686  65.3025198  54.4282293  40.1266289
  64.6322346  55.7850695  40.1527977  69.8971987  54.4791460  62.4240065
  69.8171997  53.8656950  63.1544256  70.0767851  53.9250374  61.6644335
   7.3574540  34.4273639  46.1247396   6.6240785  34.9357677  45.7784510
   8.1141660  34.7233725  45.6187868  18.5464094  62.9825449  33.7915039
  17.6159665  62.7641964  33.8447380  18.7817857  62.8073978  32.8803778
  83.9351273  81.4697742  10.7886624  83.7328148  82.3193741  11.1804163
  84.7536469  81.6138077  10.3137743  44.8776872  35.5862777  65.4530378
  44.1585786  36.0909955  65.8330073  45.4727656  35.4281537  66.1859156
  44.4683590  77.1709211   8.1357895  44.9147835  77.4638827   8.9302145
  44.2768326  77.9775579   7.6573692  42.3019829  13.5329275  51.7280102
  43.2341137  13.7400274  51.7948961  41.9569531  13.6952810  52.6059818
  66.6294336  57.7063704  22.6425982  67.0046329  57.4398994  21.8032861
  66.6973877  58.6611557  22.6429987  50.4100275  73.1561804  44.5512056
  51.3553762  73.0806398  44.6809912  50.3169060  73.4979010  43.6619473
  70.1223755  77.8170872  28.0040789  70.6124783  78.5985994  27.7486038
  70.1311255  77.8311014  28.9611363  28.6318913  13.5586958  41.5492201
  28.9954129  12.6756124  41.4840174  29.0896836  13.9519052  42.2922230
  80.8701992  54.8951912  61.8640041  81.2106133  54.1194487  62.3096180
  80.0060940  55.0341940  62.2515917  58.8334513  59.0009975  62.4567080
  58.2778692  58.3209896  62.8376961  58.2844353  59.4128895  61.7895079
  84.6303272  38.2354045  50.7304287  85.1797676  37.8884482  50.0276041
  85.1469707  38.1039405  51.5254259   6.6955373  13.4569800  49.5071840
   6.5679548  14.0453029  48.7629843   6.4352414  12.5961626  49.1793537
  65.5936861  47.3719692  46.3744164  65.2268934  48.1199217  45.9029675
  65.3370047  46.6111469  45.8533669   9.6024225  44.4202089  62.9691601
   9.0839860  45.0079155  63.5187578   9.4580266  43.5516357  63.3446121
  22.9876900  77.8588200  60.1710033  23.7008715  77.7751732  60.8039379
  23.1588149  78.6886358  59.7256279   9.7126767  71.9470882  26.3166928
  10.0480363  72.8196001  26.5228128   8.7728402  72.0757961  26.1887383
  85.8822148  13.3448629  39.8017979  85.8567803  12.7647047  40.5627155
  85.1667350  13.9636068  39.9483442  83.2594299  30.7091188  28.9383864
  84.1206264  31.0945368  28.7770319  83.3874416  30.1486564  29.7037125
   4.7843454  61.7335224  50.5401182   4.7887132  62.6853848  50.6409931
   4.1699598  61.4249134  51.2060928  51.0235936  34.2587583  56.1180081
  51.6724641  34.9370400  55.9305813  50.4196317  34.6694867  56.7366828
  53.2248259  31.6527629  51.3649845  53.3088589  32.5612164  51.0753632
  52.2806931  31.4996099  51.4022493  16.0747662  14.4566851  27.0193362
  17.0185318  14.3410997  26.9090009  15.9211626  14.2970686  27.9505515
  36.4195099   7.7842836  34.5784593  36.0048142   7.0565920  34.1150737
  35.8345452   7.9639940  35.3144979  24.1116944  58.5355182   5.9933172
  24.2693558  57.9112132   5.2850662  23.2054463  58.3753128   6.2565122
  16.1208436  31.5541887  47.9321241  17.0688054  31.6544509  48.0189228
  15.9999654  30.6436968  47.6626301  81.1517143  59.7851038  56.9047976
  80.4785728  60.4645967  56.9423389  80.9219646  59.2625618  56.1364269
  56.4110374  73.4696865  55.0900936  55.5834723  73.0252695  54.9060726
  56.4447594  73.5273790  56.0449553  17.6320060  11.8430055   3.0494104
  17.8055604  11.2827409   2.2929607  16.6995462  12.0495856   2.9855428
  10.9353731  27.3226762  35.0766778  11.8328378  27.1548533  35.3641367
  10.9205434  28.2574391  34.8711801  75.7798529  66.9138288  54.1298437
  76.3192081  67.6214075  53.7767696  75.7598162  67.0757341  55.0730371
  67.2323227  47.2180033  42.6804924  67.2716713  46.5517521  41.9943523
  66.6855669  47.9110241  42.3103428  57.6776361  68.1261158  54.8007536
  58.2754183  67.3860884  54.9068069  57.8542852  68.6868668  55.5561209
  17.7919957  81.7132568  64.6919632  17.7450464  82.2077084  65.5102205
  17.5203512  80.8272457  64.9315882  65.9692526  76.5512228  50.8758259
  66.8689728  76.5087366  50.5518961  65.4911470  77.0228577  50.1937628
   8.5259435  53.8112164  49.0677834   9.3779561  53.4481478  48.8259554
   8.6152742  54.7523308  48.9175844   1.3525674  61.8537712  50.5364513
   1.4436052  62.2760344  49.6822643   1.8073079  62.4387264  51.1424780
  49.6544933  51.9343424  64.6943808  49.6227503  51.0247040  64.9906635
  49.1322708  52.4140310  65.3373528  65.7518625  57.3442411  25.5953264
  65.4464912  57.3759508  24.6886969  66.7056608  57.3039150  25.5255318
  81.0987091  50.8573914  25.6951857  81.7051697  51.3482571  26.2497091
  81.1148548  49.9687958  26.0506773  82.4900150  26.0314751  25.8388090
  82.5046539  25.4733825  25.0612807  82.0674610  26.8389511  25.5461216
  82.0219517  67.0643806  27.0763516  81.2146759  67.5280905  26.8538523
  81.7265415  66.2254620  27.4301672  54.0299877  44.7311461  14.7321067
  53.5578426  44.5105040  13.9292179  53.8595279  45.6641162  14.8615108
  40.8058977  71.4292574  51.0453463  39.9714231  71.3484764  51.5072536
  41.1054850  72.3160982  51.2453365  75.0764942  67.6616001  23.7656784
  74.6195650  67.1534681  24.4359398  74.3765926  68.0438757  23.2363033
  65.2096367  20.8463120  51.6933632  65.3546667  21.5113258  52.3663807
  64.7107553  20.1607585  52.1376228  74.2609930  47.0438576  55.9123421
  73.3861971  46.7848110  55.6227684  74.6837902  47.3830366  55.1233959
  12.5326822  71.4044046  45.8458805  11.9683835  70.6338310  45.7824564
  13.4062478  71.0487747  46.0090733  15.1903818  58.1220579  58.5602903
  14.4836709  58.5326481  58.0620861  15.8689973  58.7950993  58.6125278
  71.0381126  62.0458746  36.5918946  71.5809441  61.3755083  37.0068407
  71.4643860  62.8726864  36.8175006  86.3172436  51.8082952  20.7920098
  86.9930840  52.4857426  20.7687235  86.7400169  51.0352612  20.4179573
  22.8849259  33.5088091  58.2451868  22.8971711  32.8849630  57.5193119
  21.9648829  33.5558729  58.5050535  54.6341880  14.4172538  11.2817989
  54.4049152  14.9093497  10.4934345  54.8367198  13.5372174  10.9643875
  16.2388322  40.6932831  43.0056763  16.2526224  39.7364664  42.9824162
  17.0169732  40.9560490  42.5140524  50.8484507  44.8171425  70.5708981
  50.7600355  43.8651085  70.6160450  50.9339857  45.0056934  69.6363592
  76.0665846  58.0154467   6.4236605  75.8653975  58.2635260   7.3259974
  76.6218519  57.2401762   6.5065354   5.8926382   4.7888308   0.1246280
   4.9413863   4.6882658   0.0894843   6.2187949   3.9122705   0.3283237
  60.8822012  70.5752707  53.1558037  60.6199598  70.1321411  53.9627123
  60.2150011  71.2490082  53.0248356  80.3080368  55.1905489  27.0043516
  80.0826168  55.6808090  27.7949619  81.1505413  54.7838163  27.2068071
  76.8646717  59.9111366  33.3879972  77.6170778  60.3749561  33.7553978
  77.1374846  58.9939737  33.3631516  63.8759756  59.9290037  55.5168724
  64.1702032  59.0931559  55.1549053  63.0945349  60.1480103  55.0093126
  54.4693756  35.7690334  59.6947861  53.7746382  36.4102578  59.8444700
  55.0479078  36.1871743  59.0570641  84.5820808  34.2658567  29.1342568
  84.0724087  34.3925405  29.9345183  85.4189205  33.9129806  29.4365978
   1.0295143   7.5643949  65.9632397   1.9696751   7.4819975  66.1230373
   0.9111920   7.2550325  65.0651693  59.5817852  50.6664276  42.4904490
  59.7339964  49.8797035  43.0140162  60.3570795  50.7372141  41.9335461
  12.5347802  38.9222288  61.9927073  11.7997358  38.3198857  61.8781948
  13.1094930  38.7430000  61.2485123  14.4827834  66.1363848  16.8732963
  14.4519940  65.1833899  16.9574676  13.6437788  66.4350517  17.2241436
  52.7412358  13.0457716  34.1201091  53.0926934  13.9315920  34.0304780
  52.9700985  12.7864675  35.0126410  65.6222814   6.4735537  38.1090975
  65.7203405   5.5796175  38.4369469  66.0253137   6.4558821  37.2410631
  73.2716799  67.5616646  58.6981869  73.5872173  66.6639042  58.8015795
  72.8025818  67.5560713  57.8638315  76.1666822  33.3843708  25.5195498
  76.4208174  34.1867065  25.9755182  76.4358997  32.6789832  26.1079216
  78.9700174  61.7306900  60.1547050  78.3338642  62.2777128  60.6154776
  78.4978437  60.9190702  59.9687958  10.5376521   2.6555376  34.2665434
   9.6091500   2.7166491  34.0420794  10.9698334   3.2621508  33.6653256
  10.1485154  42.0815277   8.6056638  10.3479955  41.1460066   8.6407471
   9.4098375  42.1463823   8.0003631  69.7270727  72.3158979  44.9788427
  69.3334818  71.6050625  44.4728422  69.0119362  72.6481485  45.5214453
  77.0152950  46.1696148  10.8327544  76.8126297  46.8341827  10.1743412
  76.4193583  46.3605213  11.5570796  85.3049469  39.7186708  38.0429482
  86.1307812  40.0791121  38.3659053  84.9345112  39.2572117  38.7953234
  14.5516202  57.8475666  51.4957666  13.8716600  57.2165966  51.7319155
  14.9007032  58.1486893  52.3346376  61.1028576  70.5730772  42.7646923
  62.0516968  70.4468441  42.7666521  60.9876490  71.5227699  42.7324104
  78.5660982  45.1298666  13.0086565  78.1166553  45.3007889  12.1809983
  78.2321215  44.2784786  13.2911944  38.7436565   4.4668353   3.1492792
  37.9627879   3.9152205   3.1023727  39.4404205   3.8724435   3.4275709
  73.6930895  64.5196247  54.8041439  74.1483068  63.9476013  54.1862440
  74.3473053  65.1727247  55.0525379  51.6993856  80.2863407  17.9492795
  50.9707737  80.8883858  18.1006181  52.4827147  80.8187294  18.0878174
  85.4001039   5.0853949  17.3127759  84.9941390   4.3921213  17.8331494
  84.6661990   5.6245928  17.0180130  70.5772448  44.6171379  49.9762487
  70.0469780  44.2634392  49.2621469  70.0326777  44.5078135  50.7558203
  54.6896019  81.5049489  16.4909588  54.0473500  82.2084077  16.3967357
  55.0763550  81.6478475  17.3548065  73.8430357  69.1838312  36.5715909
  72.9371500  69.2535162  36.2703490  73.9269447  69.8657560  37.2380543
  68.2411671  46.3241291  32.7925229  69.0688992  46.7975664  32.8758764
  67.6008797  46.8814564  33.2348490  75.3037214  81.4641857  56.4304590
  76.1888599  81.1007023  56.4050770  74.7554636  80.7389164  56.7298460
  54.6536779  73.6626911  32.5892115  55.4358196  74.0658331  32.2124362
  54.5206451  72.8684807  32.0717525  18.0482957  69.3412638  39.1364765
  17.7488515  69.0137768  38.2883525  18.9472768  69.6293592  38.9781547
  71.0344934  50.3855753  48.9736938  70.1443338  50.5315971  48.6534977
  71.1989164  49.4570732  48.8091564  72.8392839  79.6300364  56.2460184
  72.1531010  79.6279907  55.5786562  73.4902906  79.0075445  55.9220934
  69.3558025  52.5707817  64.3227243  68.4397030  52.7561903  64.1162729
  69.3163872  51.9238615  65.0271177  76.2295437  35.0736761  34.9801397
  76.3663244  35.9886909  34.7346354  77.0346212  34.8245597  35.4340363
  71.2833977  80.3645802  50.6891155  71.2671614  80.8147621  49.8445463
  71.3121176  79.4345951  50.4643011  83.4755135  62.9546404  32.1878695
  83.7903595  63.6520529  31.6127872  83.2493401  62.2385645  31.5943074
  32.4871953   5.2744019   3.6829029  31.7823537   5.6245292   4.2277322
  32.0367320   4.7980941   2.9854475  45.8966780  62.2759247  23.0992413
  46.3882923  63.0591249  22.8519726  45.9758568  61.6946936  22.3428464
   9.4479558  50.1485586  45.7355261  10.2911565  49.7543335  45.5122948
   9.0782258  50.4157972  44.8940277  70.9131145  69.0271235  60.3346300
  71.7091656  69.4942522  60.5882549  70.8770561  69.1149282  59.3821478
  85.4749816   7.7769499  12.0491707  86.3889449   7.8880911  11.7873383
  85.2877181   6.8537550  11.8792450  74.8478651  37.5164628  19.6979976
  75.6151628  37.0176482  19.4175184  74.9074268  38.3399844  19.2137504
  71.4327288  33.5487413  29.1718316  71.7150640  33.9373207  28.3438683
  71.9110489  34.0377975  29.8413610  70.3932142  59.6152210  38.6886549
  70.8740520  60.2251863  39.2480898  71.0353947  58.9434814  38.4592986
  77.5571442  35.1297617  54.6277094  76.9279099  35.6265068  54.1047001
  78.0608606  34.6299386  53.9853096   1.6760728  69.6884203  54.7442198
   1.6871450  70.6448412  54.7072077   2.4458597  69.4203806  54.2424202
  61.4977932  54.0420389  24.3127537  61.6588449  53.8327837  23.3926940
  61.2819719  54.9745893  24.3120623  84.8175812  40.4606676  57.6433802
  85.5762196  40.0612020  58.0689859  84.8262119  40.1044321  56.7549801
  80.7818794  32.8102565  56.3084316  80.3070736  32.5425172  55.5216026
  80.2673149  32.4526334  57.0320082  26.2095776  62.0555456  21.3683067
  26.4983883  62.8187163  21.8686901  26.3686600  61.3129290  21.9509254
  23.0727479  38.4660029  20.4295397  23.3727262  39.3744779  20.4598475
  23.0953500  38.2371807  19.5003676  12.7562345  78.3471024  67.0875566
  13.2425512  79.0517532  66.6595404  12.7514233  78.5878002  68.0139871
  67.8125525  76.5171862  35.7304811  67.7796507  75.9481716  34.9614763
  67.9700947  77.3917532  35.3747416  83.0528062  58.4864028   2.2434555
  82.8509372  57.8489979   2.9284320  83.7838309  58.9937075   2.5962673
  57.3850775  65.7637072  68.2767582  57.9654455  65.3839540  67.6170683
  57.4312401  66.7071533  68.1218004  82.4091625  74.6105003   7.5315696
  82.8588486  73.9246082   8.0250973  81.4789295  74.4459581   7.6859504
  10.0576589  36.5320444  38.3319473   9.1386983  36.3358808  38.5143518
  10.1658532  37.4442172  38.6011410  67.5114202  40.1613712  39.8556542
  66.6911650  40.3382826  39.3950963  67.4279499  39.2557740  40.1542425
  46.7769766  57.4727440  26.9320393  47.0229959  58.3256960  26.5740108
  47.5135565  56.9008636  26.7160964  16.8246934  81.3476467  69.1349888
  17.7096650  81.1585617  68.8230562  16.4315889  80.4864788  69.2767048
  40.8192959  22.7076941  47.1905184  41.2386456  22.9123526  48.0262756
  40.0060311  22.2647791  47.4327278  65.0132799  64.2219353  23.0781388
  65.5848503  64.9474239  22.8267241  64.4420576  64.5896530  23.7524700
  84.7490501  50.5285645  24.4926691  85.4636383  51.0703754  24.1579533
  84.7951984  50.6317520  25.4431701  55.5272436  51.0544395  21.9166780
  55.7098484  51.9913960  21.8459392  56.3719273  50.6331396  21.7577958
  85.4043770  64.3826914  38.7843442  85.3967667  64.2363882  37.8384209
  85.7414246  63.5650206  39.1504669  67.9148644   1.7153482  35.3682756
  67.9964154   2.5784616  34.9625540  68.7909453   1.5244608  35.7033515
  86.9422245  52.2407532  51.7778206  87.4262333  51.6504908  52.3553658
  86.4369488  51.6590929  51.2098360  69.1536617  81.0928822  58.0577040
  68.5712051  80.3761292  58.3091784  70.0147152  80.8259296  58.3794928
  57.8298092  33.0643415  51.6051006  57.5241518  32.3491836  52.1630955
  57.1527004  33.1507373  50.9340620  66.9510841  69.4441366  33.0723166
  66.4769220  68.7386274  33.5123754  66.2733889  70.0779390  32.8372407
  22.2004738   1.1963873  42.0971489  21.4714089   1.4105539  42.6792336
  22.6999798   0.5328684  42.5730419  85.9359455  71.9092035  62.8746080
  86.6485500  71.3672066  63.2132483  86.3394737  72.7621174  62.7135706
  13.3874598  25.6672506  58.5172367  12.8170386  24.9297075  58.3007240
  14.1861620  25.5080156  58.0142975  14.4110486  68.0881262  49.1211748
  14.8146627  67.4777603  49.7382450  14.0713403  67.5310516  48.4208202
  18.7318745  11.1007719  28.3915305  19.6671763  11.0581427  28.1924510
  18.6230126  10.5317907  29.1535211  12.8317252   2.9284792  66.6751862
  13.1381836   3.8126211  66.4736366  12.3421612   3.0250864  67.4920273
  18.9631071  20.1854830  66.6099644  19.2833653  19.4741278  66.0553122
  19.7217503  20.4395990  67.1354342  18.5047529  66.2975454  22.6654315
  19.1662500  65.6122112  22.5707150  18.1303689  66.3917637  21.7895365
  26.0331247  74.0114355  32.8426147  25.1661203  73.9825869  33.2472229
  26.2201211  73.1014919  32.6118088  19.1120336  55.0098801  15.2596688
  18.5502527  54.4700813  14.7035623  19.9794862  54.9429703  14.8605740
  22.0390740   1.1815100  51.9279003  21.4013424   0.5257540  52.2098875
  21.5096751   1.8823462  51.5473843   0.5695858   6.3885336  15.9413159
   0.4768076   7.2904425  15.6344247  -0.2150211   6.2324839  16.4669323
  30.8277836   2.9048376  44.7101450  30.2623215   2.1334581  44.6719122
  31.4071980   2.8148012  43.9535713  63.2129145  51.4181423  45.0044727
  62.7815628  50.5886602  45.2097130  63.1740379  51.4785814  44.0499783
  50.4716053   9.7551088  38.0821157  50.5457344   9.1077261  37.3809505
  49.8600998   9.3636637  38.7058616  15.2717883  61.1471526  57.8076531
  14.5841796  61.6353004  58.2605698  15.1121671  61.3144652  56.8788041
  75.2996016  53.5972309  36.0897899  74.7691727  52.9995871  35.5628204
  74.9478626  53.5117006  36.9759011  81.2620926  79.7764444  12.4975860
  82.0351505  80.3311634  12.6020253  81.0967445  79.7710896  11.5547895
  41.7647019   2.2700911  40.6976557  42.2294369   2.3094301  39.8617697
  40.9194317   1.8753271  40.4833984  78.6978420  13.9552176   3.6585222
  78.6346134  13.3450473   2.9237257  79.3776496  13.5835755   4.2206321
  84.9868870  68.8267565  30.3649092  85.0165176  69.4304609  29.6226835
  85.7874870  68.3083630  30.2841091  56.6079410  50.4685176   5.0990472
  56.1450084  51.1840880   4.6632848  55.9700759  50.1119578   5.7172952
  70.8171129  58.2110405  27.9705095  70.3955889  58.3714294  28.8148022
  71.6318512  58.7118673  28.0105925   4.0143201  19.3104196  30.8682990
   4.5521448  18.5331178  31.0192442   3.3372400  19.2680180  31.5435719
  83.1597805  72.0815182  36.4840078  83.0000877  72.1990871  37.4204421
  82.7995968  72.8703403  36.0787272  78.2499266  50.4608059  43.0642033
  79.1240072  50.4810572  42.6745844  78.2206583  49.6330214  43.5439396
  50.5173445  67.3468876   3.5235929  51.2566710  67.9263020   3.3394489
  50.3631020  67.4465847   4.4630086  11.1380288  53.4489250  69.5227575
  11.0607049  52.5073767  69.3686962  11.3408086  53.8165188  68.6625338
   3.3243695  12.1348028  36.8001270   4.2769280  12.0496969  36.8404388
   3.0578795  12.2761946  37.7085423  17.8799341  61.2348843  57.4929905
  16.9342325  61.1323500  57.5996494  18.1718824  60.3992319  57.1287346
  16.1798993   7.3834829  22.7447629  15.5328789   6.7574339  22.4197125
  15.6589880   8.0868273  23.1323051  34.6576246  47.9075396   9.1689430
  35.2946742  47.1968711   9.0957199  34.9238809  48.3880485   9.9528061
  86.8591690  27.6568627  68.0870771  86.0986042  27.3131919  67.6184034
  87.5081348  26.9549704  68.0377913  82.9152291  14.3966894  35.2007437
  83.1748527  14.5416956  34.2909098  83.7045806  14.0592794  35.6241941
  80.0982761  68.7582874  41.6008139  79.9420643  69.7025871  41.5895367
  79.5001459  68.4086704  40.9403276   7.9680250  57.5064087  60.6008196
   7.3169134  57.5558090  59.9009275   7.7593419  56.6958904  61.0653067
  68.0543566  67.4584246  48.3435917  67.1310282  67.7074909  48.3844185
  68.0537653  66.5121269  48.4876442  80.5023193  59.7702456  64.5203257
  80.1834488  59.1189528  63.8955307  79.8584127  60.4772758  64.4788742
  85.1470566  54.5580482  70.4156494  85.5828190  55.4066610  70.4943800
  84.6734047  54.4545412  71.2409878  75.6130593   5.9176378  44.9826002
  75.6510299   6.4044600  45.8058834  76.3136762   5.2694731  45.0550890
  53.1766494  53.8833774  17.1078525  52.3350700  53.8737262  16.6519104
  53.7522205  54.3929255  16.5374981   6.8540421   6.5858870  62.8711367
   7.1486369   7.1198778  62.1333694   7.1554366   5.7017069  62.6622677
  23.5092488   5.0963812   8.9927536  22.6301709   4.9855165   9.3549263
  23.8919011   4.2194204   9.0200752  53.4624243  69.6858072  40.5102205
  53.1755304  70.5832005  40.3410816  53.0789661  69.4678593  41.3597393
  65.4105186  69.2329454  37.2696781  65.3446007  70.0099754  36.7145944
  66.3492537  69.1283894  37.4248505   6.0093155  36.3719778  34.8232532
   5.8620444  35.7053690  35.4941964   6.7820111  36.8493299  35.1254272
  14.9225519  78.0302811  36.9024467  14.2818067  78.4256172  37.4935317
  14.4008539  77.6950407  36.1732793  77.5323105  81.6608715  26.2830758
  77.0642328  82.4235916  26.6227865  77.7315140  81.8871784  25.3745961
  62.9159546  30.5522919  24.2332530  62.6746702  30.2524495  23.3568358
  63.7146854  31.0627699  24.1003013  33.1508675   4.4869928  66.8170214
  33.2225075   4.5202379  67.7709579  33.1566944   5.4044847  66.5442705
  34.0629670  69.3930054  24.9181151  33.1525800  69.4020557  25.2136564
  34.4659803  70.1397896  25.3609753   4.0273092  57.2988415  53.7829351
   3.1067846  57.4680805  53.5823727   4.4305608  58.1666088  53.8074303
  67.6618004  72.8082466  47.2372913  66.8979740  72.5635529  47.7597189
  67.4529600  73.6798954  46.9013739  30.9232560  18.7029295  24.8087931
  31.5650883  19.4066458  24.7136140  30.3658524  18.9836817  25.5345464
  28.5891190   2.1144514  29.0614986  28.5228863   2.0275335  30.0124407
  27.7726689   1.7411356  28.7294245  79.7880983  64.3637514  48.2496929
  79.4128704  63.9251709  47.4860954  80.3825188  63.7167120  48.6294699
  44.6465912  12.2302942   2.3467967  44.0345135  12.9493456   2.5035039
  44.0982380  11.5148859   2.0247136  26.3561192  14.0343695  15.8299184
  26.4495793  13.7414007  16.7363787  26.9908276  13.5096769  15.3419828
  79.6003669   2.8463774  43.5163927  80.0107615   2.4045114  44.2597342
  79.9795955   2.4223833  42.7465630  16.8352452  13.3103971  40.8607864
  15.8928767  13.2738333  41.0246134  16.9261875  13.0865984  39.9345684
  81.0017300  71.6635752  33.1145144  80.6222916  71.0730886  33.7653518
  81.4951992  71.0892916  32.5289202   8.3557453   0.4043894  41.0043097
   7.9658261   1.1122732  41.5172386   8.0461207   0.5568914  40.1115036
  69.4469588   3.2706766  15.0611997  69.0486663   2.4028425  14.9943876
  69.7614425   3.3210211  15.9638608   1.7325685  80.7058144  43.7429953
   1.3507268  81.5744781  43.6171389   2.4010370  80.6369686  43.0613470
  35.3753946  72.4034882   0.3106208  34.4687459  72.2937489   0.5972925
  35.3184984  72.9878807  -0.4453444  16.9838521  80.5411339  39.7937942
  17.0620153  79.8173761  39.1722679  17.7731702  81.0640049  39.6530533
   9.9147127  77.7688789  33.4445143   9.5160673  78.2900953  32.7476335
   9.3703554  77.9401636  34.2129993  14.7638414  44.1662645  61.0920906
  13.9043233  44.2383194  60.6770325  14.5717332  44.0591955  62.0236826
  71.7682648  80.8755589  58.5299015  71.8701315  80.4399776  57.6836586
  72.0047569  81.7873859  58.3599472  73.1609106  78.6492586  36.4990640
  72.6682472  77.8543711  36.2949443  72.6921844  79.0386295  37.2372508
  19.8797837  11.5091257  10.1262283  20.7777253  11.4888601  10.4571700
  19.7772398  10.6789713   9.6608728  23.8082692  27.0241141  39.7039866
  24.3069455  26.3847041  39.1953516  23.8008783  27.8107238  39.1586208
  71.8922424  33.4360242  59.7219515  71.1578608  33.8896203  59.3082333
  71.5682650  32.5490713  59.8787451  64.6442986  57.9716682  39.0366650
  64.7348166  58.9183950  38.9282846  64.3525696  57.6593494  38.1801701
  10.7459250  12.8398828  34.0206575  11.2054625  12.0037775  33.9432311
  11.3889542  13.4312849  34.4117951  63.0388451  65.5692959  35.9942603
  62.3593807  65.8896875  36.5874815  62.8606462  64.6326494  35.9095621
  18.7028733   2.1321707  35.7018757  18.0850926   2.6262217  36.2408471
  19.4991532   2.6633673  35.7023025  67.5687733   5.5528002  11.1025369
  66.9359532   5.2112608  11.7343009  68.3153286   4.9570303  11.1653650
  77.2547579  42.2850895  64.9440241  76.9476700  41.6270924  65.5676985
  76.9972134  41.9424772  64.0881491  69.5732832  77.6271391  44.0739489
  69.3129635  76.7108059  44.1677904  68.8283491  78.1236553  44.4127369
   4.4245234   1.2683229  42.7793741   3.6963883   1.8216066  43.0620909
   4.4293585   1.3477449  41.8254852  53.9688826  73.1147480  66.0863209
  54.4679356  72.3709822  65.7487011  53.1124687  72.7483416  66.3066387
  86.3971996  67.1682072  14.8584461  85.9606743  68.0075264  15.0041068
  86.1218929  66.9042301  13.9805198   1.2266960   3.2825308  48.6285496
   0.9756174   2.5632505  48.0490446   2.0502129   3.6072187  48.2643604
  68.9988041  49.4300747  61.1624956  69.5916653  48.9488268  61.7396832
  69.3669605  49.3100977  60.2871084  72.8931952  78.4766865  62.7161455
  73.2669258  78.9517260  63.4583712  72.9967022  77.5533104  62.9461241
  41.6266473  54.6954596   3.6411701  41.4525398  55.2349341   4.4124590
  42.4772676  54.9987185   3.3238254  10.4475108  34.2072706  41.6411591
   9.5892086  34.6075563  41.7801809  11.0523930  34.9476747  41.5947151
  45.6316217  25.1888526   1.9048916  46.4904006  24.8602069   1.6389547
  45.6335290  26.1079085   1.6373811  81.1626053  71.4229059  55.6870174
  81.9087124  70.8267927  55.6221294  81.5460587  72.2962189  55.6062984
  59.8332103  16.2496770   0.6846223  60.0407871  17.1835339   0.6520925
  60.6638416  15.8129800   0.4959951  50.1127529  58.1676912  26.6107702
  49.6382904  58.0159140  27.4281335  50.1449442  59.1205740  26.5259099
  77.1687555  61.0009861  43.7683821  76.9749165  61.2700129  44.6663141
  76.4118433  60.4767132  43.5067415  46.6968568  28.1184495   1.1753259
  47.6508268  28.1834329   1.2195430  46.3900503  28.5530055   1.9711052
  14.0523717  38.0619931  49.5166636  14.6523759  37.9038572  50.2455044
  14.1923139  38.9804268  49.2861700  80.8082669   7.7713709  21.1697364
  79.9227708   7.5027590  20.9248567  81.0852092   7.1223192  21.8164754
   3.2753465  47.7297354  27.8614616   3.1046865  47.8838110  26.9322872
   4.0993020  47.2427893  27.8761148  59.0424767  23.5109262  50.1636219
  58.5953465  24.2700415  50.5378628  58.6887589  23.4375696  49.2772102
  69.3952990  76.1152363  25.8347321  70.2530622  75.7926702  25.5582762
  69.5874691  76.7304897  26.5423799  25.5516091  19.3043642  18.3110046
  25.4668274  18.4653692  18.7639236  26.1845436  19.7961264  18.8342643
  87.3108292  54.9614382  37.3531199  86.5607071  55.5529022  37.4140644
  86.9320965  54.1195726  37.1000195  75.7404423  38.9348769  35.8408689
  76.2811995  39.4388366  35.2327228  75.8243704  39.3966246  36.6751218
  64.2176199  74.9573946  29.6375680  64.7107506  74.9615335  30.4579592
  63.3259535  75.1939678  29.8928952  85.3558540  74.5870924  55.6160831
  85.1170444  74.2502069  54.7525358  86.2951183  74.7607899  55.5540609
   3.6628816  46.3193178  23.2546139   3.6583993  45.3704023  23.3801985
   3.5405919  46.4368200  22.3125577   3.4997842  62.2348166  34.9563146
   4.4502160  62.1359777  35.0125051   3.3522413  62.6533985  34.1082287
  32.8897419   6.8018656  32.1554065  31.9589463   6.5863638  32.0970941
  32.9649010   7.3251657  32.9533696  13.9161911  20.4244642  68.9755297
  14.1182700  21.2713842  68.5778952  14.2691365  20.4862909  69.8631334
   6.0011194  81.4525318  31.8020821   5.9066388  81.1746216  32.7131629
   5.2757547  82.0609093  31.6608000  61.8685475   3.0110674  48.8997126
  62.1233406   3.2922010  48.0209160  62.3209229   2.1768599  49.0248871
  54.4481891  15.1063757  29.8448539  53.9247125  14.4566278  30.3139257
  55.3215402  15.0334959  30.2297950  12.3806610   6.5994673  35.9856939
  13.2462969   6.3277369  35.6806207  12.5563755   7.3085432  36.6042137
  46.3993206   7.3858767  50.7198763  45.9859600   7.1579390  51.5525866
  45.6672612   7.5755529  50.1330757  33.3563843  30.3979807  30.4496408
  33.2612648  29.8772554  31.2471533  34.1634121  30.0759153  30.0481343
  44.1748181  22.9972105  49.7412920  44.7947731  23.6887960  49.9727726
  43.3198014  23.3494215  49.9885035  28.6636391  26.9869738  20.6590080
  28.1198826  27.3234873  19.9467456  28.7459317  27.7227716  21.2656903
   8.4125796   7.1154242  69.0293169   7.8813591   6.7026834  69.7102594
   7.8071156   7.2461920  68.2995558  10.5744836  74.6751499  42.3905945
  10.9668443  74.7383165  41.5197945  10.7750032  73.7849379  42.6796484
  61.8993092  62.1856737  49.7787857  62.2226667  61.6152954  50.4761648
  62.6533651  62.7256680  49.5420599  56.0475159  51.8620348  57.9197454
  55.9027958  51.3560581  57.1201944  56.0682201  51.2069035  58.6173153
  11.5418908  64.5126390  24.4288731  11.9015500  63.7454748  23.9835262
  11.1292074  64.1602612  25.2173877  72.9422951  63.4256792  45.7379675
  73.7107229  63.7940931  45.3020525  72.6617718  64.1089249  46.3468313
  31.9491943  10.8492434   6.7304502  32.1881946  11.2095893   5.8764825
  32.7796682  10.5624831   7.1103416  26.9675866  20.4658537   4.5830926
  26.2903920  19.9541693   4.1405913  27.7865258  20.0238352   4.3590316
  55.3686285  79.3743515  30.2619720  56.1187983  79.7092628  30.7532072
  55.5748701  79.5688438  29.3477130  71.1094332  44.6943998  16.0769987
  71.3406897  44.5993853  17.0009708  71.5107632  43.9372253  15.6505632
  15.2325628  81.8092728  55.3585672  15.2839372  82.4679375  56.0512114
  15.3953550  80.9785843  55.8054352  76.1484385  70.9145403   5.9936005
  75.9756279  71.8533230   6.0647041  76.9430304  70.8567810   5.4630178
   7.9584303   9.5343046  23.8948965   7.1159544   9.0875845  23.8117528
   7.7326289  10.4627352  23.9519548  25.3502121  10.9776716  55.0388956
  24.5107785  11.1631708  54.6179867  25.6738415  11.8348532  55.3159189
  82.3327392   5.1068144  39.2696381  82.7942031   5.0424223  40.1057816
  82.4241155   6.0251932  39.0157437   5.2116242   6.1823397  21.4805365
   5.6645336   6.4283495  20.6739473   4.3032637   6.0436659  21.2124205
  12.6992503  23.7727671  21.3980770  12.8820076  22.9007082  21.0483003
  13.1444111  23.7891321  22.2453070  75.1988125  59.0903521  45.8717918
  76.1383915  59.2727900  45.8599806  74.8011065  59.9022770  46.1861753
  54.1742214  48.7508834   3.2704197  53.3254798  48.6764300   2.8341661
  54.3161567  47.8911269   3.6665283   3.6345289  67.4126339  66.5088224
   4.2772767  66.7269802  66.6904306   2.7906129  66.9614172  66.5296698
  11.2044993  20.9316568  30.2500081  10.9434882  20.0239782  30.0943685
  10.4433718  21.4484243  29.9856925  56.3702679  50.1674891  60.5105019
  55.6199598  49.7970676  60.9753227  57.1005344  49.5916939  60.7372093
  69.7677660  52.2068310  30.6544447  69.4199181  51.3150740  30.6524897
  69.4924974  52.5731325  29.8140383   7.1161458  44.4845867  43.2953024
   6.4711091  44.8524141  43.8993454   7.9464624  44.8789358  43.5622883
  10.6564322  34.7500639  59.9815893  11.3501778  34.8217707  60.6371832
  10.6629267  33.8276701  59.7259045  46.0314217   8.9893465  11.3751233
  46.9533577   9.0765886  11.6173136  45.7827416   9.8589735  11.0618699
  54.8162413  74.7295713  23.2491446  54.3141556  74.9431467  24.0356088
  55.7090139  74.5908117  23.5652733  38.3527699  10.6569605  19.9972165
  39.0040150  10.2611952  19.4180143  37.5151959  10.3140478  19.6855843
   1.1681936  70.7079935  63.8056564   1.8562410  70.1822996  64.2136621
   0.3981397  70.1394606  63.8098288  78.5626316  78.4941626  38.5876775
  79.4124174  78.6028957  38.1607485  77.9267836  78.5563946  37.8748941
  34.7444042  41.1956370   2.7463947  33.8004096  41.2056506   2.9045091
  35.1052984  40.7013667   3.4823833   7.5857637  74.4284105  51.4880943
   7.6782796  75.2310276  52.0013952   6.8006608  74.5713186  50.9594965
  34.4829461  68.5412359  43.7963533  33.7723539  68.0682755  43.3632278
  34.6280763  68.0612564  44.6117020  73.6302519  72.1369123  48.1876373
  73.2196522  72.5918007  47.4523020  73.3344793  71.2304211  48.1038046
  47.3329053  67.6045163  27.9891419  47.0683167  67.9966517  28.8212800
  47.5700900  68.3500977  27.4377036   7.2178711  32.2096115  56.4236559
   7.6835503  31.3735020  56.4065112   7.9037727  32.8680938  56.3133325
  74.9509105  79.4461779  58.5334349  75.1924178  78.5824553  58.8679314
  74.3761644  79.8114176  59.2061138   0.4267259   2.1530795  16.5785885
  -0.2196118   2.6712173  16.0989916   0.5940036   1.3976522  16.0150456
  69.4617364  57.1694798  17.2875726  69.8863182  57.7273817  17.9392684
  69.5206937  56.2867637  17.6530445  10.9019429  65.9009035  20.8753705
  10.2159340  66.0498292  20.2246428  11.6924436  65.7449503  20.3586316
   7.3008746  12.2515905   8.6902261   6.8323153  11.9090319   7.9290837
   6.7954826  13.0194879   8.9569533  25.8365352  73.1520416  52.6131630
  25.8575875  73.2173164  51.6584206  26.6587169  73.5504694  52.8986597
  86.0712394  80.2016076  40.5144787  86.0567150  79.9242429  41.4304972
  86.2781677  81.1354879  40.5502558  78.8634309  58.4431644  36.9124770
  78.9080438  58.8357658  37.7843165  78.5896954  57.5396366  37.0703936
   2.3556668  72.7658166  58.0209398   2.8674371  72.6146777  57.2262812
   3.0018384  72.7579601  58.7270784  17.1673209  75.4503388  32.0068860
  16.2933690  75.0600321  32.0172191  17.2256667  75.9289647  32.8337741
  76.6211292  68.4718306   2.1673505  76.8120119  69.3501968   1.8383090
  75.8683393  68.5913188   2.7463695  32.2819764  81.5640572  28.2112551
  32.2512490  81.4769099  27.2585249  31.5373857  81.0496147  28.5229635
   6.7199761  48.4749002  42.9832888   7.6674754  48.3490176  42.9320049
   6.4913065  48.9096613  42.1617508  68.9802930  67.0496101  51.6940737
  69.8970613  66.7775447  51.7358685  69.0172860  67.9987068  51.5754223
  52.3184729  23.9298081  21.7949462  52.4078894  23.2960033  22.5066543
  52.0897770  23.4009576  21.0305858   7.5999314  71.3997359  43.6187983
   8.1688911  71.6179402  44.3569756   7.2584207  72.2432805  43.3220911
  45.2726657  57.5601954  31.7462277  44.5283515  57.2234697  31.2473893
  45.1381499  57.2251124  32.6327133   5.8391108  22.7351355  61.1736776
   5.1901068  23.4366595  61.2274625   6.5345682  23.0939805  60.6224992
  74.2309007  70.7860549  17.0154393  73.5491833  70.1820202  16.7210984
  75.0432608  70.4183347  16.6674662   9.1654999  75.8667393  65.8657503
   8.9424068  76.6611547  65.3806067  10.0816805  75.9877462  66.1151552
  86.1339316  65.4065807  35.0210690  86.1091241  64.5434613  34.6079826
  85.4435763  65.9026177  34.5810795  32.7207191  67.4125965  15.9118867
  33.4082229  67.8721554  16.3939345  31.9728572  68.0096359  15.9337211
  14.6811921  61.9675012  41.1427069  14.7894294  61.9325156  40.1922894
  13.7414748  62.0955462  41.2721920  17.1398652  15.5911207  22.0082808
  16.6439819  15.3900445  21.2146187  17.3223901  14.7368181  22.3995423
  83.3483801  51.0083289  55.1821232  83.1649503  50.0767942  55.0603437
  82.6892624  51.3020082  55.8110476  49.1026361  65.2255936  27.7673769
  48.4233720  65.8477409  28.0276990  49.7974736  65.7703860  27.3977351
  15.3815722  40.2087641  39.6678519  15.2669096  41.0416698  40.1253986
  16.2861359  39.9563360  39.8529887  57.4815893  14.4427502  49.2927504
  57.7582836  14.0896571  48.4471750  57.5799322  13.7108088  49.9017000
  83.8972012  30.7242596  68.1975578  84.6775643  30.7763207  67.6456948
  83.5614697  31.6202950  68.2227741  18.9030654  59.0365238  56.2017584
  18.3661706  58.2440825  56.2057352  19.6795423  58.7972183  55.6957483
  40.7002306   9.7782385  28.3284140  40.7920170  10.1909339  29.1871858
  41.0081768  10.4408741  27.7100992  14.4654214  36.2804055  33.7866473
  14.1148210  37.1658874  33.6905622  13.9627898  35.9006858  34.5073485
  38.0813146  19.3760753  49.8974848  38.1678295  18.5122633  49.4942760
  37.1417594  19.4757783  50.0508785  50.1286983   1.0826539  36.2805247
  49.3050194   0.6226616  36.4423609  50.1705456   1.7478383  36.9675565
  82.8726927  47.0973175  42.6056685  83.3135716  47.6753711  41.9830050
  82.7484910  47.6366716  43.3866324  40.4179994  40.0664657  62.1898206
  40.5284111  39.9835932  61.2426283  40.2770583  41.0022577  62.3335590
  30.8451495  71.0101826  38.7881351  31.7588219  70.7365592  38.8691354
  30.6549964  71.4572461  39.6128845  21.0897357  67.7635295   3.8135874
  20.3006751  67.2880991   4.0735540  21.3595588  67.3496420   2.9937559
  47.7384281  26.9982767  19.6669626  48.6672735  27.0672393  19.8877013
  47.3945951  26.3471866  20.2785921  42.9524899  11.4589214  16.6899288
  42.9468775  12.3361588  16.3069737  42.6744986  10.8843887  15.9765804
  85.7973227  66.3705761  12.4782145  86.5898189  66.5198178  11.9625497
  85.7512579  65.4195793  12.5767803  45.5899906   3.6595517  54.9697733
  45.0070524   4.4164973  55.0284719  45.2494192   3.0440503  55.6189251
  15.6082118  12.6907277  18.3144629  16.3206065  12.1674216  17.9472077
  15.7546616  13.5710752  17.9683805  28.8854790   0.9743907  62.3314619
  29.2972970   0.1190666  62.4541759  28.1040215   0.9453744  62.8834724
  29.9666459  77.9687865  36.7786765  29.7659118  78.7191845  36.2193537
  30.8338315  77.6819025  36.4924622  32.9271132  77.3756413  47.3435020
  32.3215348  78.1012018  47.1916056  33.1610209  77.4486066  48.2688093
  82.3381838  67.8280981  43.0960941  81.6737280  67.1633728  42.9147863
  81.9965515  68.6250658  42.6906776  38.5061080  69.6026869  46.5217304
  38.1173141  68.7881262  46.8404198  39.0713317  69.8942359  47.2371006
  79.6994781   7.2473365   8.5781538  79.2911959   7.6724035   7.8239298
  78.9800024   7.1105182   9.1944879  83.5650692  45.6090565  45.4700136
  83.6014685  45.6913323  44.5170498  84.4318328  45.2857108  45.7157803
  84.9020753  70.9291275  28.2609177  84.2013249  70.3562672  27.9494500
  84.6125278  71.8108935  28.0266476  23.7453508  36.3104391  58.4801483
  23.9639521  36.4824748  59.3960333  23.6038327  35.3645563  58.4412766
  45.4494858  17.8153265  18.9734268  45.5730820  16.8699765  19.0586865
  44.5924139  17.9082727  18.5574639  58.4803716  61.2939369  69.8597709
  58.6481420  62.2156822  69.6636229  58.4057562  61.2617528  70.8135154
  84.5309934  75.5101885  18.4193146  84.8035416  74.9600090  17.6849771
  83.8261637  75.0171728  18.8392961  17.5910670  66.2930281   9.5230454
  17.4443204  67.1216257   9.9792516  17.7806670  65.6657679  10.2207756
  31.3037705  16.3515282  23.6139035  31.0906124  17.1552253  24.0881038
  32.0374870  16.5941346  23.0490708  36.4117002   1.1766246  19.1126275
  36.9508123   1.2589769  18.3259845  36.3667655   0.2343030  19.2746258
  42.5569344   9.7406977  10.4524136  42.6536131  10.6914747  10.5063391
  42.7038431   9.4338834  11.3471293  65.1237351  70.9859390  32.0054984
  64.6760709  70.4988093  31.3137388  64.9590642  71.9053156  31.7960691
  29.2545141  65.2455937  52.3321869  29.3894686  66.1183679  51.9630172
  29.1144670  64.6825444  51.5708758  11.8404395  49.2007585  44.9342394
  12.6856858  49.3424578  44.5079565  12.0216376  48.5541983  45.6164122
  58.5236699  81.9266124  23.8707542  58.2455499  81.0205227  24.0044737
  59.3976361  81.9686501  24.2588806  45.2593899   1.7562556  52.7822208
  45.3875732   1.1758572  53.5325146  45.5448771   2.6155525  53.0926037
  37.1828658  80.9016005  14.8688710  37.5512273  80.0689570  15.1642466
  36.6550738  81.2054167  15.6073558  76.4377228  24.6091806  68.4643106
  76.6667477  24.9018883  67.5822111  77.1493880  24.0194630  68.7133050
  85.3814220   5.3344280  46.4990568  84.9318600   5.4864943  47.3303270
  86.2836456   5.6102329  46.6607428  71.5649843  14.4479764  18.2992435
  70.6974125  14.5352960  18.6941195  71.5071630  14.9431503  17.4821198
  21.7485023  16.9250011  17.4088347  22.0739603  17.4883878  18.1109035
  22.5369763  16.6312838  16.9524670  73.8707850  69.4581575  53.1562614
  73.6990676  69.8224266  54.0246248  74.7318802  69.0475686  53.2347679
  79.1600752  10.1094723  23.2480478  79.0625525  10.4072380  24.1525126
  80.0257587   9.7018445  23.2221103  26.8804652  26.1140080  42.1046925
  27.5205047  26.8240900  42.1533108  27.2908265  25.3889866  42.5760508
  57.7614832  17.9039526  28.7604928  58.6722374  17.9766047  28.4750557
  57.6462317  18.6249411  29.3794632  40.1023769   2.7789837  56.3993359
  39.4261837   3.4551874  56.3575602  39.9786067   2.3690695  57.2554255
  85.8990097  25.7836413  42.1854877  85.4177952  25.2939034  41.5185404
  85.6562233  25.3653884  43.0115366  37.1009786  69.5934398  43.8425446
  37.4265725  69.5482869  44.7415352  36.2117202  69.2427166  43.8919783
  68.3924198   1.5263140  26.2870121  69.1761398   0.9899105  26.1674809
  67.7211952   0.9084529  26.5767217  44.3896866  17.3568082  41.1829996
  44.9248505  17.3112011  40.3906918  44.5659876  18.2267034  41.5413713
  85.6716728  35.0755024  66.4994335  84.8551655  35.0491929  66.0005760
  86.0289955  34.1909862  66.4208078  58.4076023  24.6932054  32.7159333
  57.9036856  25.4946423  32.8573442  59.1416359  24.9658227  32.1653843
   6.6272003  48.9271612  18.9762247   7.3461873  48.4491916  18.5629034
   6.8397147  48.9194436  19.9095047  44.9483878  65.9200258  38.1528878
  45.1918513  65.0412984  38.4440875  44.9977309  66.4567370  38.9439249
  69.2415135  53.0558320  15.0735126  69.2579978  52.3804267  14.3954406
  68.6592620  53.7309356  14.7250209  45.2671909  10.2010202   8.0813354
  45.7597971  10.4123485   7.2882962  45.1984692  11.0331011   8.5494721
  35.4859550  62.9559739  55.7013702  35.0014169  62.1327682  55.7629204
  35.9433705  63.0278702  56.5391254  51.6040802  29.4949579  11.8430507
  51.3570929  28.9486122  12.5891984  52.0602465  28.8981438  11.2497914
  41.6388178  19.7676992  30.0236440  42.0850468  19.2007625  30.6526852
  41.9197702  20.6524158  30.2572489  34.6558452  -0.0430866  52.7444983
  34.0575528   0.5308755  53.2228756  34.9671745   0.4910602  52.0137501
  79.2642927   2.1804425  32.0398092  79.9995136   2.7864191  32.1318603
  79.6153164   1.3341303  32.3168850  47.5174856   4.1425845  32.8325939
  47.6893806   3.9763057  33.7594366  47.8392506   5.0319391  32.6851177
  68.3881538  42.2090486   9.7845874  67.7188128  42.6050358  10.3426300
  68.6355823  41.4049450  10.2411304  32.7715642  77.5302626  17.7883565
  33.5253484  77.1416799  17.3444581  32.2331149  77.8842927  17.0805693
  56.5368986  32.1499372  54.1285515  57.0549965  31.8565273  54.8780298
  56.2383699  33.0261874  54.3720627  48.7293584  60.4219217  63.4521341
  48.8954408  59.4825120  63.3736658  49.4586188  60.8336229  62.9885435
  29.5126367  20.0119948   8.5446739  29.2441750  20.5228257   7.7809894
  28.7082720  19.8968220   9.0506005  53.8604259  10.4236746  20.7007194
  54.3970442   9.6319342  20.6630373  53.6854506  10.5502653  21.6332388
  84.5951843  15.4652166  13.2327414  84.9095440  14.9214935  12.5104022
  83.7378693  15.7767105  12.9425550  -0.0240901  42.9839039  51.3526487
  -0.2084639  42.3129320  52.0099401   0.7864282  42.6932716  50.9345293
  78.7985373  29.9016380   2.5252107  79.3362284  30.6915140   2.5819299
  78.0896378  30.1369429   1.9266102  30.5370092  18.9233828   1.1373439
  30.8150959  19.1512251   0.2502206  31.3423538  18.9465475   1.6541757
  46.1096055  75.5158283  36.5154099  46.8786771  75.5215676  37.0852590
  45.5366427  74.8485131  36.8930864  16.0831267  72.5847698  43.8302374
  15.9340627  71.8093307  44.3712616  16.1578090  72.2441281  42.9388237
  71.3085222  11.6367960  33.9413881  71.5767336  10.7192612  33.9906216
  71.4713907  11.8854511  33.0315137   7.0520432  52.1842785  40.3431749
   7.0014865  52.4746962  39.4324970   7.8720624  52.5561566  40.6679916
  41.0503871  64.1996546   2.0609723  40.7162435  65.0891705   2.1764854
  41.0443885  63.8252671   2.9418978  82.4231720  16.5359771  29.6971464
  81.9199944  17.3284960  29.5101857  83.1356239  16.8326283  30.2634001
  15.3513820  55.8306022  46.2933207  15.4030568  55.8892865  45.3393173
  14.7130210  56.4997597  46.5402174  49.6581275  75.8860911  14.3785441
  49.4220073  75.8713551  15.3060472  48.8648564  75.6012101  13.9248919
  36.8594098   8.2024169  58.9565468  36.9040942   7.2716534  59.1754436
  37.6817322   8.5655504  59.2854071  59.6509314   1.5706274  47.4515247
  59.0837049   1.0716555  46.8637180  60.2074242   0.9105530  47.8648663
  68.1919107  10.6139104  68.7723399  69.0376410  11.0407750  68.9093030
  67.9659453  10.8158509  67.8643801   8.9171965  46.9693990  46.6698217
   9.3303878  47.8293557  46.5925026   8.0735309  47.1456118  47.0862532
  80.7129860   3.2543594  25.5368304  80.3742409   2.3722914  25.3837180
  80.7442379   3.3368191  26.4899588  52.5740869   0.5467431  63.6878373
  52.1400983   1.2924258  64.1023781  51.9564206   0.2518003  63.0187072
  83.6367989  12.9801798  28.3593702  82.7487659  13.2313943  28.6133814
  83.8949299  13.6354864  27.7111650  51.3629818  15.4760706  43.0804586
  50.5010986  15.6645048  42.7091455  51.9720554  15.6168687  42.3555851
   4.8184774  10.8067703  59.8418283   4.3839166  11.4807034  60.3645182
   4.1030118  10.3409648  59.4089699  12.8354514  18.6515594  23.9728475
  13.1038463  17.8027678  23.6210680  13.0367994  18.5981297  24.9071050
   1.4240200  46.2521882  25.3184557   2.2114021  45.9768887  24.8489141
   1.4936382  45.8265896  26.1730027  24.2374188  65.8417423   4.5682794
  23.9737231  64.9572153   4.3146878  24.4327838  66.2801273   3.7400991
  30.4105139  23.5386515   8.3451790  29.5159769  23.8448739   8.4943873
  30.8747101  24.3074107   8.0138785  62.1422720  23.8588667   4.4584540
  61.2462330  23.6742115   4.1769356  62.0534229  24.1460896   5.3672117
  10.5534489  71.2929530  33.0835104  11.4721257  71.4235528  33.3184743
  10.5838425  70.8266313  32.2481370  77.8194141  21.4174819  51.9435358
  76.9396305  21.3926148  51.5672541  78.0188799  20.5036354  52.1468401
  48.2667589   3.9822009  14.3638039  47.9269266   4.1420522  13.4833527
  49.0481710   4.5319185  14.4223917  69.7324991  34.0703535  62.2879791
  69.9292707  34.9278831  61.9109392  68.9190435  34.2035985  62.7745628
  21.1247737  80.2628620  35.4010820  21.6581304  80.1047152  34.6221399
  21.7558248  80.5083310  36.0776591  57.3103673  60.5539079   2.5181964
  57.6918275  61.0426350   3.2474840  56.8286759  61.2108369   2.0155509
  24.9709517  72.4649317  25.6674433  24.5044190  72.6798744  26.4751434
  24.7281796  73.1618924  25.0579023  37.2202849  24.3193460  30.7193494
  37.2472548  23.6502218  30.0354052  38.1272388  24.3955588  31.0157561
  81.4324992  50.6254466  22.9091488  81.1804002  50.5876394  23.8317810
  80.7133620  50.1952477  22.4465404  45.0605583   4.0014577  12.5790691
  44.9431133   3.8043255  13.5083580  44.2340422   3.7408638  12.1726274
  69.8527431   0.6990113  36.9778800  70.4315519  -0.0209914  37.2284889
  69.8386908   1.2727696  37.7439308  40.4925721  44.4070460   9.1149841
  39.9119585  43.6752124   9.3236480  40.6628733  44.8257740   9.9587284
   5.2540071  67.9994721  59.3228960   5.6175310  67.5092454  60.0602961
   4.5481379  67.4445982  58.9910936  63.2352591  25.7775736   2.1795817
  64.1081715  25.4898691   2.4469367  62.6402664  25.3240848   2.7767107
   2.5628675  79.3320214  70.1193283   2.0643534  78.6452233  70.5620735
   2.5645889  80.0629818  70.7373296  70.5024013  79.4167639  54.4342947
  70.1949129  80.1092571  53.8493729  70.7114348  78.6865188  53.8518190
  76.1279360  49.9834042  70.5494502  76.3958804  50.6699329  69.9386183
  76.7335717  50.0682646  71.2858177  61.5482426   5.0316083  16.9731724
  61.5999937   5.7375157  16.3287747  62.4553823   4.8850080  17.2412038
  64.7286892   9.2696136  41.0469007  64.8647165   9.2879975  40.0995922
  63.7968016   9.4574988  41.1587477  39.2210347  73.8553543  18.5980797
  39.9675996  74.3205054  18.2205760  39.5741469  73.4298546  19.3794215
  82.3457203  81.5232968  19.5144546  82.4405656  81.3763880  18.5733628
  81.6651234  82.1926594  19.5849836  66.2764160  30.8582341  43.0338015
  66.8050186  31.1027222  42.2741713  66.5338914  29.9562466  43.2244720
  53.4903145   5.3593779  49.5940018  52.6523733   4.8969275  49.6088743
  53.3299732   6.1616439  50.0908804  15.3579337  50.1317019  27.4660802
  15.6133897  49.2626472  27.7754617  15.2636868  50.0306125  26.5189099
  47.3276091   6.9378823  54.9405146  46.4374733   6.6463095  54.7433472
  47.7386522   6.1836642  55.3629255  77.7408028  43.2436132  29.6008182
  78.1580830  44.0464115  29.9132562  78.4666443  42.6359034  29.4591165
  64.5243835   1.8361369  34.1342521  63.8892794   2.2942138  34.6847415
  65.3162289   2.3714398  34.1859031  66.8132353  14.6723485  26.5837908
  67.3769808  14.9125493  25.8484459  66.1558676  14.0909016  26.2016702
  78.2823324   4.9299666  36.7182970  79.2313719   4.9589175  36.8396020
  78.1336689   4.1551119  36.1763263  54.5011425  10.3862107  29.7992563
  54.4429874  11.0189724  29.0833902  53.5917473  10.2242851  30.0502658
  48.3583117   8.4434706  41.8378639  47.9319096   9.2863989  41.9924116
  47.9683208   7.8555936  42.4848080  26.9072158  56.9141026   3.7779695
  26.4000995  56.9597931   2.9674265  27.2939927  56.0385675   3.7694752
  26.8175942  72.0302589  29.6413779  27.7002532  71.8121810  29.3420672
  26.6632850  72.9142405  29.3082142   9.4357688  65.6881161  15.7953215
   8.8458950  66.4360590  15.8894515  10.0496394  65.7739325  16.5247262
  44.2008734  14.1371882   9.8648298  44.9657059  14.7068977   9.9466515
  44.0388966  14.0875280   8.9227426  70.9192181   7.5615466  37.6742268
  70.4758406   8.2800525  38.1252193  71.2231684   6.9883072  38.3779621
  49.3317270  13.3392811  31.1327219  49.7930479  12.6787734  30.6158614
  49.0405655  12.8708422  31.9150400  20.5104136  37.9875159  33.1933880
  19.8547041  37.3980570  32.8208089  20.4474616  37.8491426  34.1384387
  48.8256645  12.5776851  21.6760516  48.0325556  13.0625808  21.9042850
  48.5429239  11.6643870  21.6293883  12.7083719  10.0788081   5.3123146
  13.5926998  10.2766597   5.0040138  12.1460688  10.2596533   4.5590925
  20.9664590  77.4140028  26.6013885  20.9038169  78.0409009  27.3220181
  20.2801473  77.6820852  25.9903765  50.4150343   9.7562778  62.0123863
  51.2333393   9.4001901  61.6662550  50.5639696   9.8257542  62.9553747
  12.3342035  41.7682028  42.2124195  11.6936776  42.2495079  42.7361679
  12.9994008  42.4194670  41.9897032   8.4327704  78.8415618  35.3031015
   8.3216149  79.6782903  35.7544994   8.6248261  78.2161392  36.0018086
  24.7690770   2.9852679  21.2422848  24.3719098   3.2655537  22.0668650
  24.0437791   2.9770619  20.6176972   0.8620800  35.5593121  68.2677059
   0.8796181  36.4706966  68.5597708  -0.0360428  35.4215121  67.9666807
  80.4387188   2.7421707  28.8090253  80.3529453   2.8805017  29.7522855
  81.3309669   3.0230087  28.6059189  53.6561108   6.2967801  44.4377947
  53.9579725   5.8416134  45.2238798  53.6261272   7.2191870  44.6917582
  26.8223453  26.0718489   2.4683078  26.6585827  26.4564061   1.6071865
  26.2226868  26.5332294   3.0546248  36.4285959  45.1185578  68.9028645
  35.8639158  45.5534717  69.5417866  37.3124708  45.4096341  69.1270718
   0.6446750  64.7751279  30.9462881   0.0828273  65.5451412  31.0336828
   0.0353701  64.0457053  30.8326292  34.8340893   0.8905365  48.5437441
  34.2354345   1.3232215  47.9349518  34.5873070  -0.0335430  48.5062361
  72.7509467  55.6998944  59.8985876  72.2649876  55.7747972  59.0773298
  72.1077077  55.3753268  60.5287673  62.6649618   5.6489754  40.2216434
  62.8186035   6.4505053  40.7218218  62.7783632   5.9112859  39.3080997
  61.4467859  44.3892527  47.9472113  61.9731140  44.5899391  48.7211180
  60.9240723  45.1778603  47.8019667  60.4730082   9.6462345  24.3286133
  59.8450613   9.1376597  24.8417044  61.2800312   9.6191567  24.8426270
  11.2832744  49.8193855  41.7363310  12.2285373  49.7099037  41.8398762
  11.1731011  50.7410212  41.5024853   6.6309357   6.0648859   2.6883742
   5.8959460   6.1316949   3.2979304   6.2389308   6.1967582   1.8251395
   2.7340378  37.7572602  66.0785179   3.1416000  38.5899795  65.8403893
   2.2905745  37.9361134  66.9077252  76.6149888  58.6382527  39.5271611
  77.5602231  58.7715454  39.5978498  76.4280185  57.9222031  40.1342440
  86.5722672  30.5316126  67.8217997  87.2319237  31.2230008  67.7664577
  87.0726697  29.7376489  68.0100812  38.4328563  71.4390428  52.8077793
  38.4448630  72.3789592  52.6271009  38.2328135  71.3772316  53.7418032
  28.5094735   6.4639682  47.9202890  27.7282903   6.9201106  48.2332134
  28.5201642   5.6425828  48.4116554  25.4342324  79.1150133   4.7698554
  24.4927556  78.9685879   4.8615736  25.5997521  79.0284507   3.8310570
  16.0406555  31.4764636  56.3085605  15.1475634  31.4262831  56.6492893
  16.4258207  30.6260728  56.5200271  75.5930981   7.6930730  70.0559978
  76.4700338   7.3848073  69.8275543  75.0287995   7.3420016  69.3671255
  47.2833490  52.4162292  15.8524179  47.8924608  53.1473064  15.9560466
  47.1943331  52.0519638  16.7331123  44.3579245  17.6607740  38.1172013
  43.8475180  16.8543792  38.0434251  43.7152529  18.3617878  38.0086374
  84.5217493  30.7359028  41.6716433  85.2166572  31.2205982  41.2262201
  84.6495866  29.8277378  41.3975573  11.5009791  30.0373955  33.9830756
  11.1319167  30.9056540  33.8213396  11.6188724  30.0002737  34.9322629
  39.1455054   7.5396627  24.5182180  38.8532567   7.0244020  23.7663341
  39.6652389   6.9282991  25.0400805  69.3080950  22.2638011  43.7726927
  70.0336218  22.8544641  43.5702944  69.1760302  22.3610258  44.7157383
  47.8950214  12.7819467  18.1773055  48.6361456  12.1933687  18.0339766
  48.2850742  13.5710311  18.5533845  38.5803602  33.9574331  68.9563221
  39.5114295  33.9169269  68.7379161  38.2138608  33.1511962  68.5931523
  24.9929786  13.0178022   5.3149301  25.3018641  12.8771281   4.4199264
  25.6463313  12.5850904   5.8645862  42.4534559  12.3779988   5.8652204
  41.6218042  12.8518498   5.8721519  42.4124050  11.8336225   5.0789630
  86.4871788  11.5306604  26.4367628  87.2208118  12.0925307  26.1871338
  86.6012192  11.3914001  27.3768854  55.4942274   1.5483409  56.7504120
  54.8799515   1.8402620  56.0768557  55.0520229   1.7404304  57.5773239
  17.3551583   3.9596784   0.5053229  18.1187594   3.4184745   0.7059324
  16.6165721   3.4803832   0.8808193  20.9059484  46.8663020   5.8548635
  20.8218438  47.7512331   5.4998255  20.0086171  46.6047926   6.0613596
  28.1491668  73.4149791  47.6662397  27.7791697  72.7969344  48.2965994
  27.3966033  73.7188334  47.1587372  27.9790378  23.5910797  17.9299664
  28.8319516  24.0123320  18.0363441  27.3887539  24.1021729  18.4836626
  29.5149994  21.8658829  47.3204136  28.8429546  22.5465012  47.2837114
  30.0776577  22.0439720  46.5668011  22.4750096  50.9063382  52.1753502
  23.2096345  51.1320753  52.7459574  22.0600659  50.1577516  52.6039219
  77.7004704  78.5979886  -0.0197536  76.7758855  78.4505786  -0.2188637
  77.7306113  79.4871329   0.3334402  54.8856497   8.9852905  43.2085228
  54.9315500   9.7507304  42.6356125  54.1275930   9.1507775  43.7690592
  47.9104185   2.3535551  41.4799929  47.2258997   1.9062184  41.9775486
  47.4345112   2.8781894  40.8361721  75.6493855  20.1472473   0.8538758
  76.0296965  20.6778097   1.5539458  74.7292519  20.4097080   0.8273421
  75.2131987  23.9374375  52.7554607  75.8358765  23.6121821  52.1052980
  74.5265675  24.3596745  52.2392416  38.7690544  32.5928617  53.4954929
  38.1458616  33.2878041  53.2835531  38.2344794  31.8008757  53.5522079
  44.2247391   5.9268641  61.5222073  44.7387171   6.6272211  61.9241524
  43.5308599   5.7449991  62.1559906  21.7982960  38.0290222  27.8170371
  22.4946642  38.5450315  28.2232833  22.2436762  37.5123215  27.1455526
  16.3853657   2.7503181  54.8591328  15.9305680   1.9082049  54.8437643
  15.7329762   3.3688989  55.1877356  53.9354658   7.4666554  39.1591072
  53.8214493   6.6951394  38.6041355  53.8018370   7.1427953  40.0498867
   7.9150993  76.9213821  52.4409485   8.6632068  77.3957203  52.0782232
   8.1815154  76.7002906  53.3333445  86.7930374  66.8364460  27.9716015
  86.7506418  65.9100444  27.7345014  87.0445428  66.8360360  28.8951683
  48.3453576  36.5508502  64.2261447  48.8100771  37.3851242  64.1609134
  47.6425306  36.6170019  63.5797014  78.4367571  79.7920498  28.0911374
  78.5493312  80.5867697  27.5696206  78.2432398  79.1093848  27.4486804
  42.0717859  14.4759226  28.9242530  41.7212725  15.2055204  29.4351912
  41.4056349  14.3085289  28.2575798  34.9011142  71.4614971  48.9025831
  35.3231675  71.8088312  48.1167984  35.2007014  70.5538471  48.9540577
  18.1275804  67.8209884  41.5300703  17.7440984  68.5429485  41.0321331
  19.0710742  67.9132147  41.3975859  47.9746103  12.9142535  55.1559925
  47.1174574  12.7929831  54.7475672  48.5458040  12.2941911  54.7026825
  27.3700047   6.8936974  19.2887056  27.6792574   6.0364634  19.5815265
  27.4525905   7.4544215  20.0600672  51.6833735  11.1159182  12.8963041
  50.9771156  11.7501032  13.0197573  52.2602892  11.2505317  13.6481559
  87.2147792  36.9840200  -0.0705590  87.1828979  36.0365035   0.0614582
  86.3620799  37.2967731   0.2316366  33.2289750  81.8454998  11.8096161
  32.4652583  81.3847891  12.1570623  33.9785392  81.3861017  12.1882141
  33.6994321  79.7141392  43.9346695  34.4012649  79.4158686  44.5131969
  34.0130670  79.5113365  43.0533409  42.2492749  71.6359158  25.1356697
  42.5240952  71.6772420  26.0516381  42.9274137  72.1158583  24.6602583
  30.5873585   8.1020325  15.6804252  31.2844443   8.5499692  15.2012014
  30.9633994   7.2528094  15.9120405   3.0745901  34.3992489  70.1014736
   3.0178036  35.1448220  69.5038720   2.3175825  34.4970464  70.6790564
  42.1445322   1.8641149  29.9877787  42.4008656   1.2440209  29.3051314
  42.0140648   2.6909724  29.5235395   6.3746912  56.5440412  55.0543547
   5.5411274  56.8351455  54.6846819   6.9600827  57.2933812  54.9446249
  79.9962711  43.4750271  35.6505394  79.5845461  43.0810595  36.4196301
  79.3157244  43.4547377  34.9777269  68.8338319  48.8451629  64.3059792
  69.5789448  48.6234212  64.8644276  68.5486976  48.0066335  63.9429368
  29.6111941  31.2073231  55.3180647  29.4603515  32.1237183  55.5497932
  29.0705180  30.7124710  55.9337091  83.6120510  51.5525627  15.3249681
  83.2993221  51.9077730  16.1569893  84.1563702  50.8052921  15.5730379
  47.8082180  37.0774174   2.8427666  47.1369600  36.4166951   3.0133453
  47.9540110  37.0323229   1.8978107  59.3464231  11.0611594  32.7548027
  60.0282383  11.5324235  33.2336211  59.6113920  11.1237025  31.8371367
  -0.2004402  59.0956183  54.5735216   0.1632864  59.7172542  53.9430428
   0.2269108  58.2649632  54.3646860  65.6953907  28.5526562   3.2947972
  65.5835199  28.1499982   4.1559500  66.4856911  29.0858579   3.3805507
  39.7976494  18.8280928  18.1246507  40.6271362  19.2462742  18.3555365
  39.6864676  19.0150547  17.1924949  60.1555252   5.0650233  39.4753194
  60.0845575   5.3243828  38.5566640  61.0416746   5.3229034  39.7292304
  86.6843700  13.8130856  19.8105788  85.8168125  14.1958070  19.6797943
  86.6116810  13.3307314  20.6341577  55.7682562  16.7311549  48.7723541
  55.8271122  17.4057674  48.0958414  56.4084959  16.0704720  48.5081100
  84.5590464  40.2768778  68.4065236  84.3253581  39.5418623  67.8396263
  83.7541262  40.4758203  68.8848065  62.7314043   6.7410648  37.6443124
  63.5578537   7.2123069  37.7498770  62.0578146   7.3911095  37.8441858
  43.8534737   9.2147422  50.2472067  44.1514635   9.5459169  49.4000006
  43.1909466   9.8446226  50.5310011  86.1241722  43.9914989  45.2624989
  85.7722569  43.7997389  44.3932390  86.9374180  44.4667482  45.0921631
  59.5098019  18.9309192  20.7203388  59.9925089  18.8434017  21.5422654
  59.5939207  18.0746651  20.3008342  67.8665972   7.6110530  36.5868998
  68.2565641   7.6910490  35.7164073  68.1099272   6.7324358  36.8785381
  46.2699175  10.5973709  21.8523622  46.6390562  10.8850408  21.0173702
  46.1127329   9.6605271  21.7346787  36.3017035  13.3182752  49.0844345
  36.9101930  12.9213417  49.7076654  35.9268236  12.5762486  48.6099958
  82.5261170  80.3002915   6.3339925  81.8874318  79.6284122   6.5725124
  83.0075891  80.4711957   7.1434456  14.9795784  73.5602057  56.0766138
  14.6467842  74.2278516  56.6763892  15.7070650  73.9864719  55.6235256
  26.9250393   6.0899633  32.8283620  26.2513542   6.7426592  32.6376534
  27.7132440   6.6037220  33.0044794  80.5167103  36.7878199  58.6458588
  80.9895229  36.4397192  57.8898764  80.5683899  37.7381659  58.5438395
  54.4738245  24.4821215  66.5290833  54.8921156  23.9199066  67.1811438
  55.0328255  25.2580428  66.4879036   3.0548109  69.6324908  65.3652825
   2.4776043  70.0950753  65.9728058   3.3249344  68.8477027  65.8421161
  70.0899220  13.1117189  46.4543486  70.0974464  13.4589899  47.3462963
  70.7686615  13.6089873  45.9979820  13.5278509  27.7532673  36.7719913
  13.6749551  26.8996549  37.1793413  13.8190744  27.6402593  35.8671999
  26.1235053  78.8071735  20.2735901  26.3600499  77.9300697  20.5751967
  25.4146392  78.6619134  19.6469808  53.7070458  54.4928463   7.8777872
  53.3287399  55.3054710   8.2135807  53.0878966  54.1985352   7.2097526
  50.7006884  18.4350777  45.7996082  49.8644733  18.1043553  45.4715776
  50.6301403  18.3625829  46.7514467  82.4582100  31.4884901  18.2267177
  82.0688343  32.0070744  18.9307690  82.7738094  30.6953669  18.6598229
  27.4284625  10.9210432  30.8417273  27.3247743  10.2602541  30.1570082
  28.3146191  10.7825196  31.1760449  51.1591816   5.7590127  43.4621048
  51.9752741   5.9783489  43.9116764  50.4969692   5.7610208  44.1532660
   7.8314779  20.0191307  28.5280252   6.8805311  20.1269770  28.5107493
   7.9737470  19.2319632  29.0537262  82.0114231  40.5099487  18.6531389
  82.8899765  40.4304457  18.2815838  82.1254730  41.0718441  19.4196224
  14.5186422  15.7369769   7.6439315  15.2931211  15.6323278   8.1966305
  14.8094747  15.4717827   6.7713934  18.5532536  48.9066159  61.5426512
  19.4159187  49.0237397  61.9405486  18.5259689  49.5514810  60.8358015
  55.9621477  14.0445733  25.5706048  55.9276485  14.7261119  26.2418318
  55.7241488  14.4945145  24.7599626  63.7790871   5.2781928  57.5402689
  63.2983446   5.4668099  58.3462095  63.5698509   6.0099334  56.9597435
  39.5168304   9.2213196  34.8362422  38.9566398   8.8026816  34.1826701
  39.5321012  10.1442254  34.5827794  67.1684790  55.3550529  28.5760307
  66.3796711  55.8234692  28.3028984  67.5039864  55.8618069  29.3155360
   5.6237854  58.0799079  65.0386097   6.0840048  58.7876212  65.4897966
   6.1249746  57.9425096  64.2347689  67.5232744  11.1615884  52.5918818
  66.8049002  11.7852855  52.4861860  67.0922947  10.3100753  52.6654720
  11.0111339  39.1119070  48.0079460  11.4891536  39.7982760  48.4733725
  10.0936872  39.2623920  48.2357121  73.4270334  23.4644914  12.5208402
  74.0052795  24.1227150  12.9063356  72.5586414  23.6797953  12.8610885
  82.1834183  28.8825440  12.4816406  82.8081036  28.1603312  12.4152839
  82.7004623  29.6167612  12.8130424  15.9826626  72.1044147  69.2556045
  15.3143133  72.0156800  69.9350665  16.1303390  73.0476343  69.1866347
  28.3003957  67.0122607  26.4675212  28.6902339  67.1591933  27.3293042
  27.4237878  67.3910065  26.5334582  42.0169783   0.8074346  15.3777444
  41.6422987   1.0689333  16.2188542  41.5369511   0.0148375  15.1377583
  42.4675798  35.6498313  11.5787065  41.8638659  36.2392116  12.0308030
  43.0728626  36.2325883  11.1201644  47.3435974  25.7902694   8.3398151
  46.7132187  26.4152527   7.9816937  47.7394438  26.2477589   9.0815973
  83.2903401  65.5030620  64.8836173  84.1328208  65.8680760  64.6130224
  82.6924149  65.7261788  64.1702231  35.4496479   2.3516831  27.5385594
  36.3608956   2.6414666  27.5819516  35.1742530   2.2895828  28.4531808
  73.6132669  23.2568765  21.4346313  73.6506176  24.0302181  21.9974637
  74.4988680  22.8949738  21.4657855   9.0363977  26.8674040  14.1987681
   9.2870042  26.4493775  15.0225878   8.3488653  27.4866533  14.4438529
  62.2797728  15.9357750  12.6104629  62.1750879  16.8625307  12.3950660
  61.5385675  15.7377005  13.1828392  12.5891364  46.7541265   6.6361344
  13.5144055  46.5137768   6.6845202  12.1208465  45.9513378   6.8651897
  69.6749306  21.2519026   9.1241133  70.2859211  21.6885948   8.5306263
  69.1203260  20.7231998   8.5504252  77.2159004   3.6201337  44.5385647
  77.8463602   3.2785377  43.9044762  76.3823175   3.2239860  44.2847204
  19.2242867  63.8183041  57.7211714  18.6766107  63.0367155  57.7946711
  20.0715930  63.5514278  58.0776596  33.1425101  79.6901536  13.5602331
  33.1256206  80.5195088  14.0378487  33.7221868  79.1289352  14.0752447
  18.3487374  80.8779559   2.6145154  17.5452430  81.3560115   2.8196818
  18.4819180  81.0241694   1.6779709  37.9288340  19.1846061  23.8300681
  38.7525249  19.6701229  23.8752222  37.6246667  19.1441095  24.7367501
  73.3365726  54.1953421  17.0090485  73.4204626  53.2440853  17.0746148
  73.1098366  54.4774342  17.8951907  17.5465104   8.5589337  40.9807730
  16.9740770   7.8051722  41.1235809  18.3264253   8.3696282  41.5024328
  26.6979790   2.6665908  53.5739994  27.3421264   2.1586496  54.0672541
  25.8670354   2.2189863  53.7334108  33.2702279   1.8542665  25.5486965
  33.3059287   2.6174444  24.9720526  33.9966679   1.9810015  26.1589837
  53.7574434  16.8874705  36.9638848  53.2955694  17.6517153  36.6191602
  54.4647074  17.2542405  37.4944401  36.2673759  13.8356805  27.9767799
  37.0392871  13.9099872  27.4156547  35.5636096  14.2420924  27.4710393
  86.5887356   3.2589307  58.7771320  87.4715519   3.6286297  58.7634993
  86.7164135   2.3430216  59.0241957  75.7390404  24.7419643   3.8569027
  76.6232443  25.0544572   4.0486524  75.3192425  24.6701288   4.7141317
  51.4466953  22.6184821  26.8030691  52.2060204  22.0359683  26.7847848
  51.4162922  22.9441857  27.7026391  81.2009144  26.8051648  21.5682125
  81.1460114  26.9800997  20.6287360  80.8482647  27.5941443  21.9797683
  85.0932980  21.7627525  47.5794506  84.6824265  21.9902205  46.7453766
  85.9401798  21.3893604  47.3353100  68.9049149  32.8019714  37.7143550
  69.2602825  32.3120356  36.9727969  69.5908833  32.7591038  38.3805656
  16.4440107  18.7572706  61.8541574  16.9714904  18.4030545  62.5700665
  15.5980885  18.3175659  61.9396400  30.3111894  69.6384044  29.1702724
  29.9708468  68.8825471  29.6488929  31.1138589  69.8746784  29.6351719
  73.0727005  12.5709724  15.5876386  73.6343718  13.0482697  16.1983311
  73.2974529  11.6506946  15.7247782  48.3852768  17.0572412  44.9350739
  47.6011276  17.5512421  44.6957016  48.5323381  16.4680588  44.1951609
   0.7156649  81.9251569  11.9463192  -0.0442848  81.9848474  12.5252376
   0.7112875  81.0189875  11.6379867  48.8433409  42.7340841  11.9089031
  49.6844006  42.3137188  11.7296374  48.2812214  42.4645519  11.1825371
   7.4576313  59.3131061  42.1434689   6.7626388  58.8404245  42.6014996
   7.6740772  58.7556429  41.3960648  57.2177267  22.3998523  32.1847320
  57.4378920  23.3183312  32.3401451  56.8697214  22.0920539  33.0216241
  72.7828693  11.8017828  31.2110376  72.8372240  12.7564263  31.2549949
  72.6854753  11.6101241  30.2782941  70.5835152  70.7039881  17.2863579
  70.8642769  70.5805779  18.1930971  70.9706211  69.9673176  16.8133926
  49.6381092   4.8420519  53.0811691  48.6912680   4.7992697  53.2149363
  49.8584604   4.0106511  52.6611090  47.2004223  13.1801689  15.0591648
  47.7742338  13.0388129  15.8121526  46.8576574  14.0654004  15.1820815
  40.6488139  79.4142060  20.6968856  40.5437047  78.4633262  20.7286859
  39.9362952  79.7152121  20.1330209  58.1641102  33.6150360  21.7143059
  57.3843718  33.2821488  21.2699819  58.2759809  33.0356836  22.4680090
  54.9847746  21.8730974   7.9793316  55.5893898  22.3301649   8.5639358
  55.3244400  22.0453906   7.1011674  59.9564607  58.0740399  20.4776907
  59.6956212  58.9655061  20.2464294  59.8530538  58.0332418  21.4284134
  44.8926783  13.7221014  27.9722333  45.4275227  13.8720083  28.7517834
  44.2148256  14.3966734  28.0134892  53.1126499  15.5884111  20.1235557
  52.3909521  15.9348571  20.6483030  53.4681749  14.8715723  20.6488895
  63.5858685  15.3526227  63.3330734  64.0147264  14.8439996  64.0212728
  64.1976315  15.3238217  62.5974407  85.2588844  24.8395967  47.6501083
  84.9021530  25.1146817  48.4946823  85.1985073  23.8844061  47.6642704
  69.1843700  42.0226622  33.1356835  69.4227457  42.7586222  33.6993933
  69.1461658  41.2707567  33.7267995  71.4364243  14.0894008  28.1121206
  72.3424673  13.7863719  28.0530882  71.4871264  15.0303411  27.9439139
   8.5519678  79.2897518   5.0802344   8.1460578  78.4966518   5.4301786
   9.3353540  79.4142769   5.6159884  48.0005074   0.7489770  13.3892071
  48.6429739   1.1004959  12.7728426  47.6251650   1.5220261  13.8108063
  32.3597026  18.7320662  50.5791140  31.8437171  19.5141125  50.3831720
  31.7268610  18.0144453  50.5514765  17.3859746  59.7132273  28.2965231
  17.3899991  59.5679135  29.2426205  17.7132947  60.6063957  28.1899953
  62.3050921  35.7939740   2.2728239  62.8568666  35.0134702   2.3237310
  62.6025193  36.2464883   1.4835201  62.4216127  25.4312658  24.8221183
  62.1616077  25.6711483  23.9326859  63.3636045  25.5989671  24.8497391
  47.6032925  21.8126965  16.6558266  46.8097305  21.8015647  17.1909606
  47.3402643  22.2508764  15.8464766  29.8873544  11.9194448  54.5435238
  30.7107162  11.4824617  54.7611284  29.2752075  11.2043071  54.3700695
  49.6548898  80.2599857  30.2601790  49.8269708  80.5900465  31.1420393
  50.5117089  79.9807213  29.9375319  38.7307501  11.1613941  49.3737698
  37.9629612  10.8865118  48.8725996  38.4851241  11.0157800  50.2873850
  17.4494566  38.0417081  60.4957952  16.5660919  38.4059029  60.5528559
  17.9875387  38.7670397  60.1786317  58.7785959   0.4179520  19.6794808
  59.4682789   1.0204503  19.4009817  58.1088543   0.4897226  18.9993834
  -0.2351573   5.2122736  34.8211503  -0.1342776   5.4889107  35.7319331
   0.6598184   5.1629430  34.4852829  66.5428734  22.3328424  28.5291409
  67.4898672  22.3964858  28.4051323  66.4406300  21.9475722  29.3993974
  70.2537870   4.3942615  42.6545715  69.6528625   4.4906902  43.3933687
  70.9220886   3.7845621  42.9674196  80.2570724  17.3819733   2.4040054
  79.3338633  17.6002431   2.5315645  80.7289124  18.1701636   2.6729870
  17.6332821  27.6910185  64.1893490  17.2589411  26.8473589  64.4429983
  17.6845278  28.1858849  65.0070979   1.6355131  12.3481178  42.0290375
   1.4538381  13.1899011  41.6111517   2.3314855  12.5382483  42.6580811
  40.4505736  64.2205985  38.6827874  41.2210423  63.6558909  38.6218476
  40.5793054  64.8761923  37.9973269  48.4891319  14.9249613  57.9820251
  49.3586779  14.5861077  57.7691984  48.0178547  14.1703665  58.3351755
  49.6985149   5.6707168  26.4840889  49.0102339   5.0832796  26.1719656
  50.0707865   5.2215844  27.2429872  51.1585236  18.8763845   9.2169958
  52.0729637  19.1472113   9.1352397  51.1090708  18.4560132  10.0755262
  23.6359308  25.7337570  46.6091585  23.3113382  26.4742804  47.1215057
  23.8636873  25.0721121  47.2622919  39.0411758  17.7909625  22.0062399
  38.4331965  17.0547366  21.9386673  38.6541605  18.3609736  22.6707220
  57.5672674  24.4216299  71.0008192  58.2005310  24.5758533  70.2998018
  58.1006193  24.3379021  71.7912388  32.6740494  67.8121932  11.2859283
  32.0233956  68.4893043  11.4714084  33.4934845  68.1664117  11.6313110
  15.5062778  62.8862114  51.5656805  15.1274163  62.9906733  52.4384880
  16.1628158  62.1975739  51.6704178  70.0593901  13.2850802   7.1297693
  69.2312860  13.7312162   6.9524515  70.0631523  13.1550980   8.0780953
  80.3371525  41.1540270  41.7344713  80.3282356  41.4635801  40.8287477
  79.4588757  40.8004713  41.8754005  83.8647842  30.6628871  13.4740353
  84.7343254  30.6920123  13.0749369  84.0344429  30.5652523  14.4110060
  76.4162731  44.4926596  53.9685392  76.3414288  45.4467106  53.9480400
  77.3225737  44.3180084  53.7148666   8.5647771  23.2423425  34.5426846
   7.9025171  23.7977457  34.9539995   9.1692254  23.8576603  34.1276479
  23.9736850  31.0312335  67.1236582  23.7915236  30.7939260  66.2144091
  23.6160237  30.3065269  67.6366003  28.7266946  12.3489010  25.7350874
  28.6111665  13.2803297  25.5471373  29.6632409  12.1940911  25.6120205
  68.5761301  40.9558426  57.9298653  68.1813947  40.8006277  58.7879588
  68.8521210  40.0887674  57.6328124   4.1662977   0.4659322  17.8876901
   5.1100347   0.6069195  17.8121471   4.0376470   0.1866940  18.7941706
  43.7811708   2.8056571  49.9700689  44.4090843   3.5156783  50.1035881
  43.7552023   2.3477370  50.8102274   0.3528211  47.2224188  33.3243585
   0.3126714  46.2664223  33.2980800   0.7501981  47.4222422  34.1719389
  46.7106152  18.5680735   9.3072677  46.6680908  18.9406776  10.1879430
  47.4460077  19.0184999   8.8918829  61.4401109  80.9875264  66.9851160
  61.0749394  81.8330026  67.2459745  61.6495091  80.5518937  67.8113174
  79.4288111  32.8815341   3.0588624  79.3454170  33.2565212   2.1821284
  80.3577042  32.6649380   3.1393605  61.5313196  30.8121753   9.0415955
  60.7209444  30.3087568   9.1196656  61.7620945  30.7523251   8.1145614
  84.5613098   0.7749648  22.1366453  84.0537548   0.5240675  22.9084420
  85.2604675   1.3311835  22.4801970  49.9206877  19.9515438  13.7008584
  49.7053719  20.8291197  13.3850539  50.8705282  19.9656749  13.8184893
  51.4167643  16.5443933  22.4862003  51.2950754  15.6152916  22.2907734
  50.5537271  16.8441117  22.7718019  81.2002754  47.0716524  24.6773505
  81.9794655  47.4922228  24.3137527  80.4779339  47.6469135  24.4253039
  19.9851034  36.2934828  29.2509031  19.1409776  36.7241287  29.3859148
  20.5675409  36.9944930  28.9583588  19.0272424  34.8898721  38.9480948
  18.3602521  34.4347835  39.4621563  18.5317705  35.4886031  38.3892941
  60.4208088  25.5901623  30.8778453  59.9953508  26.2932825  30.3870916
  60.6849289  24.9576139  30.2097487  35.3316886  61.0610218  18.4098554
  35.3358466  61.0574574  17.4526715  34.6823556  61.7241497  18.6440802
  29.9801946  10.2365184  13.4174049  29.0985322   9.8966223  13.2645178
  30.0765824  10.9465003  12.7826881  18.7546632  26.5989780  22.0632267
  19.3734166  26.4407802  22.7762103  17.9790399  26.0915065  22.3021984
  66.7336232  63.4741886  12.6404691  66.4769418  63.2863350  11.7376649
  65.9607846  63.8842375  13.0288219  84.4596610  68.7725134  59.6784449
  85.4042134  68.8279481  59.5335913  84.1679964  68.0743821  59.0921211
  25.7792163  18.5179794  38.6638069  26.2649584  18.1153142  39.3836308
  25.8601284  19.4593227  38.8172936  73.7445021  15.4234278  24.6016574
  73.8490438  14.6359694  25.1357079  73.6869240  16.1374819  25.2365136
  34.3580825  57.6213737  26.2078857  34.4185359  58.1204147  25.3933096
  33.4827620  57.8153176  26.5431881  71.2157154  25.4793000  24.5405674
  70.4132795  25.1438713  24.1407990  71.4257526  24.8442602  25.2252865
  20.3356750  64.2669077  21.8339276  21.2685544  64.4810386  21.8449450
  20.3096110  63.3100779  21.8285275  47.0993280  15.3584611  53.0780888
  46.3884783  14.7635972  52.8392220  46.9551659  15.5434942  54.0061045
  76.0879421  17.4881601  50.1865387  76.6092443  18.2868886  50.1058531
  75.7013035  17.3658895  49.3194771  82.6384926  33.0936050  12.4898624
  82.7762604  32.5979018  13.2970345  82.0320797  33.7914395  12.7378953
  57.1119118  24.5766211  16.3553572  56.4170599  23.9221740  16.2838495
  57.6983643  24.3842149  15.6237268   9.4747922  20.4882669  70.9820890
   8.5531232  20.7167387  70.8614302   9.5026872  19.5380783  70.8698606
  54.7813470  81.1743537  39.2582035  53.8789517  80.8577083  39.2176700
  55.3147275  80.4026994  39.0677142  64.9728727  14.5164561  17.4457669
  64.6618128  13.6876142  17.8097677  65.6363153  14.8168647  18.0669177
  70.9875059  17.0376945  27.4148846  70.5500221  17.3574245  28.2039428
  70.2832508  16.9377673  26.7743611  69.2646313  26.5227509  41.3237476
  69.8154688  25.9595799  40.7800102  69.8464775  27.2298789  41.6024256
  22.2707088  80.6927038  18.0742335  21.3408954  80.7975408  17.8725350
  22.3131568  80.7213036  19.0300643  84.2612832  56.9310410  12.3890529
  84.8781913  57.5285383  11.9663749  84.4410508  57.0235784  13.3246551
  72.8907776  22.0560622  38.1884074  73.1631947  22.7093959  37.5440645
  72.6167059  22.5691438  38.9485812  65.8836460  40.9304190  46.6215372
  65.7843351  41.8822956  46.6042137  66.7836857  40.7782269  46.3334417
  82.8464699  58.8899899  51.0369968  83.1782722  59.7861290  51.0924721
  83.0288982  58.5133219  51.8978500   7.9910460   6.5264730  42.7265310
   8.7976828   6.3566141  43.2130671   8.2767668   6.6346960  41.8194008
  78.9786434  41.9089460  39.3375659  78.1354475  42.1897984  39.6930575
  78.7658596  41.1620235  38.7780452  58.2435989  13.1872296  41.7727089
  57.9142046  12.7345729  40.9962893  57.6840830  12.8785062  42.4853516
  62.3978281  49.2458296  23.2846785  61.9202662  48.8445044  22.5586629
  63.2955837  49.3299246  22.9634404  70.4938841  12.0649922  26.1706877
  70.6699228  12.6601291  26.8994212  69.5423365  12.0858157  26.0689378
  59.0289688  28.6541677  26.1593413  59.0288687  28.5378385  25.2092361
  58.2060194  28.2603335  26.4489508   7.7570913  43.2766676  22.8645968
   7.2976873  42.5902700  23.3483720   8.6510560  42.9472351  22.7722120
  64.6888542  24.6992683  17.9576755  65.1092815  25.0645089  18.7361813
  65.4134130  24.3666792  17.4279284  72.2665078  75.6385703  46.7349482
  72.4400002  75.2063258  45.8987093  71.7722280  76.4240451  46.5005541
  57.0449305  51.2983465  18.6509967  56.5765572  52.0168304  19.0760076
  56.6995430  51.2820911  17.7584302  35.4913432  75.7619138   3.7312710
  34.9719913  75.7449652   2.9273927  35.9463460  74.9198188   3.7402624
  54.0897322  68.1153345   1.5675305  54.8367214  67.8394747   1.0363600
  54.0879536  67.5115061   2.3102416  57.1296453  27.3012543  15.2213407
  56.8803072  26.4834952  15.6518412  56.3145447  27.7997589  15.1636326
  83.1719208  32.9262733  49.3791819  84.1105556  32.9367065  49.5664883
  83.1039429  33.2423306  48.4782267  81.5255737  64.5591736  54.5143652
  81.3589096  64.8232651  55.4191875  80.6585312  64.5297384  54.1098738
  73.6983490  54.9533510  44.6041727  73.3452606  54.2310667  44.0846872
  74.5377016  54.6270895  44.9286222  67.7616167  44.0898848  29.2010641
  68.3532572  44.0344810  29.9514818  67.7026892  43.1916094  28.8756943
  12.0019020  68.9776909  68.2150074  12.7290882  68.9742052  67.5925787
  11.5825809  69.8288333  68.0886810  65.3786755  13.4197855  51.8661737
  65.9162617  14.0977192  51.4567375  64.9342728  13.8684511  52.5855064
  80.2481842  53.0824852  40.0887966  79.8913431  52.2090149  39.9277115
  80.7353210  53.2928658  39.2921329  13.0427835  70.0097799  35.0782681
  13.5488031  69.2001057  35.1461244  13.2879541  70.3749037  34.2280865
  54.1515636  19.0357351   8.5436004  54.4418669  19.9424553   8.6426646
  54.5254135  18.7544298   7.7085346   2.1034334   9.7924697  35.1545382
   2.3184678  10.4317224  35.8337617   1.2075899  10.0094283  34.8964357
  70.7062721  57.9093218  47.1995592  70.1269627  57.2593546  46.8018579
  70.1831818  58.2999516  47.8995705  57.7032852  29.1129231  30.6422591
  57.7827549  28.3717608  30.0417638  56.7761230  29.1306138  30.8795094
  84.2049026  28.0954409  51.4883757  85.0513363  28.1956434  51.9239569
  83.5722828  28.4595060  52.1076298   1.3525770  37.7031088  25.5186105
   0.6279466  38.2777643  25.7654428   2.0842454  37.9926825  26.0636163
  22.5790975  12.4111700  38.8984346  22.4496362  13.3502257  38.7655973
  21.9783017  12.1846235  39.6083307  72.7329350  14.2110682   6.1099374
  72.5016260  13.3201730   6.3726801  72.2596693  14.7724020   6.7240661
  70.8273315  64.7057676  43.3936977  71.7765188  64.7067738  43.5172796
  70.6979322  64.3015575  42.5357342  35.4277338  70.6844246  59.0503480
  36.2562288  70.2182066  58.9387144  34.8834623  70.0863349  59.5624890
   1.1768243  19.5134079  30.0398993   1.6581628  20.3407741  30.0383067
   1.2220762  19.2117310  30.9471893  73.9398289  32.5963354  33.9873409
  74.7747755  32.9956102  33.7430525  73.3067465  33.3121371  33.9319611
  70.0049019  39.8538804  39.0761900  69.0779972  40.0661850  39.1857529
  70.3185892  40.4801941  38.4238362  16.8901346  42.1292067   6.0282916
  17.5278566  42.2122669   5.3193140  17.4060914  41.8437719   6.7823142
  14.7338572   3.5616617  32.1991444  14.3888703   3.2545023  33.0375195
  13.9839211   3.5291891  31.6051960  67.4268007  37.0987797  24.0556335
  66.6670227  37.2344971  23.4894609  67.9302406  36.4109707  23.6200905
  80.5452728  34.5913363  45.2799225  81.1365128  33.8388348  45.2598333
  80.3388214  34.7583389  44.3602896  41.0066141  77.4136316  68.2129421
  41.0205091  76.4618861  68.3140348  41.3310160  77.7480638  69.0490963
  76.5369129  43.3550453  40.0602531  76.1059380  42.6486635  40.5414200
  76.3184929  43.1882858  39.1433477  20.1946647  78.2790951  19.1025996
  19.7279508  79.0014682  19.5228183  20.0987346  78.4452627  18.1648278
  82.2072124  25.2792716  41.2025881  82.9655170  24.8435616  40.8135509
  81.5418530  25.2616739  40.5146790  58.9747477  44.3557310  60.7471895
  58.1091261  44.6983004  60.9698534  58.7996483  43.5036612  60.3477573
  59.8498583  14.6786380  29.8175788  60.2262402  15.4852223  30.1697016
  59.9351501  14.7689438  28.8684726  62.1009445  35.9745049  50.7204819
  62.3788214  36.0920596  49.8120785  62.4266434  35.1069379  50.9602213
  52.3112161  10.1741235  50.6496968  52.0800836  10.9863965  51.1002757
  51.9759805   9.4810073  51.2184193  75.1628494  30.3703141  42.5307226
  74.7930336  29.9797106  41.7389536  74.4955969  30.2280474  43.2021141
  86.4645004   7.7859056  19.1015899  86.0192966   6.9531101  19.2580426
  86.2775326   8.3077472  19.8819482  59.8062849  37.4544692  70.5627012
  59.7260046  36.5972948  70.9810781  59.7362375  38.0803299  71.2835503
  64.9933583  78.6470701  40.7246923  64.7190721  79.4129128  41.2291574
  64.7791249  77.9015557  41.2855339   5.0540635  10.4804289  30.5432987
   5.0114534  11.4245069  30.3912044   4.5170495  10.3389525  31.3229322
  61.0523891  53.6166334  58.0878496  60.2122545  53.3126879  58.4313965
  61.7066908  53.1464434  58.6046124  86.4143467  29.0254378  14.3571043
  85.9398460  28.6534166  15.1005292  87.3080349  28.6967397  14.4546413
  75.7054520  61.4407206  39.9180031  76.0438442  61.5192556  39.0260673
  75.6602526  60.4975414  40.0748444   0.4483475  73.1037342  66.5415038
   1.2245668  73.1986272  65.9894945   0.7528461  72.6042258  67.2991340
   1.2786577  47.9048252  42.3744249   1.0293767  48.0414820  41.4604139
   1.9788072  48.5389376  42.5291061  80.0529957  58.0332518  51.0523081
  80.8788300  58.4778881  51.2434244  79.5708179  58.6499643  50.5014849
  66.5635347  26.3945723  40.7740259  67.4586821  26.4894247  41.0995197
  66.3581228  25.4688001  40.9043550  62.4432468  48.1465673  39.3542027
  62.1641397  48.9027977  39.8703957  61.8425608  48.1302929  38.6091208
  57.5342941  50.4201794  14.2541027  57.9531574  50.1821089  15.0812101
  57.8014612  49.7328854  13.6437917  57.1063042  11.9361579  23.9621234
  56.5782833  12.5628483  24.4567800  56.6443920  11.1035669  24.0604019
  25.7268388  14.3525474  69.3230519  25.4247863  13.8320367  68.5786985
  25.6221587  13.7737910  70.0782441  43.9485659  64.6172440  41.0592355
  43.3341230  64.4347655  40.3483238  44.3277468  65.4672634  40.8358135
  86.1159801  45.1402903  52.5357676  86.3888454  44.3553305  52.0607853
  86.5314007  45.0573730  53.3941269  50.1427078  37.2053504  16.5035558
  50.4681110  36.4253020  16.0542548  49.4235802  37.5160789  15.9535277
  84.8360825  34.9127793  13.0164325  83.9497280  35.2517557  12.8910589
  84.7080040  34.0170789  13.3287621  81.3736502  80.1867330  67.6521273
  81.6308085  80.1016628  66.7340507  81.6263215  81.0788238  67.8899573
  32.2378969  32.5887179  21.7999697  32.5522232  33.4323668  21.4748693
  32.5623655  31.9510460  21.1641026  83.0583763  48.5601759  23.4180450
  83.8307190  48.7902069  23.9345741  82.7441692  49.3954992  23.0720115
  44.9175269  62.4025257  17.1494579  44.4617993  61.6365285  16.8004715
  45.1531751  62.9142005  16.3755786   2.1487520  70.0151253  41.9807959
   2.7858541  69.9631929  41.2683105   1.3464353  69.6455574  41.6120911
  14.8774717  15.3097534  50.0331736  14.1367719  15.1111197  50.6059980
  15.5439279  14.6652257  50.2712154   0.8150400  45.4045018  57.6558401
   1.5502466  44.8654389  57.9475846   1.2245239  46.1647224  57.2427787
  78.8281298  49.8283720  21.8357992  78.6417341  49.1534424  21.1831450
  78.1858826  49.6752596  22.5288391  47.9420662  46.0814810  24.6318889
  48.4318686  46.7310095  25.1363087  47.1596003  46.5474463  24.3371677
  73.0878401   1.4431474  31.8886328  73.8747692   1.8735813  32.2228479
  73.3547688   0.5355088  31.7431164  83.5047626  29.7535920  34.1961265
  83.9739704  29.8414087  33.3664465  82.9243088  29.0038848  34.0648365
   9.1860006  60.5539894  22.8292751   8.8837335  61.3627911  23.2424402
   9.2163560  59.9171495  23.5432434  72.6685286  20.4472303  16.2385130
  72.8113556  19.6796846  16.7923260  72.9929829  20.1847410  15.3770816
  79.5572853  36.5483046  41.2513113  79.3938828  35.6207323  41.4220095
  78.6942863  36.9582438  41.3097239  68.8602686  30.8329153  33.7659907
  68.5395193  30.5147886  32.9221010  68.2709026  30.4399896  34.4097948
  69.2890501  59.5202446  57.0931768  69.4996738  60.2520132  57.6731634
  68.7396431  58.9439726  57.6244926  64.9103308  43.3797693  22.7899957
  65.8510447  43.2647610  22.9244089  64.5104122  42.6441145  23.2537937
  64.7566366  30.2024102  30.9412575  64.9225473  31.1412740  30.8561587
  64.5854330  29.9074101  30.0468874   0.2978227  81.3104439  64.8114347
   1.0467718  81.8998337  64.9004602   0.5763242  80.6658268  64.1609430
  79.3280370  72.9337205  50.2120876  80.1417882  73.4256978  50.1025391
  78.7280232  73.3178217  49.5728064  55.9507895  67.0944595  10.0214362
  55.1756763  67.1767330   9.4658613  55.6571579  67.3811340  10.8862078
  57.2225380  28.4830332  12.3026502  56.3627768  28.4568214  11.8827033
  57.0558167  28.8604593  13.1663537  73.3352852  49.1614866  22.5022197
  74.2346478  48.8661051  22.6441240  73.1772184  49.7933435  23.2036471
  86.8190670  22.0146680  42.9068184  86.6679859  22.5943971  43.6533594
  86.1249161  21.3585067  42.9687834   4.7436616  16.1466360  29.5678616
   4.0975664  16.6897047  29.1163540   4.5565793  16.2750375  30.4977798
  26.9347325   3.6895494  58.0934858  27.6497975   3.8420801  58.7112617
  27.3628559   3.3344107  57.3145056  16.1101148   9.6891773  59.3143892
  16.6131971   8.8840455  59.4364452  16.7693612  10.3828931  59.2948294
   3.7801168  32.2360563  45.2062225   3.8410089  33.1677485  44.9953318
   3.5135457  32.2154498  46.1253262  29.5210264  33.4997988  21.1755037
  29.0235612  32.7088213  20.9678531  30.4372403  33.2300949  21.1119723
  83.5020447  14.6173775  63.8891602  83.9444351  14.0148902  63.2912159
  83.9982700  15.4328144  63.8180685  17.0481679   3.4605482  37.5726485
  17.8746126   3.5833728  38.0397081  16.3739297   3.6126471  38.2348371
  64.2884350  22.4843621   3.3548445  63.4154463  22.8698850   3.4289643
  64.7459078  22.7738380   4.1442454  15.6486890  21.4067554  39.5770502
  16.4083478  21.4423919  38.9957666  14.9738691  20.9640431  39.0624166
  68.6935520  35.3094816  21.9289422  69.2023659  34.5709252  21.5944672
  67.8047180  35.1517081  21.6106391  67.8887510  23.1751633  20.7486606
  68.2115650  22.6517344  21.4821744  68.6791325  23.5286307  20.3405023
  35.0483431  48.5074365  68.1260459  34.5682730  47.6800567  68.0912669
  35.8541693  48.2971364  68.5979151  59.4605112  63.2291031  19.7666585
  58.7477589  63.6268139  19.2666161  59.0208054  62.6700354  20.4072332
  33.5005045   6.6706848  42.2411776  34.0537429   7.3086452  42.6919174
  32.6299906   6.8003368  42.6175117  58.4978008  39.0705061  11.1472356
  59.0073156  38.3141875  11.4381135  57.6002741  38.8715291  11.4138532
  80.0522614  35.3515887  28.3667898  80.6019688  34.5983815  28.5829592
  80.5999565  35.8923745  27.7977443  70.4900169  16.6141391  14.0018177
  71.2149382  17.2387373  14.0262735  70.9122086  15.7557511  14.0357721
  68.0775833  70.1659393  36.9289613  68.0034065  71.1098242  36.7882156
  68.2964230  69.8117256  36.0670590  85.4373932  36.3357186   8.2843292
  85.6879616  36.2187195   9.2007136  85.1496410  35.4675531   8.0019855
  78.6106539  48.3738708  16.1665165  79.2119741  47.6294661  16.1891711
  78.3932447  48.4780359  15.2401721  76.5435839  30.0736451  19.5086825
  76.3427973  29.4425726  18.8175499  77.4871874  29.9878407  19.6446157
  55.7694530  75.6583548  26.8490529  56.3655901  74.9101973  26.8157840
  56.3235378  76.3947868  27.1076941  83.5506725   8.7392980  48.9966202
  84.0411186   8.7658197  48.1750488  84.2187786   8.8212860  49.6771622
  57.5837708  34.4901133  33.0767107  56.6926432  34.6481085  33.3884168
  57.8814077  33.7304044  33.5771918  76.1663294  72.2060680  47.0474672
  75.6252527  71.5762520  47.5236988  76.7032671  71.6685438  46.4652348
  74.2661142  59.9886465  13.3334720  74.1334534  59.1235638  12.9458380
  74.0833044  60.6010103  12.6208556  76.5904331  23.7317967  31.8237591
  77.0547581  24.3216348  32.4176669  77.2287130  23.0492020  31.6166425
  76.9362450  24.3759108  39.2506075  77.4363041  24.2260098  40.0529194
  77.1523762  25.2734828  38.9978504  67.2791624  39.4570994  31.4107156
  67.9203701  38.7575865  31.2851548  67.7387524  40.1117516  31.9364858
  52.8944063  23.2884693  15.9691906  53.3713341  23.9456463  16.4760339
  52.8386021  22.5309134  16.5516210  14.0405557  46.9294643  37.7333784
  14.2463682  46.4063740  36.9586229  13.9527032  47.8233290  37.4024415
  74.0361166  37.5137067  30.6602859  73.5720491  38.1996131  31.1402941
  74.9570847  37.7705121  30.7060933  57.8342009  14.0845871   2.3007858
  58.3244038  14.6611619   2.8868696  57.7072525  14.6027482   1.5060377
  68.3937788  53.9775658  32.9840565  67.6909351  53.5048819  33.4299421
  68.6893749  53.3773375  32.2995281  69.8023510  44.4466209  34.3065572
  70.4068375  45.0424004  33.8639736  69.5827341  44.8923874  35.1246619
  71.0024118  42.2871399   5.1764345  71.0548592  42.6903868   6.0429639
  71.5728378  42.8248215   4.6271214  82.0731544  29.2053819  27.1191573
  81.3364983  28.9802718  27.6873922  82.6307583  29.7645807  27.6600933
  62.9806471  54.5884848  19.1287053  62.4027252  55.3489971  19.1908777
  63.5951519  54.6946383  19.8548901  25.8316460  17.5050955  41.6611624
  25.0793972  16.9152288  41.7102098  26.4713707  17.1281462  42.2652245
  35.2058578  18.2824135   2.1011408  34.9502802  17.4951470   1.6203867
  36.1627674  18.2769871   2.0781943  31.6120011  65.0345905  25.0635886
  31.5696961  65.9878953  24.9884057  32.1447284  64.8792489  25.8435249
  64.2550802  59.1954041  49.3046236  64.1239214  58.2988930  48.9959240
  63.6539793  59.2844009  50.0442123   1.1791417  43.0180931  35.6507158
   0.3304288  42.8438473  36.0576081   1.8046090  42.9765177  36.3741016
  74.1644096  63.3206797  36.3106418  74.8187351  62.9232264  36.8852019
  73.9174223  62.6193953  35.7077861  80.3874111  70.4180431  62.7009583
  80.8204937  69.6637106  62.3013878  80.3633404  71.0761213  62.0062780
  69.5126772  45.7946920  44.2437601  68.8485718  46.0932922  43.6224413
  70.2755737  46.3431215  44.0608883  77.3026848  51.7047071  36.7402887
  76.8664503  52.5560331  36.7746067  78.1156778  51.8322945  37.2291589
  83.7422371   8.2684129  32.4305630  84.5608997   7.7726859  32.4468279
  83.9729404   9.1237885  32.7929664   2.5209138  36.4970946  52.1822405
   3.3812997  36.7937708  52.4788189   1.9201467  36.7756438  52.8734159
   6.0291002  11.9855487  36.9439554   6.7380140  12.5423014  37.2659826
   6.0173890  12.1354580  35.9986401  71.5777588  44.9148130  18.7963402
  72.5105333  45.1272058  18.7639558  71.5193939  44.1858912  19.4139946
  83.2824993  66.2252951  23.5780716  83.7903786  66.0927629  24.3785214
  82.7093124  66.9654083  23.7778854  79.9409437  41.7082739  29.6525598
  80.1576996  41.1215115  28.9280200  80.7881451  41.9492197  30.0273085
   1.2346742  40.4987717  26.4871216   0.8296773  40.0421667  27.2244954
   1.7822454  41.1707783  26.8930864  65.6097412  58.1902599  30.4113388
  65.6960583  57.4906445  31.0588861  65.5504990  58.9918089  30.9311891
  63.0748653  38.0671000  23.7265444  63.0317450  38.8871193  24.2184210
  62.3478985  38.1213903  23.1062174  71.0996389  41.8867064  42.3973417
  71.2029982  41.1701155  43.0234814  70.5854654  41.5089798  41.6837740
  16.4508817  73.8028002   8.7678534  15.8758447  73.6415529   9.5158982
  16.7373464  74.7095776   8.8770443  57.9997540  20.4495478  24.7861052
  58.2453632  20.5599880  23.8675666  57.0437241  20.4036498  24.7745442
  52.2745037  48.8222361  67.2641516  52.1083498  48.6524963  68.1914139
  52.4170971  47.9554987  66.8837976  66.7817020  46.7965412  20.6189942
  67.6727057  47.0775843  20.4107785  66.5776682  47.2383213  21.4432693
  80.7457256  78.2280254  35.0318885  80.4337788  78.9607763  34.5008588
  80.0078011  77.6188469  35.0565290   7.9970739   4.5882457  35.0464487
   7.9329297   4.2442632  35.9373999   8.0528161   5.5371130  35.1594830
  84.6008492  48.2219934  28.4917569  84.3553638  47.5421667  27.8642201
  85.5150604  48.0334759  28.7036896  18.8084695   4.0497646   3.4361127
  18.5319612   3.2326680   3.0212265  19.1435716   4.5829660   2.7152562
   5.3005597  29.6691442   9.3953687   4.6180246  29.9557471   8.7885463
   4.9186513  28.9167762   9.8473853  76.3164091  11.6516924  51.6872931
  75.3645086  11.5732181  51.6243792  76.5053082  12.5352168  51.3711739
  85.4399014  69.4760323  52.6026201  84.9628353  69.6298552  51.7871571
  86.1374378  70.1315212  52.5993299  64.7380924  37.0666122  34.1834235
  64.2433834  36.3354778  34.5534825  64.1577053  37.4360442  33.5179138
   2.5126836  46.5055418   7.2751820   1.6299913  46.6173315   7.6281482
   2.7855298  45.6408215   7.5818545   6.6936872  30.7881451  49.6303606
   5.9030912  30.2920556  49.4180393   7.0101831  31.1075544  48.7853479
  58.2089186  43.4873581  44.6182013  59.0369320  43.0147600  44.7035360
  58.0966139  43.6053848  43.6749649  65.5202818  38.7118959  48.1091404
  65.8231926  39.0109158  48.9664936  65.4465532  39.5118999  47.5887632
  54.9942867  69.3661630  67.1383353  54.8710529  69.8539555  67.9526471
  55.4545204  69.9756634  66.5613394  56.7979574  15.1930833  30.5374289
  57.3469114  15.6016707  29.8681450  57.2669554  15.3456533  31.3577914
  83.7660980  21.9067168  49.9029207  82.9049778  22.2621894  49.6830511
  84.1218567  21.6062903  49.0666151  73.6392975  54.8866796  20.4394031
  73.9739847  55.4088402  21.1684871  72.8445435  54.4780922  20.7824111
  71.6214991  31.8179870  36.2011409  72.1403313  32.5622582  35.8960056
  71.7413330  31.8157601  37.1508074  32.4023683  75.8807315   8.4636927
  31.8246943  76.4942915   8.9176428  32.5752456  75.1936431   9.1073197
  60.0183964  28.4923530  23.3168936  59.8502779  29.3846726  23.0140185
  60.6098890  28.1240964  22.6605725   3.3863733  25.0515437  13.3353114
   3.0805013  25.3526211  12.4797237   4.3389699  25.1347184  13.2919908
   4.8304269  19.3559444  37.6203156   4.4586751  20.2085161  37.8464842
   4.2225644  18.7213266  37.9997945  15.1484925  81.0747843  32.7360988
  15.1551492  82.0230718  32.6059508  14.2408330  80.8702495  32.9609299
  19.6140478  25.6883907  10.8987653  19.6045873  25.5263853  11.8421090
  20.5218599  25.5328822  10.6381404  65.4517508  35.9133697  40.3135920
  65.8919430  35.5803561  39.5315647  66.0653496  36.5493846  40.6813049
  68.1064946  69.2240472   3.2410538  68.2355744  68.8209040   4.0995669
  67.4022920  69.8578508   3.3775142  27.7764143  63.3671963  54.5267846
  27.3348059  63.5820472  53.7051668  28.6786760  63.1758082  54.2708208
  83.7479687  56.4992189  14.9976838  82.9102135  56.0373449  14.9650133
  83.5215378  57.3865986  15.2761126   3.0063681   6.0237948  54.6543147
   3.2566885   6.9476287  54.6644809   3.3328871   5.6780164  55.4850091
  82.1887493  29.8789620  39.8214054  81.8542671  29.6501851  38.9542174
  83.1307983  29.7191525  39.7645807  74.2799568  31.0938621  31.5441918
  73.6503124  31.8147635  31.5531087  73.8289452  30.3764176  31.9892693
  30.6842897  41.2975931  27.9004693  30.3702257  40.7462931  27.1837664
  29.9992368  41.2380457  28.5663462  65.9419203  61.1414480  35.8641195
  65.0437784  60.8295774  35.9750724  65.8702230  61.8591547  35.2348423
  82.1777916  16.8357706   0.4951290  81.2799644  16.9795740   0.7942106
  82.7050495  17.4353552   1.0230835  70.2052593   7.9304677  51.0840416
  70.4026556   8.8483047  50.8973837  70.5605221   7.4519503  50.3350163
  47.5394764   3.4831076  25.6207848  47.5208226   2.8677778  26.3537621
  46.6193238   3.6923056  25.4602122   3.1097696  49.8242664  42.4451351
   3.0707071  50.5708599  41.8473864   3.6913392  50.1112700  43.1491470
  26.4419458  64.7122526  33.5782480  25.4889772  64.6517897  33.6448145
  26.6511819  64.2892742  32.7454567  85.0967407  49.1078091  46.3526011
  84.5548439  49.8024225  46.7268944  85.9091091  49.5471001  46.1009884
   2.8660104  44.0861464  37.6166344   3.5382554  43.5027361  37.9687023
   2.6957033  44.7091818  38.3230710  10.3581140  63.4433699  26.7132592
  10.6088254  62.5679111  26.4183974  10.2513788  63.3556652  27.6604366
  28.4833731  70.7172048  52.6037409  27.9679979  70.0217020  52.1952059
  27.9763044  70.9692561  53.3754851  20.7845113  47.3304558  12.3486829
  21.0980508  47.5396681  13.2285428  21.3844297  46.6536236  12.0352697
  46.5903807  65.6487131  42.4460077  46.1218214  65.8144951  43.2640553
  47.4988842  65.5108500  42.7140617  12.1463099   1.1553316  10.6782579
  12.0498648   0.3358965  11.1634982  12.9998722   1.0818510  10.2513361
  10.1157965  67.6662123  69.5841448  10.5822290  68.1600916  68.9097870
   9.6374001  68.3307373  70.0798996  57.8994513  61.0792065   7.8531170
  58.8538551  61.0105801   7.8278291  57.7094269  61.4615202   8.7098300
  36.5749550  42.5835848  13.8196409  37.4608326  42.9423618  13.7673807
  36.6076756  41.7866945  13.2903743  52.8416538  29.9541283   3.7481287
  52.2977400  29.2489719   3.3972144  52.3127174  30.7437778   3.6345148
  79.5931339  48.4164667  35.3750563  80.0380039  47.6154041  35.6518507
  79.2420387  48.2084942  34.5091987   6.5100804   4.1605692  22.7594447
   6.4272204   3.3023958  22.3436284   5.9127083   4.7238188  22.2673821
  23.0220547   4.2181711  43.6281776  23.3728066   3.7821417  44.4047642
  23.6892929   4.0825014  42.9554176  85.7262611  60.0347090  33.7633395
  84.9482536  59.9810171  34.3183565  86.0016251  59.1252232  33.6482739
  22.9111383  62.0385838  29.8402238  23.4847352  61.3838530  29.4420385
  22.9185674  61.8274641  30.7738233  78.2210684  47.0532608   3.3715454
  77.6835775  47.6135206   3.9314032  79.1130257  47.1744967   3.6970475
  75.0556898  58.3899975  35.3478694  74.8520517  57.5720978  34.8942208
  75.7490158  58.7891722  34.8223257  79.2083549  44.1175222  51.2379646
  80.1247025  44.0560389  50.9682417  79.0476227  45.0568485  51.3277674
   9.4220731  38.8512540  13.0395842   8.7214086  39.3536806  12.6238072
   9.2781350  37.9515266  12.7463210  66.3115120  56.5861750  51.5167046
  66.1148405  57.4974203  51.2994719  65.7349253  56.3859177  52.2540474
  70.4811859   5.9921539  49.2744684  69.5289707   6.0792220  49.2303801
  70.7494593   5.8346069  48.3692360  59.3134022  73.7482500  20.8324313
  59.2442083  73.1090307  20.1233220  58.4280157  74.1000271  20.9250331
  84.3945217  42.4539423  27.7469730  84.1484070  43.1413317  28.3659649
  83.5827637  42.2466278  27.2840571   1.2161723   7.0530729  12.3914754
   1.0116854   6.1429911  12.1766067   1.6755858   7.0038443  13.2297742
  20.3127096  41.9066334  39.5882010  20.3195474  41.5996456  38.6815906
  20.1356599  42.8449821  39.5220089   8.9706132  48.6020279  17.9770827
   9.8752782  48.3127880  18.0960667   8.9848420  49.5320845  18.2029569
  74.3153715  43.1099510  17.5623524  74.5780754  43.4072971  18.4334469
  74.4511843  42.1626329  17.5815737   6.7358246   4.0620165  15.8146262
   7.1677389   4.2379789  14.9787319   5.9903803   4.6622686  15.8300698
  60.9843308  59.6804111  67.1666508  60.9249551  58.8237731  67.5895913
  60.0792748  59.9888579  67.1222575  56.0265350  54.3551064  17.8635132
  55.7086134  55.2496624  17.9856896  55.3660250  53.9398146  17.3089945
  85.7228374  36.8605256  20.4422665  86.1405754  36.6678810  21.2816787
  85.3985786  36.0135460  20.1361322  81.7631340  31.2539911  23.4682393
  81.2870216  31.7438674  24.1387367  82.4115849  31.8736982  23.1340051
  60.8217525  40.2693796  19.3231714  60.2811718  40.0135612  18.5757995
  60.5495071  41.1656761  19.5200551  68.9584923  37.4975753  45.8926773
  69.8317432  37.4449015  45.5042267  68.4881163  36.7483854  45.5270338
  11.2503908  52.3651218  41.2274122  10.4175088  52.8287601  41.3144732
  11.7411706  52.8735209  40.5817366  68.1894779  55.1661968  13.9024818
  67.4659109  54.9086094  13.3312297  67.8075361  55.8127546  14.4960463
  51.9810715   2.3276834  38.4202838  52.2164860   1.8115931  39.1913033
  52.5662938   3.0845289  38.4508514  48.0180079  66.4085073  39.3091321
  48.8842208  66.8147559  39.3385816  47.8517539  66.2662144  38.3772826
  78.0632496  35.5193591  23.4415007  77.2472143  36.0115409  23.5313654
  78.3443642  35.3552842  24.3416595  67.5388282   8.8592844  23.6551809
  68.0255144   8.8983946  22.8318715  68.0684155   8.2964354  24.2199612
  82.3283482  37.8311944  63.8587570  82.6995945  36.9794893  63.6285067
  82.2258091  38.2822275  63.0207300  59.4171578  25.5706946  69.1977047
  59.2853028  25.2766149  68.2963924  60.3631646  25.6958167  69.2728560
  77.8790140  34.3445587  30.2885437  78.5006142  34.4756508  29.5725417
  78.2524872  33.6280942  30.8017969  51.6660213  41.7538023   1.0144062
  50.8260393  42.1528482   0.7876412  51.4632034  40.8278084   1.1471973
   5.2235696  73.3806610  34.0987873   5.2215669  73.3945179  35.0558853
   6.0437200  72.9447699  33.8672805  78.3995247  31.6533399  50.7595968
  77.9810524  30.8136487  50.9494162  77.6871252  32.2911882  50.8028936
  71.6685247  13.4027207  36.2894630  72.2197580  14.1733956  36.4252329
  72.1794701  12.8427482  35.7049990  76.2653542  56.6810179  24.7244358
  76.9559669  56.0326290  24.8618245  76.0960340  57.0389175  25.5959129
  64.4918966  57.5688219  18.7491226  64.4438791  56.9774485  17.9979885
  64.0003061  58.3433819  18.4759486  20.1105020   0.6771181   3.6087206
  20.7003591   1.2615126   4.0849274  19.2420003   0.8766985   3.9581582
  73.7101793  15.2712011  36.1134887  74.5692921  14.8861766  35.9405327
  73.4053564  15.5711710  35.2571416  31.6910464  16.3062303  56.2078740
  31.2269837  15.7294623  55.6010630  31.3557202  16.0650508  57.0713665
  11.6130731  78.1504345  45.1653147  11.1154935  78.7467051  44.6057558
  11.3924692  78.4188509  46.0572290  10.4995057  63.9689875  11.9847977
  10.2997587  63.4182262  12.7417612  11.0737131  64.6523094  12.3306310
  79.0056038  65.1915264  65.6453609  78.1451130  65.4312992  65.9893036
  79.6233416  65.7035637  66.1673260  70.1113510  70.2118397  29.3518376
  69.2060328  70.5026770  29.2420864  70.3383398  69.8131227  28.5117579
  43.7220532  12.6250426  69.7870978  44.6322543  12.9101150  69.7065081
  43.5920341  12.5017659  70.7273799  38.4319789  16.3811605  67.5795819
  38.5856921  15.4895179  67.8919576  38.1330640  16.8580071  68.3538540
   9.6254578  14.1879301  50.4050684   8.9575949  14.0830069  49.7274351
  10.4539099  14.0353994  49.9505043  46.3179016  22.2412491  12.8353572
  47.2592354  22.4001479  12.9051065  46.0323191  22.8056121  12.1169078
  53.6097145  20.4389238  32.0781398  54.3188810  20.0126195  31.5969086
  53.2547808  21.0806751  31.4629936  73.6819744  46.0753822  42.3903227
  72.8670835  45.6694841  42.0946360  73.4061337  46.7175245  43.0443859
  15.5323312  79.8013973  27.5651073  16.2022970  79.1690493  27.8249550
  15.2135465  80.1655579  28.3909369  84.4294262  70.0017309  43.3725023
  84.5994377  69.0646124  43.4680700  84.6467876  70.1927662  42.4600935
  85.2675915  76.8617582  61.3283157  85.0049400  75.9442377  61.4018297
  86.0960674  76.8360996  60.8495712  74.7860622  77.4534082  39.2103505
  75.0181150  77.9154825  38.4048271  75.5912876  77.0058107  39.4701672
  85.8498383  80.3802586  21.2408161  85.5745506  81.2790012  21.0599422
  86.6480732  80.2658749  20.7250834   8.5623643  34.3590641  55.8612871
   9.3692491  34.5523286  56.3386011   8.7081048  34.7220087  54.9876404
  67.9118586  50.0791788  30.0086427  67.1693182  49.4871187  29.8889375
  67.5160742  50.9473896  30.0847983  17.9735658  76.8183899  34.6319890
  17.5915143  77.5119543  34.0941811  18.4678838  77.2835016  35.3069353
  27.5934449  10.1599245  33.4717679  27.1610871  10.1826410  32.6180840
  27.7731362  11.0781603  33.6737466  12.3184678  55.4452848  13.0043352
  12.2282503  54.6312475  13.4997475  11.5939805  55.4266548  12.3790264
  83.2018512  30.6995611  65.3649521  82.5856822  31.3487749  65.0257158
  82.9257720  30.5575304  66.2704039  16.2557599  46.2186098  51.5312529
  16.5768525  45.4411507  51.0744190  16.0005662  46.8194580  50.8311844
  60.3842497  71.4665508  36.7481852  59.5943022  70.9362698  36.8531251
  60.8739805  71.0312605  36.0503936  42.7160508  31.5235774  67.3138531
  43.3406407  31.4033334  66.5985497  43.1321294  31.1058204  68.0679010
  12.9108045  55.1358938  25.7515168  13.7812612  54.7497797  25.6543040
  12.9307840  55.9147215  25.1954103  70.8990574  46.8199682  40.0588512
  71.5185499  47.5280190  40.2352667  71.3276911  46.0357475  40.4016447
   5.9829614  65.5161238  13.0974054   6.4763162  64.9066496  13.6463785
   6.4208505  66.3582420  13.2211769  24.4153990  75.4125750  67.4315255
  24.6770205  75.5299031  68.3447744  25.1297487  74.9095594  67.0404737
   1.9221017  64.5061636   8.6631334   2.8309915  64.2089939   8.7059808
   1.4691064  63.9880896   9.3284315  63.4989834  52.0983410  41.9965315
  64.2999983  51.8485165  41.5358829  62.8052044  51.6111994  41.5520144
  12.9160497  72.8126431  22.1465993  12.4288080  73.6353779  22.1026754
  12.3505494  72.2258902  22.6487517  43.8112164  78.8199186  19.4453263
  44.0759850  79.6329927  19.8754871  43.1522608  79.0907383  18.8060570
   6.8418596  72.6859760  30.3871393   7.6399228  72.9604244  30.8387971
   6.6806314  71.7973804  30.7043648  59.6733570  64.3558502  34.8838377
  59.5234585  65.0158787  34.2069912  60.4599476  63.8923264  34.5963407
  74.5406914  49.3609047  44.3354940  74.9388885  48.5376549  44.6182108
  74.4539165  49.8734379  45.1392412  38.3325590  68.9964401  58.1353380
  38.4344877  69.1356551  59.0768589  39.0336431  69.5140755  57.7393987
  66.4602423  65.7813931  52.7236223  65.8316708  65.8351803  52.0037317
  67.2641802  66.1605740  52.3684645  37.7461758  22.6701860  44.2909670
  37.6727143  21.9666510  43.6460924  37.2076550  22.3781424  45.0264454
  78.1842041  30.3223324  39.0150166  78.0198336  29.7070909  38.3003879
  78.9575434  30.8125210  38.7359357  72.2528076  66.2156630  27.7807641
  72.3517847  65.2641964  27.7468181  72.6297522  66.4657307  28.6243343
  80.3785474   1.4870421  56.0136117  79.8680551   2.2948281  56.0694696
  81.1976964   1.7499177  55.5939545  78.9327860  48.3546162  44.7986937
  79.4872952  48.8597250  45.3933477  79.4847536  48.1964064  44.0328360
  83.1727505  72.4466658  64.7461700  83.1594467  71.7533636  64.0863323
  83.6371231  73.1697226  64.3245268  74.9104595  66.7142248   4.5175427
  74.8788834  66.2363672   3.6887544  74.8155260  66.0375929   5.1879072
  67.6693392  64.3979788  38.4632063  66.7396164  64.2435122  38.6305094
  68.0142689  63.5396433  38.2172179  60.0092084   4.4678466  63.0764367
  60.9234101   4.6355311  62.8476216  59.6225507   4.1150538  62.2750219
  79.3972635  21.3846135  47.8504944  79.0131617  21.6277361  47.0081234
  80.0943947  22.0255828  47.9897738  86.0627460  46.7159605  37.0409584
  86.5333843  45.8827496  37.0633745  85.4580116  46.6297054  36.3040113
  86.4732265  52.8933239  23.4881067  86.0096455  53.5695839  22.9941440
  87.3050499  52.7873707  23.0265188  38.8211193  80.7311852   1.7646299
  38.7862053  80.6727560   0.8098541  37.9466191  80.4695042   2.0527444
  77.6254892  50.4957056  24.9295592  78.1757736  51.2784576  24.9562025
  76.7732143  50.7910681  25.2499127  56.1097851   0.2585249  17.9726398
  55.5309525  -0.1430388  17.3246205  55.5177632   0.6080465  18.6386538
  65.7546663  59.2689133  33.2299829  66.4216185  58.6544037  33.5362339
  65.6264544  59.8689699  33.9646411   6.1326215  57.7610970  46.8144894
   6.9877717  57.7885056  47.2436666   6.1236474  56.9232559  46.3516998
  69.6172571  64.4162130  19.0124714  69.9779177  63.5711861  19.2809510
  68.6697245  64.2807388  19.0050113  84.7998387  39.7265689  47.6837291
  83.8692147  39.9389426  47.7549042  85.2318627  40.5745570  47.5812091
  80.1579269   5.2019418  15.7007156  79.4862159   5.5511296  16.2864624
  80.2262004   4.2773402  15.9388004  59.5384264  72.2967958  16.3142765
  59.0340090  71.5188980  16.5523362  59.2159081  72.5346231  15.4449928
  74.7634602  62.7734756  32.6607656  73.9138079  62.7542543  32.2203612
  74.8410749  61.9112825  33.0692220  74.1497278  72.9293966  42.4323463
  74.1356993  72.1641922  43.0072355  73.3545542  73.4124947  42.6571798
  78.4909773  63.1525564  36.6318583  78.8371229  63.7989235  36.0165334
  77.8211594  63.6261368  37.1251130  68.5544109  36.2947392  28.2863784
  68.5058689  35.5046892  28.8246107  69.3989134  36.6856885  28.5104465
  17.7723787  43.2156563  56.1559105  18.4191224  42.8024483  55.5838823
  17.0240018  42.6190424  56.1415339  81.0561943   0.9303916  41.8405533
  81.6062355   0.7587442  42.6049042  80.6027126   0.1026573  41.6810656
  69.5668173  76.3217115  19.6964872  70.2685308  76.5340376  19.0810609
  68.8608122  76.9283199  19.4733012  79.0615320  34.2023587   0.5122796
  79.7505617  34.6039510   1.0416168  78.7402248  34.9134660  -0.0420853
  73.8254452  36.1074591  36.2333035  74.3763399  35.7862854  35.5194473
  73.9635611  37.0546412  36.2349010  67.5385094  35.2587819  45.0126553
  67.8654337  34.4279623  45.3577423  66.6007996  35.1134944  44.8868656
  71.9339673  56.2407314  67.6912229  71.9596783  56.2973475  68.6464012
  72.4509732  56.9890379  67.3929344  68.7927961  43.2481289  48.2205391
  68.5169697  43.3531284  47.3099756  68.0171061  42.9104996  48.6683559
   5.8837316  80.9870911  34.9815941   5.0928590  80.4479122  34.9746704
   5.9300611  81.3328838  35.8729458  64.2325306  32.8327465  31.3587666
  63.2876396  32.9370165  31.4707589  64.4590282  33.4416199  30.6557703
  14.1663549  17.9489696  27.6949739  13.3806512  18.1841993  27.2014499
  13.9274595  17.1452975  28.1567883  74.9367666   4.0557489   8.2082367
  74.0192318   4.1470054   8.4652030  75.0825310   3.1103972   8.1722510
  61.4625931  52.0174217  18.1206107  62.0343590  52.7730989  18.2557476
  61.0101128  52.2035217  17.2978961  46.7590711  58.5045671   4.3296960
  46.2491128  57.8023911   4.7335890  47.6501462  58.1579161   4.2844838
   1.4889142  63.5651159  18.0428469   1.2236116  62.7941942  17.5413263
   0.9210965  64.2661095  17.7228189  74.4244862  14.5728624  43.6527729
  75.3395653  14.4778991  43.3884954  73.9411306  14.6241856  42.8281784
   9.2116926  46.2382364  52.0686960   8.7382505  46.9672966  52.4693966
   8.8476560  46.1725998  51.1858559   6.3087842  52.3440981  37.5124741
   6.2936113  51.3966942  37.6482105   7.0442865  52.4890280  36.9172740
  16.3680074  46.7997694  15.8459866  16.0763357  46.1411047  15.2156544
  16.8489740  46.3020754  16.5072024  77.8248072  69.4738674  67.9030418
  77.9181528  69.1102266  67.0225382  77.6327658  68.7164211  68.4558773
  50.7718515  53.3752108  13.2039356  50.5867243  52.4439955  13.3256078
  50.8065748  53.7305450  14.0920591  85.1081657  63.7482357  61.1856604
  84.5337296  63.1966591  61.7167187  84.7884369  64.6384001  61.3326645
  69.4971180  58.4124184  49.6454716  70.2582693  57.9173326  49.9484110
  68.7549162  57.8273439  49.7973251  11.5182200  10.0237493   2.8106090
  10.7077923   9.7214727   2.4006562  12.2044697   9.4957762   2.4025236
  77.5062943  66.8899345  43.0590200  77.9463243  67.2531462  43.8275814
  77.8953218  66.0224390  42.9479599  21.4764116  21.0447955  67.6311636
  21.2423322  21.9693899  67.7121973  22.3675916  21.0530639  67.2819376
  42.4027443  54.5462370  16.8944597  42.5034332  54.6138430  15.9449744
  42.2634363  55.4474783  17.1853125  50.4839118  23.7977088  14.4839416
  51.3273319  23.5476745  14.8612533  50.2001031  24.5471681  15.0073848
  23.3921621  72.1417904   0.6683602  23.7464902  71.5829563  -0.0232961
  23.6907861  71.7348051   1.4816371  75.8265877  62.1626186  46.0861683
  75.5802011  63.0875635  46.0877180  75.1160955  61.7247105  46.5548563
  68.1997442   4.8621428  44.8140812  67.5435400   5.4968178  45.1018667
  67.8091478   4.0097481  45.0066757  65.0802708  32.1729374  23.8929749
  64.8201513  32.7921128  23.2109261  65.3117657  32.7237153  24.6408296
  66.5601587  64.9542570   5.8368158  66.4487362  64.0233612   6.0298175
  67.4278498  65.0138044   5.4370737  67.1340234  32.7527301  65.9663226
  67.0684583  32.7930133  66.9204240  67.9593331  32.2965447  65.8020099
   2.7327440  39.0781474  13.2423568   3.1751439  38.9941955  14.0870237
   2.0168207  39.6918297  13.4069061  78.7237692  78.1436396   9.4659102
  79.1616678  77.2990417   9.5713985  78.6856318  78.5058689  10.3511035
  86.1313248  42.8193378   9.1383630  85.6632137  43.5904694   8.8182652
  85.6176853  42.5219584   9.8893392  69.8575783  18.8735092  54.5720339
  69.6152258  18.7773359  53.6510324  70.3309298  18.0680835  54.7805071
  81.5296650  47.7657604  21.0438800  80.6225681  47.5632620  20.8149481
  81.4892006  48.0452013  21.9584870  23.5825441  51.6097975  16.1822701
  23.1926439  50.7502985  16.3418770  23.9967439  51.5290928  15.3231108
  59.1301052  77.5145471  67.9017525  59.6102993  77.7170670  67.0988633
  58.2154004  77.6962769  67.6860674  -0.3499797  17.6251698  28.6890483
   0.2787778  16.9147885  28.5615706   0.1770303  18.3566499  29.0106440
  62.5451612  49.1519213  67.2254086  62.3578262  49.4847918  68.1030989
  63.4528875  48.8517332  67.2717953  79.4598770  44.5279026  17.1276045
  79.9180317  45.2059698  16.6310644  79.6417284  44.7377300  18.0436480
   2.1261880  60.6986141  15.4512322   1.6826627  59.9880695  15.9145260
   2.9491327  60.3122663  15.1516771  21.3997266  24.9069929  40.5607414
  22.2594640  25.2470160  40.8086681  20.8419225  25.6829429  40.5061674
  15.4432199  62.6159048  13.6270583  14.4873521  62.5780869  13.6605072
  15.7214734  61.7023134  13.6915553  68.5369492  18.5353136  35.7867527
  68.5183954  17.6508749  36.1523414  67.7690268  18.9659131  36.1623955
   9.6906278  70.9045792  39.1699767   9.0104387  70.2344513  39.1028070
  10.0722024  70.7724047  40.0378275  79.4328880  67.9665470  26.7203665
  79.0219736  68.3493137  27.4955273  78.7168407  67.5263453  26.2624002
   3.5220620  29.8093390   7.1878624   4.1694257  30.3561616   6.7427492
   2.9450700  29.5034981   6.4880240  56.6548300  27.6822639  27.1797204
  56.1735296  27.4174094  27.9635787  55.9881878  28.0584979  26.6050339
  25.5730913  36.3723230  10.9627044  25.1796434  36.0300040  11.7653561
  25.1344869  37.2110367  10.8197820   7.4698636  75.2358198  25.2654290
   6.8275831  75.4313803  25.9476805   7.0809743  75.5845737  24.4633269
  68.8280821  25.0231194  23.2592130  68.4293461  24.1668606  23.1040859
  68.0863953  25.6084824  23.4124684  25.4417608  73.8383293  21.4678526
  25.7511518  73.3817053  20.6855464  25.4627416  73.1742001  22.1568537
  63.8282061  29.2621350  45.6573677  63.8475609  28.5100222  46.2491322
  63.6088324  28.8894391  44.8034382  73.5013914  13.9949298  40.9955072
  73.3226490  14.4482505  40.1716232  74.1689825  13.3463645  40.7720804
  20.0588415  76.0785866  32.2617579  19.9029062  75.1351452  32.2189450
  19.6708581  76.3479376  33.0943131  13.5212625  46.3227331  43.3690824
  13.0049480  46.5657532  42.6005806  14.1302217  45.6576871  43.0479707
  14.2745111  25.1668668  24.5283580  13.7935064  25.9944320  24.5256782
  14.9574849  25.2889347  25.1878023  31.7999990   7.5144450  66.9493340
  32.7078397   7.7523438  67.1376638  31.4537103   8.2601945  66.4592617
  47.1518857  33.3513276  62.4462177  46.9077689  32.6873700  61.8013920
  46.3858087  33.4256093  63.0152889  30.9184755  76.1924135  69.3918976
  30.6213774  77.0988309  69.4717354  31.8499674  76.2256109  69.6097058
  78.7377071  72.1411180  16.8895578  79.1314983  71.5452194  16.2523246
  78.2408047  71.5705252  17.4758506  77.2361326  73.2468653  66.0141850
  76.5809441  73.2465887  65.3163624  78.0373049  72.9387283  65.5906248
  15.3553865  20.1401186  28.5906911  15.0394151  19.3212032  28.2088971
  16.2662313  19.9601018  28.8234735  69.3607759  66.8596125  23.4077954
  69.8661375  66.6184187  24.1841102  69.9506140  66.6853094  22.6743507
  86.5848351  60.4998350  31.0148597  86.1863804  59.7126818  30.6435704
  86.4088058  60.4373789  31.9536591   2.9318521  50.7379007   9.8791748
   3.2860372  51.2460232  10.6089675   2.1641443  50.2977705  10.2440584
  86.2985706  48.4177780  31.0674691  86.5400982  48.0431795  31.9145632
  86.8071461  47.9164267  30.4301095  13.9495180  44.8122311  51.8731928
  14.5083234  44.1284370  51.5038824  14.4178293  45.6274176  51.6932297
  83.1092167  52.6349974  26.0048366  83.5522079  52.1339226  25.3200626
  83.6919880  53.3750010  26.1751509  60.2720833  68.1156445  28.1563544
  60.5940962  68.3163309  27.2775674  59.7646761  68.8874388  28.4075594
  71.0499532  29.1756551  67.0848738  71.3092954  28.2970159  67.3623036
  71.2626512  29.2048280  66.1520626  63.6339426  73.6855459  16.0854769
  64.5615625  73.8660288  15.9332359  63.4747171  73.9878559  16.9796193
  72.9048014  54.5748568  14.3609667  73.1745911  54.4117737  15.2647638
  72.8703737  53.7059975  13.9608014  38.9652291   2.2587423  53.0624008
  39.1607228   2.3184996  52.1272850  39.7775879   2.5229101  53.4942770
  78.5194152   8.1211786   6.1416143  78.3918469   8.9752512   5.7286870
  78.1480306   7.4962168   5.5189300  71.1609507  62.4496651  51.7925167
  70.2483177  62.1621466  51.8181801  71.1759281  63.1403732  51.1299992
  15.5134199  59.1001511  49.3613863  15.3757951  58.7289572  50.2328825
  15.5984495  58.3388186  48.7874746  83.6212676   2.1733122   2.1831343
  84.4811099   1.7654352   2.0804140  83.0041211   1.5145807   1.8646462
  62.4815328  25.7587831  60.8875777  61.8812806  25.8279626  61.6299697
  62.0412786  26.2282579  60.1790561  20.6652830  61.6801643  18.5243094
  20.6107709  62.1753597  17.7069712  19.9016759  61.1032629  18.5062075
  66.0650492  46.1736965  40.2833605  66.8244743  45.9525442  39.7442865
  65.7362795  45.3293276  40.5918837  79.1901588  59.2808247  39.6675014
  79.0506029  59.1243601  40.6014585  80.1238823  59.1176462  39.5342135
  85.7365567  56.8100230  47.6203384  85.1022489  56.9613044  48.3210530
  85.3194291  56.1589591  47.0561184  62.4195576  52.1088839  60.3000975
  63.1328201  51.6260910  60.7177114  61.6847897  51.4954233  60.2968597
  17.5853250  81.5501118  33.7637830  17.9536054  82.0642662  33.0452800
  16.6731260  81.4059067  33.5121179   3.3623407  49.7771883  29.9881029
   3.1490991  49.0851021  29.3621802   3.0247781  49.4561863  30.8243108
  78.8857930  15.4776506  31.0437822  78.7427991  15.2664976  30.1211786
  78.1120532  15.9811048  31.2969708   9.5560644  82.0919323  25.2237725
   9.4430826  81.6243649  24.3962145   9.1445825  81.5258503  25.8768153
  41.2587777  11.5276175  18.9087379  40.5522957  12.0598154  18.5428381
  41.7706337  11.2532072  18.1478667  85.7933576  16.7646997  70.2971401
  85.6609399  15.9047524  69.8981624  86.7443044  16.8605725  70.3495026
   9.5957626  70.3305876  51.6183926   9.1138185  71.0482180  52.0294465
   9.7919430  70.6478107  50.7368507  30.0743387  76.5176725   0.5705307
  29.1557405  76.4418745   0.8287072  30.2736280  77.4491072   0.6650648
  85.7358265  54.1514683  40.1752806  86.3330936  54.0453291  39.4348454
  85.2262592  53.3413172  40.1900101  20.5326745  64.7932673  18.6761034
  21.4045141  64.4654322  18.4555209  20.5968282  65.0429201  19.5979440
  13.7584963  14.2116480  31.3800907  14.1654244  15.0668936  31.5186596
  12.8192606  14.3772726  31.4615417  17.6647088  43.4451962   0.6206745
  16.8002984  43.3120394   0.2317254  17.9998777  44.2343426   0.1950670
  39.1052110  16.9876782  52.9724337  39.5473964  16.8451087  53.8093187
  39.2373092  16.1717479  52.4896933  62.2166904  38.2425416  11.3985859
  61.6888030  38.4619010  10.6308303  62.5198634  39.0877307  11.7302166
  12.2750893  10.8638506  33.5885906  13.1815567  10.7295160  33.8651776
  12.3348275  11.0406141  32.6497507   9.6607396  79.2246771  16.9849515
   9.0402315  79.8825741  17.2985923   9.1888807  78.7609386  16.2931955
  47.6128426  19.1829519  26.4406538  48.2966080  19.7050505  26.0210013
  46.8348828  19.3303995  25.9028244  32.5616303   3.7057333  29.7333789
  32.0400944   2.9293661  29.5296693  31.9151821   4.3931322  29.8940468
   2.3705057  27.3039405  54.0925266   1.9936804  26.7350499  53.4212603
   2.7570776  28.0294530  53.6021926  15.1999242  63.6218707  69.6190484
  15.0414569  64.0642993  68.7851593  14.9331004  64.2583053  70.2823585
  13.3566568  79.7896814  24.2733788  12.9719064  80.5463314  23.8310289
  12.8782461  79.7267008  25.1000476  75.8125257  78.9159107  14.4710910
  75.7438755  78.3287430  15.2239203  76.3553810  78.4384918  13.8437033
  27.5010679  76.4880943   1.7622228  27.6017949  75.9535694   2.5498581
  27.3407647  75.8552599   1.0621805  53.2927933   0.9529238   3.8741836
  53.1325283   0.0653295   4.1947085  52.4196568   1.3305502   3.7680745
  61.6961518  19.3733911  26.8632078  61.7441597  19.8881464  26.0576320
  62.3419609  18.6774282  26.7415762  58.7183991   3.0892019  28.5085583
  58.6483517   3.4839754  27.6393747  57.9944458   2.4641733  28.5467839
  24.0351865  78.3716154  18.3733845  23.6523912  77.7865934  17.7195883
  23.3535573  79.0224504  18.5407698  32.5707229  19.2726863   2.8964506
  32.3823818  18.4573663   3.3612190  33.4028562  19.1087068   2.4527202
  57.0313644  18.6763692   6.4180923  57.2629786  18.0783701   7.1287143
  56.2000608  18.3400238   6.0833800  23.7211759  78.8736798  22.4002576
  24.5654065  79.2848320  22.2146297  23.9283807  77.9478000  22.5269246
  72.8977680   8.5281956  40.6130934  72.2593880   7.8316849  40.7666445
  73.4864569   8.1711870  39.9480963  57.4827051   4.5756590  21.1305761
  57.7612877   5.4156929  20.7659292  56.7382479   4.3143645  20.5886006
  85.6696892  42.3685360   5.7942665  85.4354572  43.2943201   5.8597815
  86.4376926  42.3556232   5.2230942  27.9892404  72.1562196   3.2032418
  27.8896148  73.0352027   3.5688847  28.7583835  71.7981882   3.6464909
  52.6648521  15.0433934  14.4682610  51.7658949  15.3529954  14.5789623
  53.0483055  15.6445980  13.8297069  43.2271106  77.0231284  22.1463704
  43.1407554  77.7745916  21.5597892  42.4263865  77.0353187  22.6707053
  79.5547247  41.7185259  17.8627551  79.2717838  41.7693996  16.9497442
  80.4984379  41.5663671  17.8129268  76.3565881  80.7428345  32.8905320
  76.6029984  80.1352802  32.1931171  76.0431725  81.5214011  32.4302745
  38.3799941  77.4930854   7.3513436  38.4379394  78.4279628   7.5485200
  37.5098950  77.3826380   6.9679910  70.0408506  15.3067577   4.0507621
  70.6668282  14.7308707   3.6117467  70.0073099  14.9823570   4.9506909
  47.6703978   7.4288136  28.4782767  47.5067902   7.3011464  27.5438452
  48.3150482   6.7576909  28.7024474  73.5146904   1.1913055  22.2326970
  73.2695770   2.0913380  22.4473906  73.3922625   1.1292097  21.2853909
  67.4765635  28.2376647  45.4816580  67.6868963  27.4341106  45.9573555
  66.9281340  27.9478478  44.7526407   3.1296728  11.8862164   7.3486406
   3.5325239  11.8909180   8.2169259   3.5478017  12.6128411   6.8866712
  17.0332438  66.8530483  17.3590028  17.3030765  66.8987162  18.2762468
  16.1831243  66.4136751  17.3810184  66.4319849   7.8188336   0.9199689
  66.7231655   8.2292908   1.7341983  65.9881067   8.5203809   0.4434852
  41.6031653  57.6872010   1.6628185  42.0797259  56.9542308   2.0525286
  41.8290860  57.6526661   0.7333038  86.4703560  10.6872725  35.0981665
  86.6809750  11.3254452  35.7797885  85.5641460  10.8821774  34.8593545
  78.4196622  39.3407841  11.9082439  78.1409890  39.5217104  11.0105574
  77.8445966  38.6331959  12.1995413  12.5486578  40.6765130  71.1506607
  12.1011414  41.4238937  71.5473748  12.3260702  40.7298274  70.2212286
  18.1371696  51.0970302  25.9159565  18.4301383  50.2204175  25.6670523
  17.7975757  50.9926910  26.8047881  25.8547313  78.4954761  27.8172827
  25.1884086  78.8766594  27.2454906  25.6606252  78.8538904  28.6833620
   1.2438406  45.4525983  64.8894288   1.1711754  46.2432152  64.3547549
   0.8705105  44.7598129  64.3445398  62.9044676   4.1011930  13.2431304
  63.4184790   4.6682689  12.6682842  63.4131861   3.2922846  13.2988596
  13.3369977  65.0456018  40.7333994  13.7088115  64.8003860  39.8861337
  12.8654534  64.2646046  41.0230923  37.6367957  67.8508503  20.6799912
  37.3028190  67.9511364  21.5714121  37.4376828  68.6847849  20.2543879
  55.4816866   4.0039569  19.4674051  55.9435415   3.9317253  18.6321175
  54.5557928   4.0378773  19.2269886  81.6162205  46.3955832  30.3686786
  81.5424824  46.3080025  31.3190079  82.0046329  47.2605085  30.2372837
  47.3567349  73.8926716   8.5987639  47.9799659  74.6166320   8.6595297
  47.8575189  73.1223531   8.8671899   7.9999763  75.0673474  34.4420695
   8.5606701  74.5998890  33.8229275   7.1152503  74.9585832  34.0932679
  49.5727784  81.8716924  54.7186089  49.9732930  82.6094959  55.1784658
  49.1085870  81.3873763  55.4013920  75.5796289  10.4451680  17.9965520
  76.2465143  11.0479212  18.3254611  75.6301785  10.5284894  17.0443261
  39.5881993  70.1925297  32.2678399  38.8903863  69.5587177  32.1017909
  40.2514798  69.9974210  31.6058517  74.3943882  20.9145737  26.2126923
  74.2382336  20.3388715  25.4640841  75.2377939  21.3269043  26.0259151
  62.5502443  25.3242517  11.0314488  62.6824951  26.2714028  10.9908843
  61.6078520  25.2193904  11.1623394   7.0157845  65.3677161  49.8969412
   6.4990146  65.6294568  49.1349220   7.2622187  66.1931772  50.3142118
  27.9418284  75.2706511  55.3363276  28.6452157  75.9102262  55.4477787
  28.1525142  74.8233135  54.5167351  75.8889246  10.4922664  14.9283051
  76.8019152  10.2563560  14.7639072  75.7802343  11.3415968  14.5004523
   6.9103683  38.1127494  64.3394091   6.7594446  37.2239896  64.0176024
   7.0665850  38.0044904  65.2775492  47.3090846  78.2650183  37.0478821
  47.6651866  77.4449675  37.3898435  46.9370896  78.7024139  37.8137374
  12.9611547  60.9099097  12.6289439  13.1008965  60.0105996  12.3323894
  12.5889594  60.8177872  13.5059941  57.8534842  29.4821548  19.9793577
  58.6394072  29.8478007  19.5733273  57.5625181  28.8038087  19.3699193
  65.7390165  15.0353658  34.0043831  66.1147594  14.2332673  34.3672729
  64.7961807  14.8712015  33.9859986  20.3775692   3.5831982  15.3500497
  20.4775238   2.7745447  14.8477352  20.6666827   3.3538255  16.2332451
  31.0831356  42.5587511  20.4989457  31.4797473  42.0083714  21.1742353
  30.1497841  42.5631809  20.7112312  48.3996398  79.2142544  39.7615290
  48.3414657  79.5947085  40.6379414  47.6059443  79.5129229  39.3175983
  82.7265612  18.5609781  69.5231305  83.2251708  18.0404436  68.8933148
  83.1587235  19.4150674  69.5233773  13.1870038  79.0804766  21.4147973
  13.1297166  78.3571781  20.7904673  14.0894944  79.0517620  21.7324662
  31.0437536   3.0026981   5.5964434  31.0241032   3.0778885   6.5504831
  30.9334660   3.9004141   5.2831149  59.9993474  71.8869205  39.7429061
  60.1386697  71.5348322  38.8637853  60.4797704  71.2916083  40.3182507
  31.6280801  70.3028483  33.6023259  31.4791209  70.8522172  32.8327560
  31.4600665  70.8816619  34.3459511  48.2073689  15.5873227  16.3643169
  47.6019669  16.2438869  16.0198653  48.1113148  15.6481886  17.3147380
  85.7096958  33.9354205  38.5220909  85.5305004  34.5275569  39.2524981
  84.8487759  33.7508440  38.1466269   9.2416475  15.4148209   1.2735666
   8.7022397  15.9178841   1.8836422   8.6628435  15.2377164   0.5320486
  23.3233315  71.8929155  50.2794266  23.0019910  72.6448150  50.7770395
  23.5512597  72.2527273  49.4222116   1.4425752  29.9427342  20.7704282
   1.5067575  30.8499169  21.0689759   1.7476842  29.4235706  21.5144777
  82.5330639   8.6097890  37.5757885  83.2899570   8.0810338  37.3232841
  82.6268291   8.7260997  38.5212588  79.5033789  20.6871057   5.7569385
  78.9718246  20.2352500   6.4123076  79.0432549  21.5121841   5.6027842
   9.2828907  64.3207037  57.2373392   9.5106901  63.4722435  57.6174094
   9.7342171  64.3340051  56.3933231  51.7076445  41.2918425  57.9927635
  51.4330959  41.4194679  58.9008188  51.0016775  41.6759539  57.4728584
  51.7591531  79.5668463  34.1889811  52.1510465  78.7342868  33.9253545
  50.8664281  79.3396435  34.4490886  65.3240926  74.7654696  37.6033735
  65.8394486  75.3765459  37.0768547  64.4224984  74.8984416  37.3106480
  71.0065142  22.2682356  57.8346040  70.8358781  23.1006109  57.3938467
  71.4403073  22.5143468  58.6516024  27.4524409   7.4656407  40.7865252
  26.7223317   7.9773681  40.4382386  27.0479018   6.8691842  41.4164557
  37.8514017  71.2379562  64.7155519  38.4540857  71.7773640  64.2036464
  37.0524134  71.2063205  64.1893961  53.0043602   4.4898266  18.1683564
  52.0821142   4.6386403  18.3770287  52.9988956   3.7280655  17.5887692
  73.6969519  32.9171705  18.9301550  73.4286594  33.7474275  19.3237603
  73.7594032  32.3111939  19.6684813  25.8569455   3.3354941  48.3240652
  25.2844286   4.0890670  48.1805992  26.0662866   3.3680215  49.2575264
   2.7201475  30.6736230  60.7893242   3.1195320  29.9276554  61.2368222
   2.2976793  30.2928948  60.0193872  83.3305740  38.0819440   4.3609816
  83.0646420  38.5379791   5.1594466  82.6514626  38.3005500   3.7228215
  67.0395899  16.7202234   5.7546455  66.1304569  17.0073843   5.8397967
  67.3218203  17.0664203   4.9080491  14.6897656  60.8270164  18.5658574
  14.8003871  59.9056120  18.3313215  15.5805833  61.1763496  18.5911465
  79.9987427  48.2178884  55.9582188  80.6952778  47.6477217  56.2837579
  79.2832581  47.6209133  55.7392778  77.7238042  78.6262999  34.5915771
  77.0067460  77.9993115  34.6861506  77.2938687  79.4478060  34.3538642
   9.3970789  69.4861257  55.1777222   9.6904959  69.0707004  54.3668224
  10.1224388  70.0573575  55.4302718  56.0226972  79.5648715  21.4102268
  55.4769475  79.9058819  22.1188164  55.5832536  79.8522885  20.6099057
   7.4625887  52.1579921  70.4863959   7.4855722  52.4238908  71.4056357
   6.8085922  51.4597427  70.4553189  40.8300543   9.1526419  43.8945103
  40.2747011   9.2806268  43.1254673  41.7179632   9.0943736  43.5417318
   7.9022596  53.9420938  32.3803091   7.3260019  53.3230352  32.8285670
   7.3533723  54.7106838  32.2246814  81.9123513  71.5738542  28.8727069
  81.1642701  71.9969804  29.2941070  82.4359757  72.2984524  28.5306478
  10.7907118  80.5125939  62.8797944  11.3531603  81.2192857  63.1967660
  11.2596525  79.7109782  63.1116046   9.6512506  14.6303391  17.3647106
   9.4735238  14.6531391  18.3049893  10.1249597  13.8095021  17.2303307
  49.3864584   5.1036209   6.2412643  48.6592722   5.4809833   5.7462579
  49.1931295   4.1667256   6.2741864   3.9491565  66.1394615  11.5638971
   3.7767369  67.0770438  11.6501677   4.7840316  66.0071440  12.0130146
  67.7213764  32.4395847  16.8855059  68.4122086  31.8407440  17.1690047
  67.8784943  33.2404590  17.3856521  38.0705118  34.5886517  11.2792528
  38.2836533  34.7344899  12.2009540  37.4813819  35.3083134  11.0528803
  68.2119703  -0.1140626  39.9590445  67.6368380   0.3128026  39.3240333
  68.9305258   0.5054963  40.0857544   0.3963373  38.0720258  31.3221335
  -0.3235343  37.7893543  31.8861532   0.4792211  39.0104246  31.4917493
  73.7712145  33.9224195  62.4108601  73.0153942  33.7976551  61.8369246
  74.2048931  34.7043610  62.0692205   1.2894342  41.8247652  10.6719208
   0.8131502  42.4820709  10.1646447   0.8858678  40.9927511  10.4247034
  67.2785902  20.4475355  10.8327019  67.4043369  20.0013590   9.9952376
  66.6674900  19.8884881  11.3125455  49.5465381  65.8459694  20.4129910
  50.4228837  65.4805846  20.5344009  49.1076238  65.2268751  19.8296320
  83.9864349  12.5380337  25.4963255  83.5289097  11.8994355  24.9494362
  84.8021603  12.1018445  25.7424355  61.7734575  32.7397013  27.6433110
  61.0651970  32.1057105  27.7558303  61.4194822  33.5584044  27.9906654
  51.3006646  81.4504204  32.1761036  52.1139390  81.4478365  31.6713166
  51.4572484  80.8274286  32.8857470  56.1622715  18.4913337  21.9911790
  56.7971849  19.2067087  21.9543695  56.1264849  18.1565154  21.0951614
  51.6681385  14.3407905   2.5030249  50.9966183  13.6586773   2.4994926
  51.1757565  15.1615715   2.5136569  86.2306706  35.0549501  63.0709036
  86.7589156  35.6337750  63.6205842  85.3324095  35.3619903  63.1937369
   4.7819168  74.8632551  17.2144687   5.3909308  74.8738809  16.4760780
   4.0885717  74.2611046  16.9444299  24.2550275  24.2443395  41.1400890
  24.6497724  24.0644622  41.9933462  23.6879823  23.4910655  40.9749317
  69.7310972   4.6221578  52.0429420  70.1148367   5.1440597  51.3382483
  69.0348101   5.1745850  52.3982477  10.7656056  52.5366182  48.0891943
  11.1871583  53.0060239  47.3693466  11.1966044  51.6820498  48.1028271
  82.8890133  26.1737585   9.0825754  83.3911228  26.7229342   8.4804755
  82.9976845  25.2852321   8.7435430   4.5207784  12.9790890  23.6503410
   4.5868966  12.9854882  24.6052337   4.1348932  13.8272262  23.4312868
  70.6561486  72.5123369  36.5170588  71.2296120  72.9656493  35.8990945
  69.9749581  73.1518375  36.7250194  31.6315324  77.4958257  15.0898850
  31.7438275  78.3165307  14.6102345  30.6993587  77.2951199  15.0062025
   3.0721790  66.2560244  14.4154012   3.6221249  65.6766362  13.8880479
   3.6787731  66.6666729  15.0315535  50.5837590  74.2611034   1.5261900
  50.9184415  74.9706299   2.0746356  49.6510560  74.2154141   1.7364481
   8.8893808  38.2771173  58.3047249   8.9545168  38.8981437  59.0302004
   8.2596983  38.6757262  57.7040233  51.6930389  25.5637193  26.0560632
  50.8075285  25.7954860  26.3360381  51.7205191  24.6087098  26.1146879
  20.0334085  74.7793853  40.1407470  20.9587969  74.9994576  40.0337328
  19.6484722  74.9370539  39.2786564  43.0251884  17.0927691  23.6905265
  42.2209358  16.6939473  24.0227056  43.2312298  16.5937686  22.9000950
  24.9128911  30.0886512   8.9959276  25.7836816  29.8513365   8.6771160
  24.9811647  31.0194087   9.2086691   7.9576394   3.6207750  37.6248050
   8.6432359   3.2985073  38.2099032   7.5087068   4.2973602  38.1316757
   9.4972131  10.7808769  31.6194987  10.0754545  11.3269520  32.1521020
   9.5159051  11.1866152  30.7527494   6.3747022   0.3293779  38.5036302
   6.0594270   0.3950903  37.6022363   6.0805127  -0.5326036  38.7980318
  62.1509981   7.6210666  15.8234119  62.3122120   8.0200350  14.9683881
  62.9413271   7.1117562  16.0029066  80.1576328  36.7610621  54.6523619
  79.4225311  36.1564159  54.5510483  80.9331894  36.2003255  54.6345615
  68.2665110  14.8007989   1.7746587  68.8719940  14.7980988   2.5160202
  68.5624647  15.5274355   1.2263513  27.6503751  16.2323117  43.5913229
  28.3599660  16.7659295  43.2336235  27.9866693  15.3365767  43.5631371
  37.0750625  77.5942535  34.2168951  36.6111333  76.9692327  34.7739911
  37.9274232  77.7040674  34.6383834  62.0690441  15.5729318  17.2142041
  61.6399479  14.9931300  16.5849686  62.8669691  15.1068711  17.4638653
  69.1903687  16.4919353  16.3561094  69.6729517  16.5139949  15.5297565
  68.3451414  16.1039710  16.1295855  64.6373803  76.0931815  17.5199747
  64.6521623  76.4543546  16.6336524  65.5588204  76.0461153  17.7748287
   4.2772386  34.3220735  25.9914136   4.8580358  35.0373220  25.7319379
   3.4150979  34.5846176  25.6689119  74.9624348  44.4951439  34.6925163
  75.1700687  45.2850056  35.1917553  74.3795538  44.7981453  33.9963317
  77.0626020  32.1118283   4.2803758  76.7341757  32.9346848   4.6426934
  77.9503393  32.3167729   3.9868641  73.0989456  11.5451694  12.5456655
  73.4108353  11.4949894  11.6420960  73.8126087  11.9692683  13.0221772
  33.9796741  79.4414638  29.2559338  33.2572991  79.3663509  28.6324191
  33.9466054  78.6283420  29.7598910  70.5724525  23.6984968  39.3477225
  70.3392315  23.5888624  40.2695799  71.1027098  24.4951558  39.3279219
  18.5580648  72.7890646  63.8447316  19.1834988  72.7958333  64.5693143
  17.8308500  73.3309185  64.1509725  33.8039500  20.1985185  62.8558405
  33.9537293  19.2548768  62.9136618  33.1986243  20.3892962  63.5723694
  42.2993094  53.4982986  23.5220575  42.4409635  52.5517173  23.5342979
  42.9735906  53.8489265  24.1039848  32.9949832  30.2737927  34.1278172
  33.7725830  29.8485923  33.7661862  33.2722783  31.1736178  34.3000245
  24.7992227  25.0233746  44.1010237  25.4202840  24.3831635  44.4483709
  24.3384263  25.3530478  44.8725271  17.3083121  74.7252406   3.0891722
  18.2129199  75.0381542   3.0896798  16.8211514  75.4001511   3.5618261
  71.5298700  31.2717152  32.6255274  72.2444010  31.2595320  33.2623386
  70.7348490  31.2266803  33.1567001  64.6461725  19.8013842  11.9254708
  63.7501192  19.4675720  11.8820119  64.5625925  20.7366967  11.7399025
  55.9042740  22.6543856  22.5332165  55.6897926  23.0120659  21.6716528
  55.9452105  21.7079282  22.3961997  47.9649258  49.5235157   0.1750310
  47.1733046  48.9857101   0.1567552  48.6839437  48.8917017   0.1677688
  54.5068550  11.1106825  11.4380658  54.5763063  11.5036952  12.3080945
  53.9473820  10.3445041  11.5653181  76.5306950  33.9880228  51.1613417
  75.5838490  33.9419556  51.2939739  76.7325401  34.9229598  51.1984968
  48.5415077   2.6974529  47.2602367  47.7245855   2.3167360  46.9378710
  49.2069626   2.0380333  47.0638418   7.5125606  72.2720392  18.6103964
   7.5556738  73.1205351  19.0513361   6.7626435  71.8319566  19.0106273
  16.3434503  17.1100843  26.2351513  16.2463186  16.1578465  26.2289381
  15.6161592  17.4215186  26.7739344  19.6106774  81.8825138  44.9017286
  19.0013129  81.9510491  44.1667366  20.1662738  81.1343067  44.6832514
  67.9108143  21.2100506  25.7748127  67.5335503  20.7191372  26.5048170
  67.3931885  22.0141840  25.7340121   0.1794145   9.9679106   9.6875530
   0.4237745  10.6426477   9.0541112   0.9541795   9.8666120  10.2404594
  68.3878469  12.8838265  39.6499014  67.9577589  12.1514463  40.0913477
  69.1272449  12.4857414  39.1904974  53.8713598  20.4210639  16.9623005
  53.9077854  20.0584817  17.8474212  53.3499050  19.7900057  16.4662349
  56.5619659   6.8737578  22.8576541  57.4527454   6.5308207  22.9293108
  56.0096788   6.1850053  23.2275629  10.3956315   8.1933743  33.4355044
  10.9271047   8.9844882  33.3465648  10.7187269   7.6093888  32.7493525
  55.9386826  34.9445200  18.2672656  56.0066271  33.9952588  18.3698237
  56.6394472  35.2955604  18.8167453  38.6838831  54.5771432  66.8918695
  38.7069143  54.5396638  65.9356810  38.3419050  55.4491162  67.0892181
  71.3150978  24.7031879   6.7579764  70.9594774  23.9337277   6.3133401
  71.5018082  24.4011831   7.6468885   9.7137067   5.7935327  21.5391374
   9.1491029   5.7104534  22.3076105   9.7489068   4.9105710  21.1712098
  27.2651727  58.5731764   6.3429713  26.9110734  57.9088206   5.7518077
  28.1861884  58.3343430   6.4475083  74.5026207  50.3426933  13.8205850
  73.8016129  50.9121037  13.5034204  75.2969265  50.6936550  13.4179223
  48.4964377  69.5966406  39.4538784  48.6178071  69.6558149  40.4015064
  49.3103988  69.2093129  39.1318846  43.1515074  14.3092811  56.9083738
  43.1363153  13.3883381  56.6478682  43.7150431  14.3301380  57.6818228
  13.4282412  64.7129285  63.9801510  12.8552498  65.4732310  63.8808842
  12.8691687  64.0409743  64.3702068  78.8688803  17.3018563  12.4105215
  79.4602633  17.9887164  12.1027601  78.6455297  17.5609493  13.3045101
  61.6619110  27.6374507  19.7341275  60.9399366  27.0785666  19.4466710
  62.1641636  27.8086042  18.9374578  58.7136514   7.2155921  61.7487760
  59.0337522   7.2046678  62.6508011  58.0126531   7.8673808  61.7512663
  87.2701851  61.5766894  60.7464899  87.0944707  62.3436486  60.2013935
  86.4172093  61.3422143  61.1121263  65.0760651  19.3734825  14.8214865
  65.7686234  18.7198281  14.7249138  64.9118423  19.6818841  13.9303350
  37.1775556  12.2086823  33.6578393  36.5804529  11.4637959  33.7274528
  37.4994659  12.1742380  32.7570510  76.8331099  31.7378283  21.6654134
  76.5928221  31.3242197  20.8363056  76.7196274  31.0478115  22.3190427
  65.7053137   0.7781469  38.7250996  65.4717064   0.4283069  37.8652906
  64.9267244   0.6325296  39.2625308  58.2133920  69.7407587  37.1186733
  58.0660493  69.3511791  37.9805017  57.3603589  70.0943871  36.8666720
  47.0616061  77.4404649  29.9185681  47.7884109  76.8176020  29.9129391
  47.3303325  78.1276192  29.3087840  41.9013173  75.8680136  33.9601421
  42.1218020  76.7888339  33.8197589  42.6935870  75.3915269  33.7121439
  71.4318848  28.0384421  41.9444895  71.3692617  27.9337716  42.8938866
  72.3487997  28.2645822  41.7884207  75.2132893  26.3500810  70.1097202
  75.5611467  25.5516028  69.7126532  75.9577370  26.7291594  70.5769825
  77.9493856   3.4173542  52.8865433  78.7978506   3.0758885  52.6041508
  77.9877090   3.3932525  53.8426733  53.3268506  68.7591763  49.8506403
  53.4052999  68.4704847  48.9413929  52.5667626  68.2849987  50.1877594
  15.1200730  58.1749721  17.6356781  14.8411996  57.4680610  18.2176888
  16.0053451  57.9290600  17.3672628  35.2748693  74.7535145  69.4354752
  34.6802439  74.0059435  69.3739496  34.8007120  75.3936588  69.9661584
  49.8291833  77.6846237  27.9832745  49.4965322  78.5751049  27.8709364
  50.0383431  77.6228808  28.9152980  29.7872591  39.5126700  31.4739656
  29.3346763  40.0240993  30.8032656  29.5358801  38.6066604  31.2945580
  -0.1074507  24.0048003  44.9358845  -0.5947688  24.3019915  45.7042837
   0.7411096  23.7289095  45.2823782  49.6227503  38.8597536   9.3669879
  48.6835527  38.9026237   9.5467198  50.0113392  39.4924378   9.9710923
  41.8161392  18.6930573  44.4574738  41.0550642  18.8209534  43.8912201
  42.2257662  17.8919637  44.1308498  66.3549614   8.2006419  27.1847677
  67.3023367   8.2175779  27.3205018  66.0215187   8.9097017  27.7345705
  34.1558463  75.0205131  24.2119193  34.9987895  74.5823748  24.3290067
  34.3087012  75.9173675  24.5094395  51.3446767  62.4445255   4.5841861
  50.4713161  62.8349562   4.6163464  51.9282586  63.1372447   4.8937201
   6.6568119  81.4084264  21.7653394   6.1132485  80.6207256  21.7480826
   6.1524636  82.0361708  22.2828364   2.8624341  12.8360975  50.1263714
   3.2917783  13.3797264  49.4657898   2.1689508  12.3812783  49.6484041
  85.2012444  22.3663640  15.2731204  85.7635880  21.6121292  15.0966704
  84.4146919  21.9912410  15.6691563  51.0354853  10.3606272  17.2359550
  51.5539503  10.8786905  17.8516150  51.5606308  10.3433716  16.4358568
  71.3190699  32.3616719  15.8006454  70.7036018  31.8682194  16.3428032
  71.0643673  32.1557641  14.9012232  38.3871770  47.9233408   9.4257128
  38.3128905  47.7973604  10.3716731  38.2782984  48.8660288   9.3003517
  34.5282371  67.0346661  23.6383104  33.6819465  66.9906588  23.1932378
  34.4697053  67.8165216  24.1874075  55.6641252  80.0355267  34.0601087
  55.7647092  79.1416420  34.3873477  55.9212262  80.5904858  34.7964191
  13.3126638  34.2238069  58.0676746  13.8572976  34.9738169  57.8287363
  12.4239442  34.4875097  57.8291893  76.5936613   9.3980688  40.7576370
  76.3711929   8.9290237  41.5618372  76.1657810   8.8980532  40.0625610
  18.9133038  77.8481948  49.6815886  18.6226667  78.4570443  49.0025677
  19.3025316  77.1190416  49.1988220  68.9669752  32.7084970  28.5176516
  68.2857418  33.1072402  29.0590882  69.7712517  33.1599569  28.7736821
  66.4170796  73.7223257  16.3638043  67.1932942  73.2647003  16.0408378
  66.4705998  73.6419899  17.3161244  26.1032865  41.4823246  28.1154680
  25.3316591  42.0350361  27.9916310  26.7818162  41.8951035  27.5812054
  76.9561481  28.2205081   3.5038477  76.2519026  28.8647127   3.5764560
  77.6138878  28.6456919   2.9535508  46.6021068  36.6142769  17.2497880
  45.7836253  36.1235638  17.1755314  47.2552354  35.9561272  17.4874818
  85.7622337  63.0180216  33.6487770  85.7678795  62.2010136  34.1474676
  84.8625278  63.0992270  33.3322692  62.3167467  32.9648018  20.1885080
  62.7091360  32.2306108  19.7160447  61.4454412  33.0591011  19.8035777
   1.6569707  30.2917981   1.1177602   1.7355249  31.0517406   0.5410874
   1.8040559  29.5396948   0.5442278  20.0004575  33.7938404  35.2650619
  20.7250688  33.3038592  34.8763490  19.5170877  33.1430888  35.7740808
  83.5800552  18.8368261  10.2120590  84.4756794  19.1672719  10.1421726
  83.2730961  18.7835681   9.3069762  43.7734617  74.3258774  56.4169123
  43.1971849  73.5636651  56.4732458  44.0269007  74.5020091  57.3229899
  21.3118074  10.9014571  45.9844398  21.8180368  10.5356324  46.7097902
  21.9684503  11.2876177  45.4048491  45.0879962  79.8691477  28.3011889
  45.2706439  80.5456535  27.6491046  45.9361464  79.4551651  28.4608483
  84.6084881   4.3675435  26.3575315  85.5041122   4.0300596  26.3440037
  84.3558216   4.3393406  27.2803497  23.9244188  65.1042807  49.6837487
  23.1531824  64.5875132  49.9169459  24.6293463  64.4612920  49.6071209
  63.0576760  67.5278897   8.7246901  63.4004933  66.6750641   8.9918995
  62.8066785  67.9527981   9.5448631  76.3139915  15.0132668  26.9334364
  75.4968119  15.4348910  27.1993017  76.0845232  14.5222855  26.1444402
  72.8952742  23.8167572  18.2203948  73.3659792  23.2228804  17.6356041
  72.9284143  23.3873224  19.0752161  75.2255583  10.7695007  28.7398863
  74.4575548  10.8821690  28.1797910  75.3754139   9.8242033  28.7535739
  57.4775709  68.3587920  67.6255869  57.6801790  68.4538138  68.5562593
  56.5630735  68.6313545  67.5505080  70.4777425  40.3735007   2.5679098
  70.4563468  39.9961925   3.4473453  69.5742696  40.3102858   2.2581134
  11.4181611   8.4278369  40.3678799  11.8819043   8.3671367  39.5327210
  12.0075509   8.0158126  40.9996128  19.0236661  53.8142538  22.3607826
  18.7037179  53.4315348  23.1777215  19.5727823  54.5473862  22.6386666
  64.2298651  12.4974704  33.1173038  64.6183825  13.0067217  32.4060035
  64.8060083  12.6530385  33.8656902  28.8405702  40.3323507  34.1308045
  29.2048356  39.7384715  33.4744048  28.3286283  40.9634542  33.6249852
  32.6645127  57.5105377   7.2509370  32.9333535  56.5928848   7.2077404
  32.8487053  57.8554638   6.3772522  73.6303425  41.3978863  20.8546090
  73.3771276  40.7947636  21.5534353  73.3087349  42.2509623  21.1462593
   0.9983442  12.3368406  31.2684989   1.6233156  12.1568537  30.5661774
   0.1565454  12.4289179  30.8222556  78.4725714  34.0394878  36.1988878
  79.0882683  33.4361625  36.6149998  78.5880136  34.8635697  36.6719580
  27.1828229  55.9776826  12.4496937  26.8732173  55.3496404  13.1023324
  26.4597184  56.0520501  11.8269408   9.5799173  77.1369946  69.0699996
  10.1939262  76.5526139  68.6253354   9.6216406  77.9528033  68.5710539
  84.0927617  79.2368304  68.6143221  83.9031426  78.3676493  68.2610487
  83.3356110  79.7669327  68.3654373  12.3172757   3.0518445  14.9060309
  11.6356656   2.6523954  15.4464817  12.8009698   2.3097289  14.5433617
  54.7935724   8.6897582  35.9471393  54.3522692   9.3954039  35.4743314
  54.9975252   9.0660751  36.8033051  56.6235542  43.2028580  11.8064189
  57.3080683  42.5541735  11.6424751  56.9030476  43.9753675  11.3151479
  61.3077593  33.1123090  31.9440746  61.3659000  33.9658928  31.5148354
  60.9717560  33.3066082  32.8190517  13.9451215  44.4609165   4.2251313
  14.2616842  44.3558502   5.1223397  14.4805906  45.1670504   3.8633642
  45.3471184   4.2934382  42.6422453  46.2513781   4.1658646  42.9290676
  44.8172617   4.0098199  43.3872604  24.8276915  61.8064463  50.5848398
  24.9293531  62.3217880  49.7846403  24.9152006  62.4442398  51.2932124
  70.8453178  67.8179550  40.9855366  70.1975536  68.0246592  40.3118134
  71.2064075  66.9724178  40.7192373  59.1806412  25.2118516  19.5941162
  59.5412779  24.7095180  20.3247571  58.2681131  24.9287271  19.5360935
  26.0774626  71.7500484  57.2674837  26.7076696  71.7442715  56.5470411
  26.2080683  72.5973856  57.6931538  64.1390085  16.6701305  45.8031559
  64.4772959  17.3149109  45.1818275  64.7833776  15.9624517  45.7885838
  84.4130532  55.6027698  51.2934996  84.0280549  56.1171829  50.5840029
  84.2327229  56.1119937  52.0836927  29.2656912  80.6094181  36.0712613
  29.6934523  80.5256855  35.2190651  28.3897985  80.9378683  35.8683600
  85.0602913   7.8191066  36.7831469  85.5149555   8.6601299  36.7362881
  85.3922272   7.4116385  37.5831604   8.1671140   1.6737564  13.2559192
   8.7265107   2.4292395  13.0754983   7.2815702   1.9788496  13.0585158
  49.6234424  75.4112823   8.8656014  50.4785401  75.2022160   9.2415404
  49.5881516  76.3678284   8.8679975  27.9863650  67.7492209   0.9448952
  28.2434136  67.5480158   1.8447155  27.6247890  68.6342843   0.9913047
   6.1672780  12.8737104  20.3886604   6.2524221  12.1625531  19.7536480
   5.2376459  12.8812659  20.6165910   3.6142251  29.3289232  12.0820022
   2.8337190  29.8366475  12.3039424   3.3144662  28.7059522  11.4199722
   8.1609437  40.7455683  34.3520331   8.7072561  41.3245773  34.8835588
   7.8370283  41.3040018  33.6453056  12.4589536  20.0632834  10.7134390
  11.6835496  20.5185676  11.0416162  12.8829954  19.7162080  11.4982677
  68.1368494  29.9380326  21.9918776  68.8009548  29.2648935  22.1404719
  68.5278988  30.7406211  22.3370838  55.6813383  62.5785685   9.4108003
  55.5104876  61.7219305   9.0193778  56.3134575  62.9895735   8.8211083
  29.4448850   9.0097767  24.7299075  28.7771604   8.4347355  24.3561339
  29.3530462   9.8301053  24.2452860   5.5089090  14.6944237  44.1056252
   5.6234834  14.4879925  45.0332546   6.3179872  15.1420784  43.8581705
  21.4124200  20.4168248   7.9514259  21.0622690  21.0786581   8.5477507
  22.2369668  20.7887459   7.6383477  11.3316263  72.0852029  69.9231088
  10.8944715  71.7640984  70.7117904  10.8348526  71.7010939  69.2006781
   7.5896642  28.2441306  10.2916074   6.8590638  27.9628491   9.7408450
   7.3540208  27.9490232  11.1711621  42.3175192  39.5102978   2.2195314
  41.6264725  38.8851738   2.4384211  42.8174067  39.6082044   3.0299360
  65.9255505  34.3854332   4.4311038  66.0024452  35.2874207   4.7421330
  66.7614698  33.9803362   4.6621236  83.8000202  35.1984859   2.9839024
  84.5097160  34.9287820   2.4009530  84.1382885  35.9750557   3.4297118
  61.7077589  41.9666910  10.9568501  61.7566156  41.7663288  11.8915689
  62.5735092  41.7394686  10.6176186  78.1336737  47.5936365  39.0832067
  77.7169323  48.0577564  38.3571529  77.4567366  46.9999123  39.4079852
   5.6071143  76.2468315  22.4993849   5.7244162  75.9135522  21.6097784
   4.6671061  76.4126022  22.5710511   7.6072500  38.9719081  45.6419182
   7.6855752  38.6853409  46.5518522   6.7641828  39.4236755  45.6048155
  70.0020456  33.8619423  52.2864819  69.6145487  33.2758808  52.9365635
  69.2714500  34.4020486  51.9852448  75.1046515  16.9024730  22.5915885
  75.9841633  16.7814565  22.9494214  74.5417690  16.3711560  23.1547022
  68.6332226  55.9069729   0.6207499  69.5002270  56.2096930   0.8907455
  68.6891031  55.8397532  -0.3324504  13.3811281  33.5450077  22.6947188
  13.0560682  33.9840961  23.4807014  12.6770398  32.9459500  22.4465013
  57.5351524  68.7148476  39.6854877  57.1561003  68.4761763  40.5314112
  58.1562805  68.0120277  39.4945002  15.6574819   6.4500499  25.3464866
  15.8122060   6.6737050  24.4287324  15.5847642   7.2951812  25.7899904
  61.6311312  30.0202203   2.9132992  60.9533215  30.3179932   3.5200459
  62.4551058  30.2359462   3.3500534  10.4010103  13.1637836  24.6415091
   9.5653436  13.3327413  24.2063761  10.5327890  13.9225805  25.2099228
  84.0529537   8.1512976  28.5947371  83.3814812   7.8513467  29.2074275
  84.2659378   9.0373123  28.8877320  78.6729860  17.7704513  24.8932791
  78.2019377  17.0516014  24.4718504  78.6627150  18.4755659  24.2460227
  86.4554214  19.8271430  10.2505052  86.8994713  19.5668638   9.4434690
  87.1450710  19.8263776  10.9142911  63.0401850  46.4700031  43.5461807
  62.4349213  46.6090918  44.2745590  62.4751139  46.2681103  42.8004169
  85.7109261  43.2257748  21.7842245  85.4171085  44.0912914  22.0684481
  86.4253998  43.4042358  21.1727428   5.0596711  16.1844480  65.4689407
   5.7584760  16.3507819  66.1015844   4.2760560  16.0609257  66.0045958
  77.9615657  47.9010957  33.1470312  77.5580804  47.8503310  32.2805108
  77.5878731  48.6901760  33.5393824  14.6788849  49.9951189  64.2766346
  14.0349306  50.4461461  64.8226442  15.3342117  50.6637394  64.0773256
   8.4790037  48.4656048  67.8839588   8.6677263  49.3899536  68.0458069
   9.1744802  47.9951191  68.3435154  23.6468313  23.7424302   8.0019790
  24.0102002  23.6479950   8.8824773  23.6779115  22.8593111   7.6340616
  49.2212541  67.0972688  33.1384087  49.8232753  67.3364086  33.8431168
  49.5286471  67.5958045  32.3813057  65.1179600  54.0053272  53.2642984
  64.7143507  53.3898258  53.8762474  66.0546732  53.9521503  53.4539747
  49.6650989  72.9442419  38.7051415  50.6066186  72.9177029  38.5346460
  49.2848641  72.3713292  38.0392385  41.5571356  13.9700055  33.7857366
  42.0202684  14.7592926  33.5050917  41.0770845  13.6847818  33.0082822
  77.4418116  14.6148312  14.3907261  78.1627083  14.7136950  13.7688220
  77.8430748  14.7598982  15.2475655  56.1113834  22.2880101   5.4793400
  55.4591894  22.8943539   5.1283127  56.0326147  21.5075850   4.9307373
  49.7136552  16.6548364  68.8250602  49.6788127  16.0264079  69.5462360
  48.8123424  16.9635932  68.7326604  10.8166692  43.9762640  31.5334797
  11.4164350  43.9880753  30.7875729  11.3767812  43.7955141  32.2883511
  80.6302738  46.7683601  16.1088455  81.4082527  46.8915987  16.6527212
  80.9539795  46.8305588  15.2101898  14.3865551  46.7896640  57.9377200
  13.7661900  47.2942388  58.4638204  14.5632948  47.3446202  57.1781017
  17.9911293  54.1378951  54.9195494  17.3362459  53.4781026  55.1476528
  17.4941458  54.8253500  54.4761040  40.0268323  73.3261378  41.5750933
  39.1018826  73.1316139  41.4238977  40.2315433  74.0191932  40.9474039
  27.5729377  78.2995052  30.4935813  27.6184756  77.4887381  31.0003495
  28.2698829  78.2147489  29.8429537  63.0170870  50.2007246  57.0378065
  62.1449327  50.5751896  57.1616983  62.9791069  49.3533039  57.4812794
  11.5153310  37.7184439  45.7979584  11.9274423  38.4693766  45.3707552
  11.1167810  38.0817556  46.5887737  76.0558462  43.9975023  19.7658539
  76.8699694  43.5012960  19.8507535  75.7697773  44.1444349  20.6674123
  65.3875256  37.1102738   1.2810525  65.1154041  37.5456929   2.0888835
  64.6161175  37.1504164   0.7157642  81.4721012  11.8410492  48.8416672
  81.2465477  11.4526117  47.9964018  81.1970043  11.1888528  49.4860220
  67.7980375  61.1998272  40.4853201  68.2559776  60.3719902  40.6309509
  68.0859995  61.4834118  39.6176267  68.0915022  11.4821100  59.6920300
  67.2680998  11.6859925  59.2485571  67.8299761  11.2238467  60.5758476
   4.1708753  39.4824409  15.6376302   3.5933492  39.0381336  16.2583423
   4.6361253  40.1312876  16.1656141  85.4328028  31.0077881  70.5519194
  84.9667613  31.8170535  70.7619840  85.5156342  31.0197079  69.5983845
  67.7435160  39.4137931  25.3400064  67.8468800  38.7478375  24.6602631
  66.8654394  39.7672129  25.1975083   6.0596845  39.9033666  18.1894672
   5.4931543  40.6630039  18.0544710   6.7510507  40.0008154  17.5346744
  77.9457092  28.5672402  41.0970879  78.2044220  29.4745827  40.9357500
  78.1374168  28.4247231  42.0240021  33.0173499  12.7589528  46.4071216
  33.5011537  13.5267798  46.1028065  32.9669101  12.8684966  47.3566927
  13.5885999  29.2969656  56.3274527  14.2501924  28.9228749  56.9093418
  13.2690046  30.0695443  56.7935133  57.0611429  43.5516739  47.1120930
  57.4486351  43.7177896  46.2527418  56.5387535  44.3327856  47.2943163
  55.8541250  71.1018324   5.9428209  56.4869308  71.7601824   6.2298197
  56.3668108  70.4921961   5.4120356  63.0907440  36.0282493  26.4215636
  63.0570745  36.7592001  25.8044648  62.9111910  36.4256907  27.2736406
  54.1475153  28.3035064  23.1529093  54.8479939  28.8329959  22.7718496
  54.4834185  27.4075532  23.1270671  39.4810976  77.8429830  45.4695453
  38.8405146  78.0415356  46.1525263  39.0824999  77.1328675  44.9664630
  77.5948334  26.3836670  19.2519236  77.0516062  26.8357348  18.6063468
  76.9964504  25.7738495  19.6835375  77.9331636  54.6901894  25.5963778
  78.7016916  55.0791025  26.0139179  78.2916307  54.0342760  24.9984503
  80.6022549  46.3538599  38.8663721  79.9446297  47.0007372  39.1219354
  81.4254093  46.8421459  38.8515401  76.4135122  40.4975986  54.0481997
  75.6983423  41.0592461  54.3470573  76.8249035  40.9908819  53.3385086
  25.9846494  38.3688259  33.7549067  25.1457689  38.3195710  33.2965660
  26.4896772  37.6325130  33.4099054  77.7768755  27.0942760  24.6567059
  78.0184984  27.0776153  23.7306523  78.2669210  27.8324723  25.0188541
  72.1671867  47.7231026  44.1899204  72.6204491  48.5651636  44.2314196
  72.5855827  47.1922207  44.8676682  74.7793770  63.4507513   4.1238296
  73.9927197  62.9591942   3.8876754  75.0164986  63.9215231   3.3248419
   2.5809285  40.0241327  23.9074564   2.0430276  40.1496935  24.6892023
   3.2960031  39.4576073  24.1972041  48.7907124  37.7191329   0.0778730
  49.7442579  37.6884842   0.0001262  48.5936403  38.6405373   0.2464134
  13.6964700  13.2370448  23.6655855  12.7841375  13.0091739  23.4868217
  14.1716096  12.9535997  22.8844762   1.0068986   8.7855834  53.3971071
   0.4703233   8.0343592  53.1441593   0.5049798   9.5470953  53.1065702
  72.4260950  29.8757148  10.2002871  72.7528954  30.6447506  10.6672072
  73.2108593  29.4631791   9.8394716  66.1035538  39.5426250  56.1555386
  66.8026018  40.1424694  55.8952475  65.4085732  39.6921992  55.5145597
  79.9053669  29.0801358  22.5999451  79.8421526  29.2750931  23.5349464
  80.0629520  29.9297810  22.1882415  19.6904943  22.4955487  19.0320253
  19.5880792  21.6110301  19.3832648  19.2091176  22.4819851  18.2047880
  78.2738304  33.4423351  18.1265795  78.3040857  33.6476970  17.1921587
  78.3939409  34.2865896  18.5613644  21.5527437  34.9849844  37.4555516
  20.8136556  35.1279902  38.0467534  21.1522767  34.6839190  36.6399431
  27.0281328  58.6964070  66.3767036  26.4255632  59.1132783  66.9926246
  27.8987898  58.9012420  66.7176269  81.7119503  31.7534804  45.2143002
  82.3941994  31.2968230  44.7221327  80.9628487  31.1579251  45.1942968
  81.5232849  59.6808052  48.0392981  81.3235283  59.9596596  47.1456718
  80.7041168  59.3049383  48.3616686  66.3906384  50.8601952  14.4287336
  67.1932364  50.3894567  14.6534002  65.7736683  50.1739502  14.1744745
   5.9282968  17.2098637  32.4693918   5.9585855  17.5380671  33.3680558
   5.4691408  16.3725877  32.5355339  12.9053018  43.4442186  24.4308901
  11.9641874  43.3355951  24.5677471  13.2145212  42.5711918  24.1891646
  12.6550831  78.3288085  70.1187861  13.0423130  78.8061750  70.8525477
  12.2728504  77.5467193  70.5168647  45.3965814  76.5662260  19.6319628
  45.6007010  76.6512097  18.7006485  44.8777635  77.3444642  19.8354363
  12.9012582  24.0845823  32.8959775  13.1111238  23.2237864  33.2582164
  12.7957055  23.9301419  31.9572330  18.2703645  79.4769029  12.6884508
  19.0913445  79.3335364  13.1592619  17.9348285  80.3024228  13.0379725
  57.8003263  70.6788206   1.2968166  57.6254368  70.1413250   0.5243245
  57.5209665  71.5588903   1.0444953  32.1992299  62.8892946  41.9348335
  32.4665449  62.8440142  42.8528357  31.2802503  62.6215601  41.9394827
  36.5155315  57.5874472   7.6753616  36.6114736  57.7913761   6.7450714
  35.8175778  56.9331312   7.7063882  62.7199745  75.5725861  37.3138046
  62.3012495  76.0716724  38.0150986  62.5594378  74.6570921  37.5425673
  61.9518811  69.3419166  16.0909665  62.4508912  69.9052663  16.6824532
  61.8676621  68.5136373  16.5632939  21.8048379  75.8773518  14.3866503
  20.8698747  76.0350704  14.5178163  21.8489930  75.3473473  13.5908020
  50.8204079   7.3748887  14.8061228  51.5529251   7.9196477  15.0940180
  50.6876087   7.6169693  13.8896120  86.1847019  50.2562857  41.7355871
  86.8326473  50.5108881  42.3925352  85.4325008  49.9551153  42.2452211
  18.3138273  32.7420592  31.0317612  18.9049528  32.1579385  31.5067339
  18.4042451  32.4808669  30.1153350  17.1554849  71.8298578  26.7664480
  17.8297326  71.5662336  27.3926473  16.3891790  72.0227528  27.3066354
  26.4652154  47.0171595  29.9798894  26.9786260  46.2915802  30.3351116
  25.8637616  47.2532892  30.6860948  18.8023946  42.8782368  25.0020003
  19.0166185  42.6921320  25.9161711  18.2142064  42.1683311  24.7445273
  10.5798051  17.6096439  55.1102829   9.6575067  17.7695906  55.3103113
  10.5657480  16.9043243  54.4633245  39.7807421  63.0039990  68.9137091
  40.4124083  63.6626589  68.6249358  39.9810900  62.2318470  68.3846803
  75.1626062   2.6470745  28.4050584  74.4437933   3.0351701  28.9039803
  75.9142494   2.6884368  28.9962888  77.9632187  57.1548414  53.9986897
  77.0247364  56.9911671  54.0919161  78.1851387  56.7941332  53.1402731
  48.8812978   6.5428416  36.8123736  49.7048766   6.9828527  36.6017928
  48.8427884   6.5515964  37.7687587  11.4319608  20.1176548  40.6813812
  10.8571527  20.5345893  41.3232422  12.3009870  20.4698706  40.8736658
  26.8048189  43.2353449  26.1212969  25.9708974  43.0077219  25.7102132
  27.0603273  44.0584898  25.7048988  32.8339956  50.9474659   7.2377330
  32.3432348  51.4812136   6.6128331  33.5058114  51.5368986   7.5804591
  84.8164177  24.8760343   2.7817115  85.2158070  25.6336761   2.3542750
  84.3276596  25.2458763   3.5169420  53.5741186  26.4909005  14.5362961
  53.8175106  25.7791924  15.1282966  54.0915728  27.2386408  14.8352289
   9.7809980  60.9919071  30.8559823   9.0381620  60.4972029  30.5100179
  10.0278089  60.5260229  31.6548967  49.6673924  36.0688369  59.8449041
  50.3116662  35.3812758  60.0134291  49.6065814  36.5478723  60.6713786
  19.9279210  14.9083531  17.2597361  20.7836053  15.3196824  17.1378803
  19.3776700  15.6029081  17.6217484  69.2889261  40.3909540  11.5584946
  70.2290630  40.5457640  11.4667761  69.1852665  40.0703335  12.4544227
   3.7221865  42.3554008  63.0220594   3.9747481  41.4416568  62.8897162
   4.0743212  42.5788466  63.8836290   0.7494987  75.7393777  54.8388447
   1.2207521  75.1091778  54.2938675   1.3649954  75.9584558  55.5384185
  26.7697824  77.5057494  64.3819060  27.6598944  77.5256002  64.0304168
  26.7988409  76.8412220  65.0702294   8.0710981  22.8720641   6.7749894
   8.4968469  22.7707171   7.6262820   8.2270238  22.0397949   6.3286173
   3.3241174  70.2469873  33.7472987   2.7815912  70.6259918  34.4388556
   2.8668306  70.4679489  32.9359436  21.1823556  67.8950167  21.6645145
  21.6365812  68.7367773  21.7013216  20.2535722  68.1218052  21.7111135
   7.9265592  40.3351021  56.2242699   8.8469121  40.0939560  56.1192894
   7.9498288  41.2430525  56.5264654   3.7257097  39.0189505   6.0925823
   3.3206079  39.6470666   6.6905731   3.1357286  38.9905429   5.3393579
  17.4200055  56.7093325  37.3851752  17.7200124  55.8665323  37.7256393
  17.4137781  57.2873449  38.1481266  83.5723584  14.5609026  22.6999331
  83.9216178  15.4453497  22.8095150  82.8347772  14.6673803  22.0992160
  10.2445919  33.3700530  64.7370126  10.2839620  32.8323857  63.9460661
  10.2831823  32.7403276  65.4568638   1.0691163  49.4843388  21.2136197
   1.2379835  48.6350965  20.8055711   0.7699773  49.2702150  22.0973063
   2.5898454  55.9060717  25.6898475   2.4965379  55.0379133  25.2976441
   2.0381162  56.4729357  25.1508808  57.7976274  44.3611860   2.3842102
  57.3956394  44.7743750   1.6200715  57.5399733  43.4413910   2.3224218
  77.4370861  24.4529390  28.0372739  77.6970720  25.1966643  28.5808849
  76.4962435  24.3628836  28.1887102  53.4979486  41.4117146  12.6245558
  52.9821253  40.7624102  13.1026375  53.0748606  42.2470760  12.8230619
   2.8238485  54.8083735  30.6256223   2.6785753  53.9389133  30.9986758
   2.8337858  54.6643877  29.6793652  69.3061113  68.7199593  25.3506994
  68.5523367  69.1189289  25.7853055  68.9385033  68.2948589  24.5758557
  50.7470083  13.9229620  23.1362438  50.1201057  13.4059560  22.6303458
  50.3979635  13.9175165  24.0275168  72.5311518  70.1118326  41.3757896
  72.3519993  69.2482615  41.0037994  72.0096922  70.7140827  40.8451223
  75.4580259  29.6220851  23.1293893  75.9370947  28.8391757  22.8577662
  74.9663830  29.3457508  23.9027977  15.5328557  29.3504786  37.5802922
  14.8075483  28.7537432  37.3957276  15.4046247  30.0785756  36.9722915
  83.6904240  28.0316472  44.2062378  83.3301449  28.0469418  43.3195639
  83.8688183  28.9501452  44.4081593  74.5315742  57.4859381  31.0635781
  74.7479105  58.0760765  30.3416562  73.6269712  57.7038288  31.2881851
  34.6050927  73.9988518  27.7076817  33.9705751  74.7147655  27.6746893
  35.4576204  74.4340706  27.7046752  62.0012596  61.9626093  33.3239770
  61.5928080  61.1662626  32.9845119  61.8729832  62.6113081  32.6319027
   6.0737508  61.8469270  30.4008232   5.3457683  62.2935636  30.8330093
   6.6441267  62.5543435  30.1000438  68.6784837  76.1866964  39.5231462
  69.3027029  76.1045868  38.8021469  68.9568803  76.9730432  39.9925995
  81.1999141  14.1958821  10.7360683  81.1232816  14.9669755  10.1741253
  80.9095822  13.4685815  10.1856361  76.2757912  49.0705013  60.6643438
  76.1591938  49.8383808  61.2238073  76.5915754  48.3882284  61.2568092
   5.6340581  65.0869560  66.5627718   5.4375869  65.3612089  67.4585485
   5.1445687  64.2722988  66.4488935  12.4860232  80.2931960  29.8989139
  11.7850822  80.8492525  29.5587383  12.4089735  79.4792517  29.4011245
  31.4955102  12.2054255  26.2022434  32.0207892  12.0267547  26.9822345
  31.5686880  13.1513989  26.0757194  16.1810029  20.8262777  47.2694349
  15.4100680  21.3771963  47.1338558  16.2400866  20.7266545  48.2196045
   5.6698554  68.7882526   2.9083286   6.0615151  68.9129026   3.7727914
   6.3378852  69.0965231   2.2960077  54.0603989  64.6700461   1.1630331
  53.5039156  65.0196274   1.8589864  54.8425215  65.2215512   1.1819730
  78.8178168  26.7918742  11.9474445  78.2705008  26.4845956  11.2247692
  79.6540223  27.0129121  11.5374027  21.3862371  53.9869499  63.7909222
  21.2409925  54.8789215  63.4754515  20.5066919  53.6364412  63.9315510
  49.1978424  75.6736429  17.0733581  50.0367206  75.2128442  17.0599304
  49.0010875  75.7858904  18.0033718   3.8967779  79.6222544  65.0635386
   3.6391103  79.6812820  65.9835100   4.8343885  79.8149109  65.0645781
   7.6404460  42.3764289   7.0432315   7.4563392  43.0283797   7.7194677
   6.8151244  42.2857440   6.5669380  57.0969989   0.7362535  50.8629036
  58.0410841   0.8284861  50.9910679  56.7080715   1.2834384  51.5452194
  51.5240060  32.2963822   3.3532034  52.1198027  32.5570023   2.6508222
  51.7119436  32.9073108   4.0657173   5.1586080  34.2631531  36.8051934
   5.1971203  33.5265255  37.4152160   4.5544147  33.9758754  36.1206102
  44.5153492  58.1082316  19.9955593  43.6503392  58.2587357  20.3767906
  45.0567036  58.8172658  20.3426014  40.7277983  13.7053041  43.2510376
  40.5646639  13.1360178  44.0030575  41.0552006  14.5194082  43.6334896
  54.2277449  81.1675008  13.1759868  54.0162986  81.8974717  13.7579380
  55.1784437  81.2106641  13.0733238  68.2355013  72.7374125  53.2406378
  68.8144865  73.0798435  52.5596476  68.5850575  71.8683386  53.4374857
  43.0964899  78.2014465  54.0302992  43.4460735  77.6694965  54.7451830
  42.8178024  77.5647593  53.3721209  23.3907366  19.4883204  58.6198521
  23.8199544  19.5858777  59.4698429  22.4832058  19.7479677  58.7786007
   0.0216343  19.0486169  69.1180086   0.2761748  18.8526249  70.0196886
   0.4202418  18.3498204  68.5993290  81.5224515  24.3905127  43.8074718
  81.7428432  24.9527038  43.0647789  81.9994913  24.7703994  44.5452819
  13.7952840  54.3442440  67.3423719  13.0375981  54.9125195  67.4809504
  14.2684281  54.7489500  66.6153383  22.9329181  50.4570293  34.9175787
  22.5388455  50.7021093  35.7547593  23.8071632  50.8460760  34.9413562
  28.0164886  50.8857870  65.4899168  27.1658611  51.0270882  65.9054899
  28.2775497  50.0087595  65.7708025  43.0182677  79.4333847   7.7740274
  42.6396804  79.8353632   8.5558925  42.3562186  78.8065298   7.4825178
   3.2873052  59.0587950  63.9524460   2.6675043  58.3804035  63.6843681
   4.0323684  58.5751104  64.3090439   8.0372292  11.0644960  70.4832458
   8.6365283  10.3716969  70.7609177   8.5665107  11.6264260  69.9172735
  67.7406590  52.4047716  20.2281128  67.8317421  53.3432992  20.0634895
  67.5212234  52.0320149  19.3742214   2.6988214  34.3956661  63.0967712
   2.1705656  33.5976624  63.1159878   3.3436149  34.2728996  63.7934780
   6.8901247  36.9558239  50.0064039   6.5652275  36.0755825  49.8170710
   7.7478021  36.9908118  49.5828533  17.2468007  25.8551478  59.5212603
  17.6907074  26.5285063  60.0367832  17.9541421  25.3917289  59.0727663
  66.4900683  34.0266240  21.0220371  65.5461620  34.0801251  21.1717449
  66.6380249  33.1218589  20.7468448  13.1413024  63.6951955  31.4027916
  12.8970914  62.8244193  31.0892044  12.9596119  63.6710961  32.3422847
  67.7800849  31.7422247  56.6583395  67.9048934  32.6763725  56.8257427
  66.9441583  31.5337372  57.0754623  34.4965564   6.7997770  66.2025595
  34.5456182   7.6147013  66.7022800  35.3621321   6.7109423  65.8036613
  83.5036349  45.4191875  53.3937359  84.2778769  45.2324247  52.8627920
  83.5156828  44.7503424  54.0783787   5.5176955  41.3910532  39.6557570
   4.8011225  40.7782555  39.4907403   5.0858492  42.1857977  39.9690056
  84.5365907  65.7523489  58.7417936  85.3081128  65.4545164  59.2237520
  84.5424027  65.2344990  57.9367924   4.2966788  80.4405601  38.2188640
   4.1008156  81.0516437  38.9291034   5.2282303  80.5704649  38.0411945
  78.1205353  47.9203320  62.4710846  78.1877735  48.8338900  62.7487993
  78.0150970  47.4294043  63.2860088  70.2063515   9.7957224  58.7331963
  69.6426537   9.2612576  58.1738901  69.6524432  10.5291998  59.0004539
  23.7274885  60.1858377  64.4455862  23.9065027  60.5933189  65.2930212
  23.1361079  59.4610405  64.6484900  53.6234730  60.3670128   2.6437460
  54.1109913  60.5498631   3.4469400  53.9313143  59.5036264   2.3680101
  59.7404762  18.0451215  13.0926071  59.5338650  17.1619809  13.3985553
  59.9804221  18.5235179  13.8862072  10.4738677  38.3942223  53.5590506
   9.6176314  38.3070493  53.1401348  10.2762306  38.6813307  54.4505310
  67.3437302  33.8116992  30.2819000  67.1718155  34.0360701  31.1964069
  66.5008091  33.9293874  29.8438774   8.4808803  27.8026128  53.1895828
   7.7123940  28.1932855  53.6055565   8.6937577  28.3989024  52.4716997
  63.2022952  14.8445094  29.1482483  62.9020284  15.2128852  29.9791275
  63.8373648  15.4808772  28.8196884  10.7133019  59.6019793  21.0342717
  10.1258039  59.9994087  21.6770244  10.9054625  58.7342596  21.3897586
  67.2792047  72.5831945   9.1164623  67.8380125  73.1868012   9.6059833
  67.6751202  71.7230781   9.2567478   3.4957202  14.0948832  11.6829811
   4.2029246  14.5543302  11.2302051   3.4015211  13.2705319  11.2056862
  53.9301293  21.7146234  65.6549597  54.2278808  21.3753920  66.4990616
  54.2343228  22.6220827  65.6407452  28.2298227  49.8307403   8.1536089
  28.1761538  49.7045018   9.1009269  29.1301873  49.5939972   7.9310594
  78.3125411  22.9752648   4.9732624  77.6033197  23.0408109   5.6127487
  78.2407557  23.7755835   4.4531046  44.9879824   0.4163850  18.2339512
  45.8518981   0.2913392  18.6266838  44.9148880   1.3630212  18.1123863
  64.2589466  16.7197812   6.3982902  63.8872562  17.2354663   7.1139370
  63.8295232  17.0568383   5.6120239   8.4024346  44.8159122  60.4387522
   8.4974587  45.6919146  60.8126831   7.6013660  44.4722652  60.8342648
   3.9758554  27.4572945  67.1139050   4.3614957  28.1763315  67.6144028
   4.7260690  27.0029473  66.7305231  40.8661490  19.0390139  27.6250172
  41.3840955  19.3483572  26.8818665  41.4562803  19.1118555  28.3751321
  31.0701411   2.6028280  62.0858908  31.9173142   2.1665506  61.9954014
  30.4271068   1.9020395  61.9780445  82.5164877   9.6346152  14.7249065
  83.2946883   9.1086066  14.9091659  82.0323216   9.6433890  15.5505882
  64.9419787  80.3920364  68.3891439  65.4251030  80.2214432  69.1976738
  64.0456631  80.1179218  68.5833359  21.2850952  41.2502956  70.6899405
  21.8946338  41.8333197  71.1424589  20.4321241  41.4490557  71.0761642
  58.5687348   1.8093646  24.0606151  59.0030819   2.2993863  23.3624397
  59.2254659   1.1780084  24.3544231  25.4592371  58.9429855  62.6394987
  24.8242188  59.2428589  63.2899284  24.9267054  58.5470915  61.9496346
  29.9238478   0.8321202   4.2271982  30.1698195   1.5067780   4.8601041
  30.3880297   0.0480235   4.5203815  44.4175642  81.8951257   3.5679088
  44.3705040  81.1385043   2.9834972  44.8130386  81.5539630   4.3700538
  71.0216449   9.6047223  14.8420749  70.7655405   8.7261117  15.1225887
  71.9786881   9.5876754  14.8451553   6.4590128  14.7729838   4.0999685
   5.9455140  13.9874566   3.9115749   7.2957714  14.6234048   3.6598669
  76.7960154  15.7441199   4.1625057  77.4051724  15.0191033   4.0228258
  77.3538004  16.5208638   4.2046581   5.2102621  13.2638324  29.0308605
   4.2878779  13.0439914  28.9000831   5.2151402  14.2131007  29.1537319
  76.0238420  14.9330199   0.5681120  76.2034451  15.8297742   0.8506094
  76.8838583  14.5136559   0.5410181  65.6511324  77.0756896   5.4293666
  65.7818931  76.7751010   6.3286911  65.5988901  78.0288060   5.5006061
  24.9563959   0.6115656  56.5721035  24.1979136   0.0368719  56.4688587
  25.3037896   0.3964930  57.4377203  14.0079975  61.2309742  69.3779421
  13.1834424  61.2733507  68.8936424  14.4311583  62.0718431  69.2044449
  64.4063644  31.0280002  16.1066280  64.6665357  30.2564919  15.6033168
  65.2156936  31.3282788  16.5202079  55.1238240   8.7616361   7.2903095
  54.1906585   8.9484656   7.1876941  55.5197816   9.6134103   7.4745117
   4.6843857  39.8161316  63.0246258   4.7906828  39.2693424  62.2461939
   5.4163843  39.5716095  63.5908556  70.9558307   6.6911948  -0.0676264
  71.2089156   7.5631726   0.2354179  70.3000318   6.3986552   0.5652891
  30.7967544  58.6812305  69.9259758  30.9900117  58.1353378  69.1638184
  29.8462296  58.7923241  69.9061918  79.7624050  23.5349763  10.1353298
  78.9424740  23.9544976  10.3959880  80.4254805  23.9347423  10.6981311
   2.7548703   3.8363135   2.0995699   3.4903510   3.4176696   2.5468240
   2.9963930   4.7615064   2.0558153  63.5443132  67.6659615   3.2683359
  64.2628687  67.5928934   2.6401840  62.8824203  67.0534833   2.9474006
  18.3711565  38.1422305  63.1380796  17.5646138  38.3790541  63.5959435
  18.1892776  38.3335710  62.2180033  56.4546745  15.5131178  60.4885960
  55.6863230  15.5750685  59.9211168  56.2655418  14.7751265  61.0681057
   5.0946802  68.9738894  50.5867767   5.0074112  69.1623545  49.6523809
   5.8641368  68.4076262  50.6460571  20.6095203  20.3962100  27.4354587
  21.4579376  19.9631656  27.3411594  20.3598102  20.2381385  28.3458934
   9.5559531  44.7003078  69.1430998   9.8640299  45.6021357  69.2326975
   9.6261901  44.3344927  70.0248480  45.5538517  79.5276888  41.5793167
  46.2218314  80.1203354  41.9239936  46.0496002  78.8451989  41.1269031
  55.0007870  71.0137415  69.5454836  54.2515328  71.2445211  70.0946569
  55.4308345  71.8493366  69.3636131  33.6610924  35.2223885   4.6951614
  34.4588767  35.2102578   5.2239547  33.5117780  36.1491931   4.5081411
  52.2639110  66.0443258  48.5660982  51.4958289  66.5503311  48.8311386
  51.9493272  65.4862452  47.8548956   3.9680406  60.4907608  68.9215851
   4.3213764  59.6274328  69.1361952   3.3144033  60.3202200  68.2434225
  57.7007502  73.6899860  24.3826519  58.0144494  74.1343124  25.1703010
  58.4415286  73.1544121  24.0986763  63.8270311  14.0797246  10.9130798
  63.2384460  14.5145572  11.5301071  64.6416389  14.5795310  10.9663616
  62.2918533   0.0559390  15.0005851  62.2141810   0.1086247  15.9531723
  63.1205331   0.4925359  14.8033367  70.4148100   3.5011685  22.8053604
  70.1564430   4.1585601  22.1593605  70.1362620   2.6684583  22.4242626
  66.6734427  62.4457510  33.2401691  66.8816369  63.3799274  33.2542072
  67.4925678  62.0141323  33.4830127   3.5672077   4.0050042  20.3288780
   4.4296201   3.6157191  20.1841961   3.5274442   4.7353280  19.7114025
  79.2869535  33.7958503  21.7676973  78.5431489  33.7430120  21.1675334
  79.1803303  34.6392751  22.2075820  84.2059265  17.5676024  22.8392730
  83.3413397  17.7292788  23.2168804  84.7983323  18.1158126  23.3538185
  53.2384157  39.5857787  59.8935652  53.4927607  40.3353930  60.4317284
  52.9325151  39.9726772  59.0732193  53.0771589  27.5174332  65.6479597
  53.9637566  27.5160074  65.2871561  52.9207897  28.4287453  65.8955336
  63.6855762  13.6385279  66.5754032  62.8925436  13.4525614  66.0726595
  64.0711563  12.7782850  66.7413998  35.6525462  78.2579477   2.4464975
  35.8701169  77.4932750   2.9795728  36.0062861  78.0547555   1.5805803
  26.0327005  61.6506624  59.2098713  26.2376022  60.7269430  59.0649843
  26.7642784  62.1233940  58.8129473  60.0731041  28.7281907  11.2576042
  59.6337263  28.8058007  12.1044479  59.3649446  28.5661805  10.6343113
  81.8299995  36.0207427  13.0446849  81.4482771  36.8748725  13.2471214
  81.6369282  35.8859313  12.1168934  51.7382716  19.4802583  21.8662773
  51.4745049  18.5975898  22.1261821  50.9134065  19.9469865  21.7321239
  69.6396731  51.2259829  13.3042656  69.6208797  50.4087603  13.8022838
  69.3698953  50.9744609  12.4209915  84.2781949  45.0533867  56.0290670
  84.4381955  45.0748539  56.9725561  85.0748328  44.6724319  55.6596470
  31.4802419  51.5889991  36.9900165  30.8992611  51.4820064  37.7431713
  31.7884480  50.7034457  36.7975650  25.6353235  75.0232506  45.3037786
  25.2023005  75.6086874  45.9250593  25.1259446  75.1099634  44.4980192
  80.5280672   6.8105853  18.6174904  81.0358273   7.3672593  19.2078529
  80.8386885   5.9234631  18.7984882  29.8814573  76.8054612   9.3313442
  28.9595032  76.9538243   9.1210590  29.9223795  75.8856972   9.5932422
  41.7897134  76.7149098  15.2881942  41.4928740  75.8710988  15.6289230
  41.2540608  76.8601211  14.5083080   9.3816288  30.4463160   6.8300424
   9.1600021  30.6855357   7.7299772   8.5503705  30.4941523   6.3578592
  39.3412259   9.2931843  53.7703562  39.1550925   9.2475629  54.7081757
  40.2950003   9.2367148  53.7124443  17.6481326  29.5938695   6.4253746
  17.2829660  28.7135566   6.5144477  17.0234140  30.1593841   6.8794141
  52.4868911   9.5792608  55.7897520  52.8990524  10.2503805  55.2457285
  52.7882712   8.7506132  55.4172611  17.0741034  54.4154119  67.1551132
  16.6743791  54.8953009  67.8804827  17.0201027  53.4964037  67.4172926
  79.4382440  34.7794307  14.7130905  78.5208570  34.5388997  14.8426185
  79.4484221  35.7337010  14.7872482  56.4188184  61.7181933  17.9850135
  57.0304130  61.1766017  17.4861560  55.6035951  61.6817534  17.4846969
  68.4621440   6.8956149  13.5808120  68.6776577   7.8230441  13.4825454
  68.2768248   6.5971339  12.6904235  71.2538229  60.1441634   3.3767114
  71.4293443  59.6575702   4.1820989  70.3023265  60.2474368   3.3618055
   8.0674535  80.4112816  69.9547911   7.5230002  79.6430206  69.7828245
   8.9580178  80.0653839  70.0137424  26.6431093  57.2025251  53.6314821
  27.1482396  56.4506054  53.9408302  25.7783437  57.0886993  54.0257645
  74.9107133  29.8965943   3.8682829  75.5012618  30.6499112   3.8684831
  74.4153141  29.9808371   3.0535923  42.1734236  48.0250037  10.3157077
  42.4235652  48.9018786  10.6068073  42.2471498  48.0591262   9.3619667
   7.1949347   2.2259295  21.0306583   7.7332624   1.7221892  20.4201828
   6.6275581   1.5747083  21.4432369  28.8868642  61.8222761  60.7654476
  28.0275583  62.0391989  61.1270666  29.2340040  61.1545277  61.3569212
  35.1586461  62.4143505  65.4409361  35.8746171  61.8003464  65.2777719
  35.5871177  63.1927872  65.7968521  65.3750657  27.8353274  28.4517513
  65.1341806  28.3086408  27.6553951  64.5399724  27.6448501  28.8790355
  75.8209978  48.3429492  22.4641452  76.1441289  47.6611579  23.0532013
  75.9394787  47.9777968  21.5873085  32.8561341  54.6418412  23.7258278
  32.7025881  54.7973092  24.6577488  32.9523810  55.5167754  23.3497177
   9.4150066  80.2504635  60.4381227  10.0897014  80.4201794  61.0955524
   9.7911811  79.5708513  59.8787880   5.7434446  59.1863775  38.9457488
   5.1562685  59.1292953  38.1919599   5.6500846  58.3418703  39.3865657
  56.1395376   9.0417032  13.1967270  55.6269782   8.9762335  12.3909819
  56.0128968   8.1978254  13.6303949  51.8677966  36.8225444  12.6683269
  51.1452578  36.3769877  12.2260032  52.6128422  36.7160237  12.0768963
  71.5778349   6.1343253  40.6157814  71.6575609   5.7887614  41.5048538
  70.6870376   5.9068454  40.3493820  12.0470619  29.0410376  29.6494055
  12.3005354  29.4270468  28.8109660  11.1044741  29.1964555  29.7094369
  44.9822765  72.6559289   8.0956827  44.5649093  72.4355824   8.9284359
  45.6961887  73.2470973   8.3346019  14.7271555  35.5368929  68.6686182
  14.8497265  36.4772444  68.7987614  15.2584963  35.3302412  67.8997183
  63.4585908  54.3134451  67.2100449  63.0478242  53.9927769  66.4071274
  64.2738679  54.7198868  66.9161701  43.7785535  69.8812969  16.9448887
  42.8362279  69.7139247  16.9603859  43.8674455  70.7799752  17.2622333
  62.4329042  79.6790648  69.0934753  62.3237896  79.9203873  70.0133038
  61.9772959  78.8414049  69.0099525  40.8472257  81.8987115  16.7810569
  41.5991204  81.5964826  16.2716041  41.2305778  82.2776158  17.5720726
  20.8605766  45.8843946  66.2011528  20.4361463  46.7237902  66.0236454
  20.2206826  45.2289629  65.9233475  26.4843965  54.4873667  64.0625000
  26.2614155  55.2814388  64.5482635  25.7065511  53.9345455  64.1371679
  72.6850270  39.8398459  22.8081642  73.1033360  39.1744388  23.3544860
  72.0749901  40.2842486  23.3968864  68.4824894  70.5928290   0.8791052
  67.7497999  71.0037768   1.3379322  68.7608849  69.8839343   1.4589296
  45.8591413  80.3008938  61.6104603  45.6513786  79.5357752  62.1468067
  46.5307856  80.7670975  62.1082354  60.2263030  45.1843989  12.2677742
  59.3533468  45.5564940  12.1423565  60.0648262  44.2800486  12.5366626
  77.1545838   2.6651299  41.2023769  76.9636820   2.5788701  40.2683864
  77.9430722   2.1389544  41.3352810  24.2839991   7.5193815  48.5420656
  25.1351219   7.8588896  48.2653713  24.2011052   6.6812353  48.0872345
  37.5043951  57.6758922   4.9345670  36.9610320  57.0816005   4.4170700
  38.3285283  57.7295268   4.4506631  77.2195145   9.7486430  66.3354397
  76.2695565   9.7531664  66.2180042  77.4695125   8.8306993  66.2300253
  21.3946914  10.4626589  63.0785465  20.5930614   9.9521284  62.9645967
  21.8626045  10.3620272  62.2495937  74.9376109  58.1666517  62.2863817
  74.6163681  57.4882793  62.8803873  75.5906370  57.7220821  61.7458773
  62.7745472  27.4511540  17.1435390  62.2665431  26.6761506  16.9036899
  63.5582613  27.1019376  17.5678859  61.9704702  67.1558428  59.9522114
  61.4486005  66.3570404  60.0283527  62.8696945  66.8708658  60.1147413
  55.6677014  39.9964869   6.3988100  56.1474869  40.5472529   7.0174394
  56.2276407  39.9636615   5.6231676   9.0100253  18.1944883  35.8015823
   9.5823300  17.9307532  35.0810671   8.8084954  19.1131198  35.6234455
  85.7186949  76.5517235  45.6388664  85.4769323  77.0582485  46.4142513
  85.0242015  75.8985853  45.5533171  51.2321632  58.0914338  19.5571838
  50.9948342  57.9432531  20.4725776  50.4054373  58.0175240  19.0804325
  43.3739298  74.4061907  20.7674728  43.3270817  75.3253110  21.0306488
  44.1941123  74.3385275  20.2786480   2.1602935  79.3325806  37.2512436
   3.0047190  79.3175840  37.7017474   1.8149748  80.2094555  37.4188089
   5.4756987  49.0940237  51.7841196   6.1751401  49.5435858  51.3098764
   4.7867584  49.7522449  51.8754244  58.0437749  67.7892287  16.4918075
  57.3143905  67.4980553  15.9445987  57.8535789  68.7093432  16.6746936
  83.0893552  67.8529024  56.7634583  83.9558279  67.5997448  57.0818424
  83.2230579  68.7116528  56.3623381  66.2500845   8.5511125  17.0945106
  65.8092944   8.8538564  16.3006054  66.6706328   7.7307237  16.8369518
  56.8290840  16.4260686  11.7127166  57.3884559  15.7847989  11.2744175
  56.2663099  15.9026826  12.2833191   7.6438959  49.3701518  22.6412998
   8.0962737  48.5469115  22.8253017   8.3445414  50.0190413  22.5759445
  78.4625016   6.2232697  21.2824855  77.7580856   6.2692225  20.6360183
  78.2163869   5.4955876  21.8535648  10.6091821  16.8981361  49.8283434
  11.5334165  17.1450806  49.7961044  10.6155729  15.9820426  50.1057625
  58.7306881  68.8260937  70.0558662  58.5854197  68.8134098  71.0018921
  59.3379927  69.5527220  69.9165201  71.6170733  81.8627913  17.8424965
  72.4294703  82.0997651  18.2898174  71.5486854  80.9148510  17.9563747
  -0.1436059  30.6218827   8.6991439   0.0913819  31.4118350   9.1859565
   0.2292474  30.7575620   7.8280531  35.8106981   1.1141360  11.1813579
  36.1128174   0.6053174  10.4289947  35.3323875   0.4839623  11.7201839
   3.1550964   9.9269069  47.4401603   2.3450001   9.5210088  47.7487407
   3.6359127   9.2133153  47.0208297  10.1760876  17.8021634  71.1091852
   9.5453846  17.1479416  70.8084536  11.0268223  17.4568462  70.8385611
  12.5063705  30.0167561  53.8051558  12.9361367  29.4654155  53.1512785
  12.8466737  29.7038198  54.6433020  13.8618692  22.4876988  30.2350937
  14.5175775  22.1248734  29.6395908  13.0324682  22.1184409  29.9318061
  61.7519477  56.2543964  60.4583931  62.2379544  57.0017767  60.8068943
  62.1502807  55.4924440  60.8790970  51.4998310  80.1143010   9.8833023
  51.7446321  81.0195406   9.6913467  50.8011954  80.1878365  10.5334793
   7.0650464  31.2441182  67.0959568   7.5150412  31.6577411  66.3593054
   6.1658478  31.1241627  66.7905331  42.4665700   5.8862985  13.9358459
  43.2293008   6.0274566  13.3749996  42.8329943   5.5840266  14.7668682
  38.3485007  65.0473070  64.7281551  37.8479648  64.7348738  65.4818630
  39.2600965  65.0223589  65.0190210   0.0633742  63.6054468  57.9867935
  -0.2224061  64.2854452  57.3767376   0.8914768  63.2909250  57.6240921
  22.1063757  40.6547737  59.9104929  21.1732531  40.7337427  60.1086807
  22.5375915  40.7061625  60.7635164  45.0692628   3.1661952  20.8065448
  45.8337234   2.8124059  21.2611423  44.3942462   2.4964345  20.9161125
  42.1639490  71.2010765  62.0053434  41.2379789  71.4066982  62.1339130
  42.1728897  70.5837631  61.2738514  64.8005299  16.3485825  36.6975723
  65.4540233  16.9003308  37.1274028  65.2565341  15.9838260  35.9391246
  79.1747771  31.2643540  19.5393978  78.6083756  32.0321334  19.4623218
  79.9975453  31.6076959  19.8878227  14.8496931  18.7484102  15.7974768
  13.9178246  18.5813551  15.6562483  15.2887230  17.9798632  15.4330468
  62.1485918  14.5414476  51.0233641  61.5389317  14.9671679  50.4206085
  62.7008718  15.2528696  51.3475704  25.6339490   7.7197866  57.5216436
  24.8316737   7.4113779  57.1003723  25.9513589   8.4186487  56.9497395
  58.1744950   4.9874430  51.1343622  58.6285632   4.4005041  50.5297518
  58.3199947   5.8620958  50.7737350  12.7520784   3.5024226  22.8740440
  12.6683887   3.8752711  23.7516628  12.3743041   2.6261294  22.9490696
  40.2572804   3.8235979  68.4250021  40.3936809   4.4702272  69.1174650
  39.5261460   3.2899408  68.7362719   2.7098378  31.1427367  28.6322532
   2.7791556  30.3392375  29.1478286   2.2834428  30.8699811  27.8198372
  37.3554551  27.5645475  54.4099712  37.6037972  26.7348890  54.8176670
  36.4339154  27.4507837  54.1774750  61.1540197  27.0805610  44.8279987
  60.9853770  26.7852652  43.9332424  60.7562815  26.4081633  45.3811012
  23.8956102  14.8451341  45.6561790  23.4068044  14.5531428  46.4256225
  24.7241863  14.3682254  45.7036052  75.8705201  62.4639273  18.1935012
  76.2898233  63.3227015  18.1394839  74.9566152  62.6285791  17.9613388
  62.3403709   3.0170088  60.6683350  63.0443781   2.7033071  61.2359619
  62.5705593   2.6904802  59.7984934  39.7847017  13.1838096   5.5648885
  39.4274600  13.4744656   6.4040123  39.9062332  13.9904035   5.0640236
  73.4431124  81.6014194  48.0521393  73.2834435  80.7064438  47.7525425
  73.7611294  81.5005207  48.9493084  36.2287879  51.5155506  62.4899721
  36.3719082  51.7861509  61.5830421  35.2879143  51.3481140  62.5443220
  24.7788344   8.4099591  12.4873672  25.2576767   8.8052571  11.7588935
  25.3678237   7.7338660  12.8223644   6.4823230  12.8761876   0.9001957
   6.7393716  12.0343268   0.5241237   6.4685186  13.4770835   0.1552377
  58.5433478  55.5261386  25.6266533  57.6233322  55.7811416  25.5575309
  59.0056618  56.3443339  25.8084522   2.8425177  68.8689197  19.8388515
   3.7370928  68.5292590  19.8632751   2.4998864  68.5806716  18.9928375
  17.1462568  37.5039590  40.3267131  17.0764860  37.3329842  41.2659393
  17.7688344  38.2280219  40.2606712  27.6417518  75.1629114  50.5045223
  26.8595839  75.7132769  50.4651976  27.5266480  74.5319939  49.7939396
  20.1123524  71.5520859  53.9680815  20.7229376  70.8542299  54.2055893
  19.3009484  71.0952330  53.7464046  73.5857616  17.4240935  26.7158447
  72.7007721  17.2585023  27.0408188  73.7006138  18.3701671  26.8052230
  15.8897281  81.7584896  60.3720665  16.4726281  82.2226715  59.7712421
  16.3368821  80.9306049  60.5478525  81.0531341  -0.2436339  21.6558490
  81.5161668   0.5926526  21.7054496  80.3595005  -0.1726186  22.3116336
   1.3084440   1.6093438  21.4621578   1.1168571   1.0591119  22.2216068
   2.0533119   1.1824315  21.0388885   7.7408099  42.6096296  65.8951950
   7.9562092  43.5410309  65.9434700   8.1387115  42.3139048  65.0763845
  38.5954451   8.1301050  51.3026619  37.7613055   8.5206633  51.0420609
  38.7640404   8.4854631  52.1753168   8.7052243  13.0243330  43.9530563
   9.4203609  12.3881464  43.9616728   8.5089534  13.1765966  44.8774576
  16.0818398  51.9863415  61.3262701  15.9875906  52.5366926  60.5488014
  15.2205682  51.5848398  61.4413452  24.2699385  67.1000338  67.0719004
  23.3819413  66.9869423  66.7329264  24.4977617  66.2449026  67.4367094
   7.3363622   1.8328202   4.0127407   8.2559975   2.0822823   4.1036878
   7.0110043   1.7854846   4.9117027  87.0165417  68.4995985  41.4254379
  87.0435326  68.1420755  40.5379248  86.1247947  68.3256578  41.7267084
  85.8288334  72.8540754  36.4626169  86.3233834  72.7252722  35.6532574
  84.9256606  72.6409340  36.2279248  84.2899524  32.0193208  54.4048153
  84.2156850  31.8544448  55.3447757  83.4336387  31.7788518  54.0510688
  44.3478804  63.0133374  27.1963344  43.8679522  63.7589677  27.5568042
  45.1803582  63.3835776  26.9028507  11.0186875  70.6436348  41.7007446
  10.8857942  71.3013697  42.3833561  11.9596207  70.4686451  41.7166853
  85.2155822   3.6079054  66.5508556  84.6197074   3.9676409  65.8937788
  84.9762195   4.0559607  67.3621416   1.2843844  43.1382227  47.7959299
   1.6828586  42.6485872  48.5154486   0.9535311  43.9379835  48.2047653
  62.0582526  55.5109656   5.8452926  61.3834049  55.0334895   6.3278137
  62.4657397  54.8497832   5.2858053  80.4340802  69.8028911  20.3921638
  81.0988079  69.1158450  20.3438984  80.4536425  70.0914157  21.3046299
   9.6976464  30.3573256  43.4919930   9.7007983  30.7304983  42.6105356
   8.8106411  30.0154619  43.6041784  38.6797786  75.9244537  70.1562548
  38.2249498  75.2378178  70.6440020  38.2400942  75.9458208  69.3062830
  83.1133127  56.6808796  67.3985195  84.0110865  56.9991016  67.4932241
  82.9911616  56.5861940  66.4538765  16.1389875  79.7842884  42.4221706
  16.6403341  80.0593662  41.6545630  16.7541707  79.2597628  42.9346657
  70.0077723  45.6451762   4.4307075  69.4458567  45.0773299   3.9034210
  70.8052240  45.1335109   4.5667110  45.8071852  78.3798647  49.0322018
  45.5407381  77.4611092  48.9986801  45.1643991  78.7948227  49.6074152
  62.4463950   8.7362206   4.6714149  62.9950787   9.4883788   4.8937593
  63.0021058   7.9756892   4.8417364  38.9056694  73.2051619  11.6942154
  38.1154614  72.8055723  12.0577179  39.6189158  72.6421817  11.9951664
  36.9416738  16.6939795  65.4581213  37.2960329  16.6532421  66.3463783
  35.9925318  16.6591477  65.5770683  80.4063831  39.6969092   0.3249584
  80.4233657  40.3327907  -0.3902974  79.4966804  39.4013179   0.3611026
  28.4505485   9.2699842  67.1530199  29.0695167   9.5198755  67.8390694
  28.0550467  10.0960569  66.8747807  46.4317142  56.5424121  10.8497463
  46.4801739  56.3457072   9.9142395  46.6171812  57.4797023  10.9073387
  69.7033992  46.8894482  66.4274359  69.0582850  46.2326527  66.6894960
  70.3919902  46.3879728  65.9908628   0.3451486  65.6818438  61.4633703
   1.2221599  66.0379934  61.3211012   0.4588319  64.7334385  61.4014292
  75.7576035  23.8668645   6.9564520  75.0984930  24.5434344   6.8013416
  75.3805028  23.3183349   7.6443039  69.5153569   1.8287719   1.4081035
  69.4773971   2.6107705   0.8574091  68.8459121   1.9739306   2.0766864
  30.5022462  14.5638590  13.2348824  30.9926818  15.1261930  12.6353085
  31.1714514  14.0327482  13.6665237   1.2051658  56.6851282  54.1830444
   0.8520462  56.2152433  53.4275723   1.3232307  56.0099936  54.8512411
  35.7934093   9.5980482  56.8398142  36.5419602   9.7623854  56.2663174
  36.1020600   8.9288740  57.4506855  64.2521455  73.5131311  32.1500564
  63.5343077  73.5357046  31.5172601  63.9231231  74.0039396  32.9031038
  45.1091259  20.2900629  67.9316187  44.9454110  19.9698763  67.0445395
  44.9714833  21.2355642  67.8741980  23.0725842   2.6516085  66.1219454
  23.1624519   1.7286901  66.3593531  23.8564556   2.8439836  65.6073856
  75.5377685  62.5522483   0.0106941  75.2245484  62.0686496   0.7750593
  75.8633278  61.8761695  -0.5835785  46.7578112  52.0031703   7.6181064
  47.5305866  52.5215018   7.8425775  46.0467993  52.6421512   7.5690637
  42.4884616   2.1268142  20.8463607  42.0685218   2.9867804  20.8279834
  42.3867236   1.8298686  21.7506347  69.9141167  31.4225829  18.0457721
  70.3547476  30.5729735  18.0612407  70.2940010  31.9028342  18.7814842
  40.6966537   9.8827581  70.4173470  40.5214458  10.4110746  71.1960793
  41.6376298   9.7106199  70.4514408  13.9627695  41.2308693  37.0550656
  14.6954811  40.6447315  37.2442937  13.2086611  40.6489086  36.9608593
   9.7171587  32.7006674  61.9468880   8.9632070  32.1121597  61.9088364
   9.3723136  33.5498643  61.6708899  80.1928364  37.6170266  17.2357975
  79.7064386  38.0583871  17.9321132  79.7642694  37.8997815  16.4279590
  60.2057999  81.9415887  12.5056968  60.3052061  82.3155005  13.3812175
  59.4641607  81.3415654  12.5842987  67.5917309  78.1121738  16.1505447
  67.6168817  77.1707614  15.9792553  68.5055726  78.3522208  16.3038574
   0.7265862  50.0344813  16.0857521   1.4102801  50.2690852  16.7132507
   0.7478793  49.0780223  16.0547958  83.1152545   7.4679292  40.5445419
  83.2878552   8.3415425  40.8955894  82.7450524   6.9824136  41.2817321
  48.5795687  24.7618211   1.3979087  49.2947291  24.5888246   2.0101581
  48.6507468  25.6965554   1.2044321  19.4853163  80.1707935  63.2389450
  19.0181732  80.0045681  62.4201775  18.9301455  80.7925797  63.7094688
  41.2682756  30.3232539   3.2714544  40.8274635  30.9107078   2.6576028
  41.9895872  29.9471248   2.7669988  57.6544785  36.1970628  19.9032531
  58.1597513  35.8533156  20.6399856  57.6709727  37.1465028  20.0237594
  20.4736018  80.1752663  50.4282522  19.6386337  80.6384563  50.4954529
  20.2338910  79.2485762  50.4256344  28.6582661  67.6624060  67.8568888
  29.5378971  67.3380470  67.6638317  28.0789995  67.1119261  67.3299599
  85.7421552  33.7745202   1.9360481  85.7476960  34.0895188   1.0321794
  85.6653749  32.8236163   1.8578325  30.4905415  60.7170153  63.2491589
  30.9436083  59.8748159  63.2899809  31.1480069  61.3562298  63.5237074
  83.3904212  75.8359058  13.4081588  83.7267678  75.6246288  12.5372539
  84.0853780  75.5613692  14.0063987  78.9658962  63.7499392   9.3578659
  79.5539962  64.1219962   8.7006508  79.2951475  62.8622687   9.4988094
  84.9945642  32.2162247  57.0439720  84.6739417  31.5908289  57.6938295
  84.5261351  33.0274463  57.2407627  77.1754204  11.8634141  26.0573421
  77.9478930  12.4223531  26.1416183  77.3316120  11.1449635  26.6702591
  12.3920568  51.4588702  36.4430080  12.4699624  51.8957007  35.5948768
  11.7082961  51.9468844  36.9018684   4.8155364  68.6882210  63.1357050
   5.1686794  67.8389978  63.4009218   4.2517203  68.9509439  63.8632488
  14.2504295  24.3137277  10.5776630  14.0607675  24.0342439  11.4732872
  13.3898338  24.4618380  10.1856552  68.3645981  20.8069639  70.3531265
  68.7652605  21.5889864  69.9734592  68.5084432  20.1227217  69.6994066
  18.2728541  48.6130762  54.9485779  18.0343580  49.3000841  55.5709696
  18.0952859  47.7958536  55.4142380  23.4237274  49.1607726  10.8987270
  23.7806972  48.3467353  10.5435501  22.9798349  48.8962043  11.7044483
  51.3377522  67.6463569   6.1613737  51.7080198  68.4374583   6.5528951
  51.6426723  66.9350589   6.7246757  60.2375024   2.8562193  52.9832172
  59.9862378   2.6477842  53.8830280  60.1869886   2.0197802  52.5205708
  -0.2125843  73.9086914  61.2784195   0.6539900  73.5834885  61.5223932
  -0.0669914  74.8249865  61.0429668  63.7526751  53.5325956  70.1656771
  63.1130981  54.0219307  70.6830978  63.4986925  53.6930990  69.2568541
  72.1327315  48.6077559  10.7158695  71.3447605  48.1892932  10.3691326
  72.1046625  48.4295524  11.6559158  26.0902246  34.4063151  16.5668235
  26.6453727  34.8303426  17.2212253  26.4714559  33.5351336  16.4575706
  24.8704863  69.0482330  68.9610577  24.9612951  68.5226774  68.1662130
  24.2751169  68.5435390  69.5151758   1.6372784  16.3457692   1.2940107
   1.8744191  16.6716063   0.4257761   0.9255966  16.9190276   1.5788160
  19.0026124  11.8542350  13.6618076  18.7095483  12.2478497  14.4836364
  18.3300050  11.2058080  13.4535537  86.5559003  69.1170883  33.0993056
  87.3248756  68.5571718  33.2060933  85.9136827  68.5605240  32.6588202
   8.8075574  58.9039100   2.7429090   9.5392664  58.6913741   3.3222709
   8.4389933  58.0542815   2.5009905  59.3251881  28.4462464   2.2313486
  60.0283994  28.9721644   2.6123176  58.9518532  27.9715550   2.9739938
  50.5770939  10.1620417  64.6445799  51.0770004  10.9754209  64.5756769
  51.0913723   9.6143370  65.2376795  69.5942198   5.1813472   1.8735824
  69.9328493   4.7668374   2.6671444  68.6434756   5.1688540   1.9838558
  68.1067222   7.8245478  62.1627188  68.2172983   7.6237707  63.0920696
  68.9325326   7.5563173  61.7598248  56.6187961  41.9411052   1.7792736
  55.7756855  42.2374881   2.1221386  56.3915713  41.3705218   1.0450874
  51.8776922  18.6471284  15.7989631  51.3418202  19.2931188  16.2591396
  51.2460111  18.0239594  15.4399715   7.5782448  77.0734739  40.8322763
   6.9761980  77.3115969  40.1272440   8.0084193  76.2770081  40.5211115
  13.9102538  13.0041278  26.4467941  14.8004850  13.3339894  26.5688930
  13.8006385  12.9564774  25.4970871   2.1653493  19.0643657  32.7292572
   1.9708928  19.8615659  33.2220970   2.7724179  18.5793126  33.2882057
  65.5550467  28.4433139  39.4053493  65.8544992  27.6967299  39.9241577
  65.3318541  28.0687249  38.5532318  32.9987860  71.1252213  55.4733706
  32.4493814  71.6628933  56.0437155  32.6012945  71.2117624  54.6069145
  33.8130498  69.8320293  65.1092291  34.1723871  70.6035519  65.5472517
  33.6743069  69.1993618  65.8140087  73.1255685  17.2931827  30.7712780
  72.1809147  17.2385419  30.9157596  73.2255565  17.9576123  30.0895343
  31.8629440   8.7522996   3.6776958  31.2181934   8.6988080   2.9722438
  32.6112970   8.2490313   3.3568845  21.4559921  33.7838519   4.3490110
  21.8082126  34.5998347   4.7044693  20.9193261  34.0584386   3.6054884
  49.2998695  47.4660969  70.0207472  50.2416801  47.6220894  69.9508333
  48.9038467  48.3270836  69.8862171  35.6221066  47.5426543  14.7953926
  35.7862984  48.0446685  13.9971100  35.5622660  46.6344226  14.4991241
  70.0130282  54.1825545  25.6962047  70.0186096  53.4261764  25.1096187
  69.2731129  54.7115100  25.3979431  42.3831945   1.2003164   2.0292471
  42.3259919   0.5782728   1.3039693  42.7851909   1.9795637   1.6453157
  57.6177334  10.3357327   5.9716545  57.1965247  11.0699714   5.5247627
  58.5553292  10.5003417   5.8713995  29.0812404  81.4118999  69.7633505
  28.9921338  82.1734049  69.1902828  28.3393199  80.8519725  69.5347261
  19.1481173  64.0818548  51.7102528  18.7566912  64.9472332  51.5913820
  19.2809355  64.0068054  52.6552200  16.1761808  64.2709541  54.5588017
  16.2219262  64.5752954  55.4651785  16.9695985  64.6165228  54.1497803
  39.3584800  72.9589796  48.3723068  38.6837125  72.8047514  47.7111435
  39.8530006  72.1400833  48.4053898  46.9916916  61.4261150  65.1091337
  47.6558399  61.1583519  64.4739628  47.4928379  61.7527294  65.8563995
   7.0531589  74.5292902  55.0010300   7.5908351  75.3164911  55.0873709
   6.2089342  74.8495293  54.6832848  66.3223761   0.5760221  31.2258816
  66.6430347  -0.3258295  31.2168956  65.7717579   0.6422262  30.4457092
  44.8445845  78.4913301  52.0292091  44.4851112  77.7637482  51.5216303
  44.4866657  78.3697701  52.9086161  82.3334967  41.9387401  21.3687931
  83.1373535  41.6908801  21.8255363  81.6465460  41.8542159  22.0299945
  84.0816056  47.7086878  55.2463150  84.6733357  47.9928780  55.9429693
  83.9345026  46.7791986  55.4213524  45.8513480   4.3866281  49.5637035
  46.4594107   5.1223688  49.6356344  45.4933982   4.4573812  48.6787748
  13.6337884  62.0391143  -0.0536122  13.9701827  61.7826236   0.8050333
  13.4203943  62.9674876   0.0403104  82.4207603  59.0126193  15.4929290
  82.0307265  59.3464435  16.3008056  83.0530082  59.6841395  15.2369056
  17.4702199  53.1197417  32.1241317  18.3913883  52.8596080  32.1212612
  17.4896415  54.0684665  32.2497020   0.1267799  44.7618449  12.8084980
   0.8065089  44.1314090  13.0467353   0.3646549  45.0487960  11.9268451
  17.6921543  39.2296279  34.0059314  17.1189578  39.2151416  34.7723899
  17.7642473  38.3119595  33.7433849  22.1148825  68.3394241  68.7804461
  21.4905071  67.6199770  68.6867142  21.9200540  68.9227295  68.0469465
  29.4459009  46.2874126  70.3961611  29.0899849  46.2936449  71.2847090
  28.7745237  45.8503437  69.8722839  73.8588851  38.0129271  51.0774231
  74.3096679  38.1015520  50.2376747  73.1275933  37.4226980  50.8955812
  85.9882253   7.9003172  55.7490110  85.5759471   8.2019739  56.5584946
  86.8546956   8.3070402  55.7555342  67.9001914  30.2615655  11.9875465
  68.5501455  29.9615109  11.3521228  67.4156927  29.4712222  12.2259746
  23.4370708  74.8300918  18.0008445  22.8723442  75.1868828  17.3152671
  22.8399055  74.3590649  18.5820137  43.7039137  67.0173550  58.6283159
  43.4364510  66.4733744  59.3691158  44.1769886  67.7481508  59.0262699
  76.3634871  39.8740256  28.3658348  76.5807270  40.0765765  29.2757927
  75.6738208  40.4980624  28.1396328   9.0526667   7.3370104  25.1594710
   8.7555495   7.9088812  24.4517159   9.9901762   7.2268419  25.0008082
  85.5974256  27.9143584  16.7210708  86.3816892  27.8079331  17.2594391
  85.0784360  27.1293414  16.8960891   5.7164844  38.8318742   8.4824834
   5.3176697  38.4736598   9.2754875   4.9769362  39.1526950   7.9663692
  49.2651265   4.8011904  48.7858391  48.8154512   4.1597490  48.2357740
  48.6295705   5.5081301  48.8978100  37.6153215  18.8536561   0.7715164
  38.4397491  19.1831124   1.1293016  37.7109083  18.9478362  -0.1762308
  81.8743835  21.0185016  36.4372478  81.4114700  21.8360055  36.2538658
  81.9258486  20.5770314  35.5894981  15.4106259  24.5510936  57.2679615
  15.2384007  23.8945627  57.9428959  16.0112548  24.1186810  56.6609240
   8.1216105  37.7330554  35.7430397   8.5573157  37.4662078  36.5524803
   8.8317974  38.0366004  35.1775966  72.6791416  17.3507226  10.6055008
  71.8710421  17.8338445  10.4328762  73.3749114  17.9969991  10.4852424
  49.4659012  31.9981127  60.0387859  50.0004333  32.7759771  59.8792934
  48.5746890  32.2711496  59.8210287  25.2160948  11.6753893  29.3817496
  25.3135725  11.8303804  28.4422255  26.1104267  11.5450697  29.6970582
  15.6243742  57.9990435  64.5137501  14.9783540  58.4373474  65.0676298
  15.4790533  58.3645439  63.6410999  65.8672571  66.9466257  69.8364687
  66.4132452  67.3097372  70.5338049  64.9698400  67.1264553  70.1167107
   7.1234089  66.1576939  56.9449043   6.3019669  65.6690502  56.9967747
   7.8005648  65.5088711  57.1365404  77.0858811  32.6604331  28.2267986
  77.4613987  33.0160344  29.0322528  76.3610958  32.1098817  28.5231243
  15.8274451   2.8938417  29.0522671  16.2715378   3.0281286  29.8895097
  15.8991232   3.7371569  28.6051536  81.8530737  33.0071414  28.9579521
  81.7901145  32.0534528  28.9055000  82.7439271  33.2046235  28.6687885
  79.5161448  62.9456866   5.3770815  80.1615249  63.3781970   5.9362302
  79.9809776  62.7831614   4.5562587  82.0258437  10.5967772   6.3545929
  82.1855722   9.7902739   6.8447672  82.7900229  11.1434615   6.5373502
  76.7298208  28.3055747  46.3319717  77.2165166  28.7364829  47.0345913
  75.9784196  28.8775170  46.1754070  36.8378400   4.2575388  50.6904554
  36.8285333   5.0991659  50.2345896  36.9263767   4.4871550  51.6154814
  59.1614876  36.1290372   0.9402595  59.4532053  35.2361978   0.7559476
  58.3407896  36.2177051   0.4556690  36.6062938   5.1304464  62.6114082
  36.8402510   5.7142477  63.3329868  35.7848661   4.7245436  62.8884172
  33.0579805  68.1568813  66.9660139  33.6184072  67.3928452  67.1016598
  32.3088169  67.8201628  66.4744806  37.5349092  81.7188358  42.2632599
  37.2576165  80.8813000  42.6345634  37.9358411  81.4883041  41.4252043
  64.0179871  17.0998013  20.0238166  64.9256520  16.8187297  20.1394687
  64.0236972  17.5974811  19.2061840  -0.1067487  18.3639014  23.7400184
   0.3436955  17.7688563  23.1406341   0.5604657  19.0034974  23.9889560
  49.5680945   1.9809847  52.4107981  48.7640267   2.2403841  51.9608879
  49.4300192   1.0611467  52.6367807  57.6736062   7.4218762   6.5333019
  58.0805432   7.1067965   7.3403679  57.1684018   8.1887353   6.8033538
   4.7684105  29.1909278  18.4019790   4.4336279  28.8103736  17.5899826
   5.0529178  28.4379208  18.9199291  18.0853637  44.9855006   5.7034097
  18.4588941  44.4414962   5.0100361  17.2306903  45.2519191   5.3646074
   8.0896988   9.1717367  53.9486313   7.8388777   8.9246016  53.0585480
   9.0253535   8.9756613  53.9969826  41.5851980  -0.0619001  55.5269146
  41.3539272   0.7934790  55.1648617  42.5420373  -0.0601168  55.5531502
  29.9148846  60.1453018  48.3616257  30.1210117  60.9710884  47.9236507
  30.2758002  59.4718122  47.7851009  70.3597730  36.8175058  62.7364016
  70.6773894  36.1736135  63.3694553  69.5316165  37.1263151  63.1038570
  26.1416507  63.0819464  65.1007175  26.8680573  63.4408426  65.6103802
  26.4039564  62.1810579  64.9114275  65.1225894   7.0981340  68.2297421
  65.3253668   7.5571375  67.4146175  64.2032497   6.8468695  68.1408072
  13.6172521  68.8231039  56.1372328  14.2001224  68.1830072  55.7288551
  13.7568343  69.6273375  55.6372786  81.6174518   0.2573836   8.6457048
  82.4086081  -0.0393331   8.1959711  81.0926496   0.6702388   7.9598699
  73.2024138  51.5858488  67.1034145  73.9051383  51.1127882  67.5490808
  73.1979745  51.2276487  66.2157726  15.6916173  55.2499259   3.2052932
  16.6162094  55.0075496   3.2564102  15.3290494  54.9914515   4.0526233
  70.2181952  14.2703752  48.8633966  70.7744926  14.9417715  49.2583656
  69.3788426  14.7080069  48.7212467  37.1621156  79.3012857  40.2895832
  38.1177950  79.2574692  40.3210497  36.9368720  78.9910221  39.4125271
   8.4472092  38.2883656  15.7406459   9.2511924  37.8530848  15.4571376
   8.3687814  39.0469611  15.1621853  17.0096397  49.0095472  52.4902010
  16.8018413  48.0917358  52.3150635  17.4739921  48.9945126  53.3270884
   0.7363054  50.0974703  65.2946663   1.2933946  49.4133568  65.6659842
  -0.0565546  50.0778294  65.8305931  81.1748495   1.2501971  39.0606499
  80.8178481   1.2587892  39.9487424  82.0940133   1.4941078  39.1696334
  14.2515230  48.9996767  56.5488005  14.1467488  48.9560509  55.5983543
  14.3126929  49.9355221  56.7403173  43.5242328  76.3567812  63.5208654
  43.4551451  75.5512722  63.0084085  42.6423034  76.4980651  63.8650608
  15.6580026  74.3902810  14.6727931  15.7236726  74.0541596  15.5666292
  15.1177985  73.7468828  14.2140448   3.8733789   5.1118433  37.4256873
   3.0942300   5.6578451  37.5307608   4.4446230   5.6182516  36.8482232
  62.9849524  76.5532978  27.4010086  63.5685465  76.0801513  26.8078947
  62.3053807  76.9137265  26.8313551  60.0158351  47.5262405   5.0499139
  59.7305863  47.4301173   5.9585510  60.0658482  48.4723331   4.9133859
   1.5644331  30.6396270  41.3909340   1.7697129  29.7432685  41.1251640
   0.8968721  30.9271812  40.7681131  78.9471289   5.9967816  25.3110218
  78.1315782   6.0131109  24.8101807  79.0334776   5.0878739  25.5985332
  86.3960214   5.8843344  60.7292175  85.6517882   6.4114797  60.4385853
  86.5112562   5.2314562  60.0387812  84.0792459  53.0259557  19.9914585
  84.4028228  53.8635512  19.6598564  84.8677724  52.5527974  20.2571235
   9.0868402  15.0447869  42.1184015   8.8506621  14.4109690  42.7956963
   9.4619751  15.7817888  42.6004124  35.0924087   8.3282191  36.6663170
  35.8426762   8.0038512  37.1644306  34.6542954   8.9361858  37.2618532
  44.8883963  12.7316129  25.1393628  44.8998070  11.7746663  25.1205754
  45.2026796  12.9577494  26.0147595  79.4191655  55.1513338  56.1602974
  79.6993628  55.6329823  55.3820038  79.2145368  54.2735672  55.8379889
  41.7398357  17.6272810  53.7200785  41.6568756  18.2788289  53.0237770
  41.0679293  17.8704917  54.3569660  86.0671901  21.9927335  24.7615886
  86.3830585  22.8940415  24.8256135  86.5308226  21.5264750  25.4572034
  62.0496619  81.0903224  44.8425961  62.0342040  81.8668317  44.2831087
  61.7540613  80.3794111  44.2738628  36.5435290  26.8185806  62.0104361
  37.4443245  27.0394492  62.2471189  36.5019417  25.8655524  62.0894289
  71.9988158  25.3024817  32.4429607  71.8252888  26.1634874  32.0624447
  72.9529503  25.2261186  32.4375510   6.2132919  57.7518797  58.2715607
   5.5303186  58.0116367  57.6532555   6.0771096  56.8129301  58.3983088
  11.9884253  70.1476812  48.7341166  12.7990460  69.6478653  48.6376381
  11.3085604  69.4827271  48.8429832  73.2428625  24.1879058  70.4999399
  73.5427239  24.9758506  70.9532118  73.5731223  23.4646559  71.0329247
  64.4983628  53.8617182  45.5843496  64.7306588  53.8533974  44.6557999
  63.9090469  53.1149483  45.6905127  74.0393517  68.6446126  32.2332025
  74.6393356  69.3578358  32.0151114  74.4971535  68.1447108  32.9090333
  19.3066573  23.3889794  41.2149811  20.0869560  23.9301109  41.0943842
  19.1737199  23.3682084  42.1626806  55.4657262  56.3833030  11.7047248
  54.6006458  56.7288919  11.4846454  55.8723205  57.0723470  12.2302089
  60.1861566  72.2739680  10.0811325  59.3780177  71.8401368   9.8073898
  60.6408852  72.4719365   9.2624317  12.7833295  27.2207928  63.2847214
  13.1180739  26.6877341  62.5635910  13.5063958  27.8084874  63.5038567
  74.3959549  53.7608051  48.9577532  74.8106053  52.9909420  49.3471193
  73.4866848  53.4972954  48.8162518  13.8745129  32.5237560  41.1569500
  14.1284382  31.7789984  40.6118917  13.4336948  33.1224942  40.5541039
  49.8087263  41.7786407  67.5411129  50.2342129  42.1102524  66.7504025
  48.9235306  42.1412516  67.5067997  86.0086832  71.5331466  33.9664721
  86.5916309  70.7794745  33.8749146  86.4188347  72.2186430  33.4391165
  64.8079732  48.4405422  51.2505007  64.7209122  47.6452446  50.7249928
  64.8747614  49.1464138  50.6074429  18.2412052  15.2650428  41.9943285
  17.8297663  14.6319640  41.4059734  17.7001560  16.0508466  41.9168139
  12.7160781  62.5681122   7.4321495  12.1279424  63.2176693   7.0469127
  12.6691716  62.7313717   8.3741556  63.0313418  34.6777267  70.9482718
  63.7793669  34.5522757  70.3643560  62.8322736  35.6118698  70.8851910
   2.6861495  28.8282323  25.2942204   2.9334927  28.9904046  24.3838620
   3.4316111  28.3554721  25.6643796  72.3362383  81.3980537  70.7366657
  73.1729874  81.0364271  71.0287380  71.6879294  81.0025340  71.3193226
   9.7177452  10.3458142  14.6214783   9.7137886  11.2876523  14.7922313
   9.0235758  10.2166486  13.9751995   5.6508953  73.9462186  36.7379236
   5.6012184  73.0505819  37.0719886   6.4637858  74.2939205  37.1047235
  21.1998558  14.6966040  42.4540615  21.0554790  15.1911902  41.6473579
  20.3503585  14.7044599  42.8951073  72.6870086  32.2804761  56.7894268
  73.4002223  31.9688725  57.3466206  72.5231674  31.5577865  56.1835337
  63.4023788  24.0041590  39.7697186  62.7190831  24.2701983  39.1544461
  64.2223432  24.1945863  39.3140578  78.9366685  15.8217872   0.2874122
  78.2622062  16.5006936   0.2668796  79.3440829  15.9148848   1.1485611
  56.9452494  82.0237430  10.6518398  57.1900814  81.7037042   9.7835861
  57.4012797  81.4411910  11.2592159   9.6451032  65.2406693  63.5811472
  10.3280103  65.0654888  64.2285872   9.6896505  66.1857128  63.4357595
  25.1849695  71.8406327  36.5996109  25.0343954  70.9512361  36.2794052
  24.3468612  72.1032865  36.9801651  81.3812777  32.0569324  33.3782840
  81.8319240  32.0180273  34.2218685  81.8129357  31.3893604  32.8451324
  12.0584130  47.2214985  52.1008396  11.1156845  47.2709703  52.2590971
  12.2133005  46.3080311  51.8603849  60.8727076  21.4433432  21.1022091
  61.6053560  21.7598915  20.5737662  61.2224081  20.6817102  21.5646553
   3.0724543  61.9833429   2.0720325   3.4412616  62.7724131   1.6750656
   3.4965604  61.9252904   2.9281889  23.7252521  57.1509822   3.5328088
  24.3019985  57.1900852   2.7698742  23.6572813  56.2176557   3.7340866
  10.1157331  22.0997739  38.3407521  10.5886149  21.4026904  38.7953830
   9.1972423  21.8338180  38.3840513  27.7071500  28.4454560  64.6143293
  28.1350446  27.9455400  63.9191866  27.7157593  29.3493271  64.2994118
   1.1863620  37.8900695  38.3129859   1.9529191  37.5161791  37.8784418
   1.0103924  37.2952247  39.0419745   7.5816894  55.6164551  20.5846596
   7.5469053  55.7608223  21.5302706   7.7721024  56.4796543  20.2174306
  77.8107133  45.9200573  58.7904453  78.2302191  46.5033054  59.4229555
  77.5507012  46.4947701  58.0704880  68.7512269  59.4373560   3.0508134
  67.8355446  59.5555162   2.7982351  68.8000837  58.5320568   3.3578587
  20.1364666  35.2111115   2.4687324  19.2218529  35.4916968   2.5001226
  20.4547619  35.5262114   1.6227804  77.2880730  56.5417290  57.8026342
  77.8460744  55.8973455  57.3671627  76.4166763  56.1456442  57.7986145
  67.6583173  70.6329918  66.4053106  67.6026943  71.5829086  66.5091848
  67.2343412  70.2812195  67.1880817  20.3356981  59.3380833  31.6530180
  20.8014417  58.5433769  31.3927150  20.9647536  60.0440121  31.5040851
  20.5992770  46.8519878  62.4646044  19.7017527  46.5922213  62.6724529
  20.7277751  47.6720238  62.9413271  78.4273085  72.2165394  32.1620584
  77.7591648  71.5972853  32.4558926  79.1875365  72.0275116  32.7121067
  15.9592795  43.5080433  50.2228880  16.4019370  42.6760864  50.0551701
  16.3085890  44.1031933  49.5595551  80.6088553   2.7047456  22.5864349
  79.6678577   2.8355420  22.4696098  80.7249652   2.6335490  23.5338913
  85.8276747  31.9434333  50.8147907  85.8914056  31.6396880  51.7202806
  86.5354241  31.4878631  50.3589678   4.7636893  51.9180822  31.0815120
   5.3782463  52.2815466  30.4439807   4.4712028  51.0950565  30.6899548
  16.3911474  28.5851121  53.8717365  17.1854758  28.0596137  53.9672756
  15.7394457  28.1338358  54.4082737  18.6773622  49.5841646  67.8843832
  19.2587054  48.8324738  67.7693415  18.7334538  50.0594091  67.0553923
  81.9358649  15.8845437  53.8093567  81.4910349  16.1031473  54.6282434
  81.7211517  14.9640167  53.6584902  22.5928020  39.7238255  65.9177637
  23.5238433  39.5998263  65.7333279  22.2097254  38.8529634  65.8124876
  77.3360249  40.3838539  34.2790318  77.4915614  41.1526442  34.8276663
  77.2106936  40.7389927  33.3990335  15.1496926  43.7632488  17.9194866
  14.5546904  43.3400265  17.3005424  15.7207766  43.0577175  18.2233368
  54.0689920  10.1744044   3.3740221  53.4771009  10.3252137   4.1110073
  54.7599860   9.6170485   3.7319456  17.7905440  45.9500170  66.6176844
  17.2171068  46.6015911  66.2141323  17.6071322  46.0171127  67.5547457
   6.5081245  41.4838648   9.5778799   5.6540674  41.8449163   9.8154938
   6.3046986  40.7458496   9.0032643   1.9671495   2.4362376  52.7424812
   2.4605308   1.8744354  52.1448326   1.1437874   1.9694011  52.8852081
  60.9075763  17.1068072  30.6132460  60.9552410  17.8140759  29.9700284
  61.5694859  17.3324573  31.2668443   4.7017467  41.1276293  54.6555042
   5.0551081  40.9568691  55.5285454   5.3371650  40.7326365  54.0584612
  16.8291950   8.8950109  45.9356403  17.7341783   8.8803267  45.6241608
  16.5645778   9.8117620  45.8596325  -0.1079614   1.6090898  29.9369693
   0.1014035   1.4389925  29.0185666   0.7095211   1.4380865  30.4046321
  17.8700352  60.2923775  48.4913540  17.9734075  61.2214851  48.6970186
  16.9802642  60.0819159  48.7746286  39.5588511  60.6693418   8.5398231
  40.1668292  59.9442740   8.6842905  38.6937421  60.2918156   8.6988578
   0.8597482  61.3766146  53.4353399   0.4077699  60.8665276  52.7632093
   0.3234559  62.1624374  53.5407066  82.3184633  43.0435419  65.5964041
  83.1968206  43.4142876  65.5111599  82.4183642  42.1282864  65.3345585
  41.0891395  77.6562269   7.0050130  40.2105980  77.6586063   7.3849998
  40.9499805  77.8532799   6.0787092  49.2758196  64.3394716  24.5620857
  49.8769777  64.3975480  23.8194786  49.7271793  63.7779029  25.1922832
  83.5174593  74.6913195  57.7025270  84.0318492  74.7525597  56.8976116
  84.1380107  74.3768740  58.3599997  27.3710728  23.5071278  50.5781174
  27.3138118  24.3393350  50.1086664  27.3395538  23.7512708  51.5031195
  20.7825446  24.1483355  30.5598474  21.5953588  24.6346927  30.6977558
  20.6252623  23.7036347  31.3927555  16.9897199  44.3290138  63.6825514
  16.5201044  44.8311663  64.3485355  17.0972586  44.9399042  62.9535246
   5.5566772   2.0770228   0.6764494   5.9222158   1.1967528   0.7644115
   5.0768884   2.2197593   1.4923320  13.2781267  39.6578097  28.8725615
  13.0000508  39.7967172  27.9672384  12.8649986  40.3692532  29.3618512
  72.4113777  25.7575107  39.3953371  72.3796644  26.6801596  39.1424584
  72.9554882  25.3440332  38.7251043  15.2952421  28.0165720  61.2275839
  15.6123197  27.4570370  61.9365358  16.0405588  28.5778737  61.0138607
  70.0259855  25.1998401  66.4913034  70.0094130  24.3151236  66.1262941
  70.0134828  25.7748795  65.7261896  55.7553332  68.2788570  12.3942695
  56.4961260  68.5902603  12.9143558  55.0073045  68.7802942  12.7186905
  47.5692259   4.2269957  11.5115772  46.6570233   4.2854417  11.7956577
  47.5332199   4.3518746  10.5632434  32.0255908  61.8015106   7.2525297
  31.8993407  61.3178189   6.4362369  32.9577606  61.7040761   7.4469457
   7.9751617  67.0094490  45.5715322   8.3016062  67.6224899  44.9128675
   8.6885267  66.3821793  45.6893349   5.8152301  75.0394447  10.5362248
   5.4020912  75.3248836   9.7213179   5.2403218  74.3494631  10.8673418
  71.6780874  77.4316658  50.1230335  71.3661298  77.5897585  51.0140562
  72.4067697  76.8201513  50.2293539  12.3984015  48.8710356   3.3317727
  12.1580589  47.9446602   3.3145434  13.0218923  48.9701366   2.6122802
  80.7277026  33.3444810  60.0876331  80.0464478  33.8465905  59.6404123
  80.8047589  32.5381565  59.5776033  79.3993309  29.4863844  54.8752213
  79.2343482  30.4270768  54.9393368  78.5827395  29.1227865  54.5328665
  15.7918239  28.2407546  57.5885344  15.9878612  27.6388788  56.8705177
  16.1880350  27.8324270  58.3582878  75.3879287  46.9497156  53.3174610
  74.8694542  46.6226006  52.5823355  75.5058708  47.8812647  53.1316233
   2.1144183  47.9570961  66.5396976   1.6210350  47.1657848  66.3237524
   3.0312008  47.6836157  66.5088701  58.4359448  70.7433827   8.7896762
  58.4971421  69.9032553   9.2442833  58.8367360  70.5831559   7.9353176
  68.2930558  80.1519473   4.5660101  67.8408926  79.7872050   5.3267608
  68.4513515  81.0671409   4.7975193  13.7225854  36.9427037  20.6470180
  14.1186368  36.0714960  20.6278014  13.1065643  36.9096708  21.3789034
  14.0556610  49.5220375  47.2779942  13.8226390  49.7117472  48.1868124
  13.7180126  48.6398268  47.1233130   2.9437143  19.9577109  71.1893777
   2.8847129  20.8742682  70.9198019   3.0004436  19.4696252  70.3679233
  72.6297071  58.6640120  36.5163517  73.4638693  58.5292149  36.0666466
  72.2109296  57.8033257  36.5073419  79.1098693  28.9653993  58.3383417
  78.5022285  29.5073175  57.8350210  78.6314997  28.7494087  59.1388035
  75.8774152  29.1729355  36.9826388  76.0097327  29.9457836  36.4336109
  75.0964501  28.7534833  36.6215515  70.4692482  13.7084115   0.3919063
  69.8187743  14.4095767   0.3533970  70.1289462  13.0334914  -0.1953759
  69.9243703  10.0421512  46.4772272  70.0027611  10.1445174  47.4257040
  70.0962474  10.9162283  46.1269665  79.1466477  46.7136621  51.5229321
  79.4082859  46.7302084  52.4435329  79.7077640  47.3654222  51.1027098
  40.0294113  75.2345562  59.0174627  39.9608707  75.7966328  58.2457113
  39.1503930  75.2396584  59.3963146  29.9085017  80.7679875  24.5149265
  29.4992955  80.4243739  23.7207447  29.1773712  80.9247024  25.1125179
  35.4731392  69.5056518  31.5129791  35.0571262  69.1523369  32.2993217
  36.3085812  69.0420564  31.4551101  14.7359180  43.8002920  57.3456860
  13.8291061  43.7972832  57.6521397  15.0483561  44.6859264  57.5307894
   9.0837114  11.9071989  52.1698666   9.2481916  11.2624006  51.4818096
   8.9903801  12.7374392  51.7027187  35.3527051  57.8011115  15.9385048
  35.4766028  57.9508491  16.8757663  34.5534360  58.2816000  15.7227932
  42.6652258  67.1890266  11.6858898  42.1989553  67.8450449  12.2040306
  42.6418810  67.5293405  10.7915340  11.4284253  13.4899330  67.5959682
  12.0751452  13.0648315  67.0326948  11.9041634  13.6823642  68.4039736
  21.8989944  74.9082899  11.7952180  22.1914554  74.2982721  11.1180365
  22.2033262  75.7643795  11.4940190  61.6655400  31.4627671  61.9392824
  61.3369920  30.6836033  62.3878288  62.6117017  31.3277221  61.8866205
  11.4900279  36.2507653  32.5127292  11.2986481  37.0709991  32.9675078
  10.9018421  36.2527204  31.7575693  12.8967786  32.3330641  31.1958718
  12.3943698  32.0691156  30.4250598  13.0345047  33.2733774  31.0815382
  72.2561743  33.2598400   7.7313739  73.1488814  33.2880592   8.0756265
  71.7441418  33.7801027   8.3505505  69.7992613  59.7902870  42.1454573
  70.4474070  60.3266239  41.6888523  70.2790728  59.0036154  42.4046087
  72.0048275  67.5107718  53.3941793  71.9317808  67.2382641  52.4795055
  72.7156904  68.1517839  53.3970785  63.4399854  51.6159118   3.4551893
  63.5453193  51.0371173   4.2102657  63.7207489  51.0879863   2.7077280
  19.1342270  39.3868351  69.2270803  18.2570326  39.5969200  68.9067268
  19.7046065  39.5236945  68.4706593  17.2946465  36.6385818  33.5573030
  17.7202559  35.7852983  33.6409545  16.3590038  36.4381289  33.5323548
  56.2568566  11.7211879   1.7748581  56.7824505  12.4548734   2.0937477
  55.4326119  11.7897571   2.2566782  82.4494150  52.8225708  62.7408171
  83.2727161  53.3055687  62.6692629  82.6153314  51.9975281  62.2847414
  26.2476778  40.1786900  40.1838684  26.2607121  40.9951305  40.6833458
  25.6702137  40.3606606  39.4424820  59.8496740  77.0088680  13.2524334
  59.6936005  76.9806560  12.3084674  60.1364534  76.1230143  13.4743629
  85.6742869  48.0072498  51.8599796  86.2178473  48.0918312  52.6433182
  85.4626569  47.0748281  51.8148375   9.6595722  22.3961258  59.7937107
   9.1279477  22.6168299  60.5584955  10.5580330  22.5862646  60.0636148
  71.2299266  28.2189894  47.4110031  70.3026512  28.0669236  47.5933933
  71.4405027  29.0193748  47.8919125  86.2561165  17.0234216  10.7338462
  87.0556746  17.2270501  11.2191044  85.8134018  17.8665507  10.6370483
  76.9244816  74.5772886  70.6891441  76.6466715  75.4919720  70.6401062
  76.7638292  74.2307949  69.8114347   2.7448225  41.7978716  32.8258562
   3.0007643  41.0416365  33.3539033   3.1011099  41.6146088  31.9565415
   6.7382610  49.2176676  58.0116749   6.3472974  49.5197487  57.1918392
   6.1053658  49.4671345  58.6850548  13.2504940  23.3581781  65.8959246
  13.5993755  23.2587171  66.7817116  12.8717923  24.2372108  65.8849621
  48.2680200   8.3822596   5.0999818  48.3849405   8.1416524   6.0190426
  47.5708090   7.8052771   4.7881780  16.4205086  51.5225458  42.2656679
  17.0283222  52.2019815  42.5574970  16.9823158  50.7857895  42.0252705
  39.8304224   3.4756675  23.4555030  40.0668955   2.5482708  23.4712124
  39.0694094   3.5386035  24.0326786  72.0241509  25.4480756  16.2183796
  72.8960107  25.4141057  15.8247600  72.0157288  24.7242129  16.8446289
   0.0999753  61.8503618  43.5763311  -0.1512180  61.0530806  44.0426731
   0.9685393  61.6577005  43.2231855  71.3585475  43.8118505  59.3050480
  71.1960414  44.1956234  58.4433413  72.1832385  43.3365774  59.2039108
   1.2061065  31.1202717  49.2766476   1.7321452  30.9022832  48.5072327
   1.6904491  31.8254972  49.7059488  37.5062095  10.4860604  26.1170993
  37.1051441  10.7942498  25.3044448  38.4384619  10.6754506  26.0109459
  51.5881662  14.1061604  11.7162834  51.4063089  14.0338719  12.6532684
  52.5307129  13.9562810  11.6429744   8.2145447  47.4873543  39.4203591
   7.6719284  48.2629490  39.2780638   8.2966489  47.0901346  38.5533476
  71.2941640  62.4968441  27.4558578  71.3900846  61.5460189  27.5103222
  71.5616887  62.7137883  26.5627704  86.9001509  31.3082886  53.6515999
  86.0345500  31.5908241  53.9467955  87.4918615  31.9997573  53.9482164
  31.9909199  46.9782539   8.2947956  32.3502602  46.8198468   7.4218641
  32.7591216  47.0393647   8.8625656  80.3947463  54.7223854  32.7058530
  80.0984177  55.2463961  31.9616508  79.7912296  53.9798594  32.7313924
  80.9993731   9.5846332   9.8233638  80.3508054   8.9818442   9.4597183
  81.7139731   9.0192569  10.1164947  53.2629602  66.6940482   9.2164455
  52.5367539  67.2768648   9.4382225  52.9828136  65.8332427   9.5275150
  20.4488611   6.8861729  58.0269432  21.0001493   6.9437069  58.8073301
  20.4187584   5.9513599  57.8233528  50.0343994  62.2235913  38.1570482
  49.6715579  61.9176645  37.3257923  49.3034044  62.6650794  38.5894465
  14.4083500  58.8081932  42.2692871  15.1263356  59.1119146  42.8246975
  14.5345318  59.2704105  41.4406347  65.7886110  11.1721337   2.1064268
  65.9897654  11.9794429   2.5797353  64.9174641  10.9238542   2.4157653
  72.9617837  67.0409060  30.4123759  72.1823385  66.5790939  30.7212949
  73.1600990  67.6678991  31.1079192  82.9715794  33.1798673  36.8777776
  83.4165871  34.0234947  36.7971992  83.6800542  32.5366402  36.9012547
  62.0600678  18.9893973  11.4887462  61.5052827  18.8371814  12.2537838
  61.4489977  19.0238059  10.7527862  28.1028666  16.0598858  10.0906406
  27.8054182  15.2396663  10.4843269  28.2854054  15.8352693   9.1782413
  -0.2385549  30.1238680  61.6794014   0.4588149  30.5137849  61.1522627
  -0.1001811  30.4767060  62.5583696  19.1703320  49.7518015  22.3988390
  19.7742379  50.2579451  22.9422998  19.6101975  48.9113283  22.2709560
  64.2879155  19.6898925  58.5612440  64.6867659  19.5657206  59.4224834
  63.6536672  18.9769435  58.4859800  10.2268672  50.2611589  56.4119101
  10.6100786  51.1129951  56.2027311   9.3034178  50.3495073  56.1759710
  66.5298202  51.2687588  65.2263737  66.0972049  50.8015156  65.9410477
  67.4560979  51.2709141  65.4677010  20.2414584  42.4785328  54.7087955
  20.6954241  41.8355370  54.1640949  20.3319979  42.1433496  55.6008101
  31.8574037  80.3394254   8.9056192  32.3029848  80.0054844   9.6841846
  31.0690921  80.7637771   9.2443214  63.9832046  17.5310373  48.7908745
  63.9899256  16.7669225  48.2144070  64.1704633  18.2697153  48.2116318
   6.0081708  34.5683503  48.7499666   6.4124006  34.6905398  47.8909540
   5.1144600  34.8939061  48.6426067  77.1903815  51.4002895  47.4867153
  77.0906606  51.8639898  48.3181429  76.4528599  50.7906103  47.4625444
  71.4375558  56.8985939  63.0305672  72.2935679  56.5065813  63.2031918
  70.9141257  56.1822367  62.6712847  63.9904096  25.8914614  52.5667953
  63.7905958  25.0559640  52.1445990  63.4144452  25.9174991  53.3308792
   0.6573466  26.8079162  58.7834406  -0.2634924  26.8549132  59.0404987
   0.6439902  26.8857336  57.8295040  82.6837495  40.9535456  37.6987886
  83.5275176  40.5271721  37.8487706  82.3321732  40.5216408  36.9202757
  64.3645837  17.6184976  52.2864676  64.6427872  16.7369938  52.5350332
  64.4797542  18.1390870  53.0814219  11.4140575  55.5412908   3.2392679
  10.9494560  55.5796512   4.0752779  12.1644514  56.1241050   3.3553157
  76.4482966  41.5890408  49.5528936  75.6763544  41.2987900  50.0387859
  76.2833038  41.3100100  48.6522532  13.1792753  67.2483857  14.3349682
  13.0791753  67.2993381  15.2855526  14.1051584  67.0450647  14.2021785
  78.4749685  17.7745545   6.5308176  77.5641678  17.5126374   6.6652570
  78.6512052  18.3984769   7.2350202  42.7239244  75.2092393   8.1251369
  42.1615701  75.8458789   7.6839100  43.6020105  75.5862077   8.0695091
  26.5962627  71.0896714   6.6982113  25.9054070  71.5804370   7.1432958
  27.2776594  70.9801896   7.3614965  29.7710705  59.0443420  59.4504356
  30.1522923  58.1990623  59.2129326  30.5256224  59.6156693  59.5935106
   4.3947291  44.6849060  31.4988589   4.1394711  44.0579224  32.1755910
   3.6601397  45.2966213  31.4497495  23.5811973  58.5399342  60.3850365
  24.3705225  58.8143778  59.9182653  23.1834984  59.3575239  60.6843948
  22.9731738  70.8918817  19.0289150  23.3339363  70.1787408  19.5557056
  23.0511569  71.6653521  19.5873867  46.3791656  37.1038342  61.6987991
  46.5676975  38.0225086  61.8904400  45.5211878  36.9480085  62.0935488
  56.5844870  12.2682083  57.3688364  56.8781471  11.3784695  57.5646925
  57.3835421  12.7947140  57.3920298   4.7530752  37.0892930  53.8698006
   5.0145614  37.9871321  54.0741014   4.3959302  36.7511058  54.6909666
  21.7102408  17.1135366  56.6423130  22.5034738  16.7245030  56.2739849
  22.0052361  17.5452387  57.4440861  24.8592537  66.8005689  18.1295524
  23.9564144  66.5857490  17.8951011  25.3912377  66.1935981  17.6149498
   2.5380242  23.2978916  33.4184575   3.0404782  23.0835295  34.2044735
   1.7296904  22.7927065  33.5057306  78.7105277  39.2771387   4.8045856
  78.0549576  39.2242026   4.1091305  79.0259131  38.3790207   4.9053070
  78.1218811  50.1217985  51.1703968  78.2129433  49.2898560  50.7058430
  79.0213003  50.4192114  51.3075876  51.4622014  61.7714055   1.8271719
  50.9079354  61.9150002   2.5942455  52.2361391  61.3252981   2.1710334
  11.6658545  34.9846601  52.6060867  12.1431208  34.2433500  52.2333765
  11.8194377  35.7019639  51.9911718  59.3532007  49.0249540  11.9964061
  59.1667979  48.1833400  12.4125419  60.0783270  49.3881561  12.5048385
  77.4394163  23.3157182  62.5123644  77.1411988  23.4467626  61.6122961
  78.1427434  22.6704741  62.4401045  23.0311394  57.8320646  66.3593006
  23.0459213  57.7966309  67.3157310  22.2904706  57.2791004  66.1105585
  54.1589655   8.1804383   0.9520755  53.2756113   7.8317511   1.0718046
  54.3746553   8.5807336   1.7943798  75.2285837   9.9568427  23.8751732
  75.7525526  10.1674045  24.6480594  75.1056598  10.7968581  23.4330211
  76.0596492  59.6251488  68.2897615  76.9574657  59.9570274  68.2934284
  75.6466940  60.0431490  69.0453911  84.4787076  17.9685032  42.2954702
  84.9671845  18.7506962  42.5519800  83.5601121  18.2104003  42.4133682
  28.7765405  73.9704807   0.9977661  29.5080493  74.0581496   1.6088615
  28.5723833  73.0353125   1.0011469  76.9287875  23.3596945  59.6587229
  77.3250940  22.9727626  58.8780451  77.0268240  24.3036938  59.5342779
  86.3081310  41.1675501  53.4061909  86.2128669  40.2566814  53.1278467
  87.1102803  41.1757660  53.9284182   6.2380195  62.6921082  20.5557513
   6.9337493  62.1098137  20.2505875   5.9000617  63.0998898  19.7584236
  82.2166734  53.9861822  38.3495688  83.1468391  54.0161371  38.1256795
  81.7701301  53.9020300  37.5071025  11.5493417  60.1821280  33.7987304
  11.4713764  59.3746758  33.2906199  10.6533980  60.5131817  33.8613153
   4.5041707  48.1183958  69.4980574   4.2857245  47.2828436  69.9108076
   4.8286229  47.8790951  68.6298990  19.0157223  31.5839744  51.7965460
  19.4816637  32.4198079  51.8191910  18.8170719  31.3955736  52.7137566
  16.2152076  46.2213755  59.9436140  15.8630812  45.4589605  60.4029226
  15.5887985  46.3869238  59.2390347  81.1588648  65.7811308  56.9869423
  80.4877850  66.4567757  57.0838118  81.9871720  66.2498999  57.0888853
  83.8913450  53.2434983  60.0021839  84.1534791  54.1602392  60.0864506
  84.5647654  52.8519888  59.4458961  51.6098689  51.0282767   1.0255609
  51.5816544  50.5784190   1.8699918  52.4554400  50.7815803   0.6508909
  85.0655415   3.1394321  44.6858644  84.3505606   3.1025079  45.3212166
  85.5375361   3.9433908  44.9028969   3.0960804  41.5796614  28.3753347
   3.9038712  42.0368195  28.6092401   3.0943009  40.7983732  28.9283371
  41.2689257  62.7310038  43.4840775  41.7790508  63.4289455  43.8950300
  40.5946541  62.5158930  44.1285276  54.5933335  71.4361508   1.3307272
  55.0730460  71.9380219   1.9896923  53.7021034  71.3789161   1.6752039
  34.0987992  29.2227888  64.6078491  34.4369960  28.5741210  65.2251673
  33.9501858  28.7304473  63.8005400  38.9432859  67.9015429  13.2156978
  38.0144518  67.9907902  13.0023037  39.3703406  67.7579887  12.3711525
  46.0172533  23.0364860   8.6926494  46.6043924  23.7275136   8.3860813
  45.9107517  23.2101357   9.6279178  28.1585932  68.0869484  48.0760098
  28.1724000  68.7444067  47.3804569  27.3461914  67.6019526  47.9310560
   5.1803654  50.6946945  43.8127375   5.7539070  50.1477003  43.2760096
   5.7599944  51.3631439  44.1780329  11.0992992  43.6618805  43.8850307
  11.8379200  43.6450005  44.4936275  10.4905915  44.2955923  44.2646646
   4.6502197  46.9752073  49.9780798   4.8768690  47.6086569  50.6589651
   3.9170092  46.4812374  50.3449917  14.5762169  36.5878057  44.7084904
  14.8153186  36.3182378  45.5952787  13.6926866  36.9452953  44.7968531
   8.1538971  20.9149754  19.6249519   7.3190387  20.8948386  20.0927578
   8.8156756  20.9269917  20.3164325  86.1631718  49.3824482  68.1162643
  86.5613376  48.5380268  68.3275652  85.8154399  49.6986389  68.9501333
   0.0363390  40.7784796  32.8870320   0.8021056  41.3468933  32.9691267
   0.1338903  40.1414967  33.5948229  39.3263929  61.2330158  16.4814315
  38.8042735  61.8736227  16.9643913  38.8346618  61.0830839  15.6740032
  10.5004919  35.5598736  68.2357693  10.5890775  35.6726980  67.2893763
   9.6827173  35.0742245  68.3435726   0.3165886  62.3708773  65.6489277
   0.5977220  62.2648096  64.7401142  -0.5462112  62.7806425  65.5864668
  40.3118658  78.7888861  53.2422924  40.7270718  78.0374479  52.8190041
  39.9875617  79.3231773  52.5173140   5.8344944  17.1150744  10.7821022
   6.5243514  17.2730315  10.1375995   6.2472804  17.3015321  11.6253505
  20.2438652  73.5545881  16.2389980  20.4479330  74.1641624  16.9482265
  19.6550267  72.9131158  16.6365085  27.8865862  68.8154364  36.3860679
  27.8217649  67.9536772  35.9744859  28.1283045  69.4046021  35.6714439
  60.7746185  31.5536368  13.6681781  60.6307684  30.9512580  14.3980251
  61.1079283  32.3516667  14.0784107  64.3716362  56.4346647  46.0970449
  64.5026758  56.6594696  47.0181990  64.5451811  55.4943609  46.0529518
  61.5446489   6.6044264  66.4871645  62.2250336   6.0872393  66.0560942
  61.3294523   6.1070089  67.2761488  24.5982385  50.5296516  55.8565426
  23.9234972  50.0961542  56.3790703  24.1155100  50.9572077  55.1491499
   1.7808001  57.2768831  60.5101061   0.9424856  57.3957348  60.9565735
   1.9967921  58.1455231  60.1709270   5.6100339  65.5927467  60.7863665
   5.5470127  64.7091913  61.1491299   6.4725828  65.9035969  61.0613441
   8.0717707  60.1412010  44.6976709   8.1123513  59.7030210  43.8476229
   7.8786755  59.4397783  45.3197241  18.1970143  68.5747385  57.1124125
  18.1155586  69.2613506  56.4504766  17.3248887  68.5130072  57.5020504
  83.3917793  33.2943559  67.9863930  83.5064825  34.0531874  68.5584497
  82.6816940  33.5450315  67.3954868  30.4204845  65.7100344  44.9073792
  30.4584336  65.9862852  45.8230639  29.8745918  64.9238157  44.9168253
  21.3470411  23.9910841  65.8288097  21.3116908  23.9730000  66.7851877
  20.7032466  23.3386540  65.5529594  46.1212491  15.5824149  21.0196434
  45.2265035  15.9164536  20.9557758  46.0227774  14.7013200  21.3804851
  61.2907698  30.5158973  58.9857054  60.9634092  31.2005568  58.4023476
  61.1955955  30.8840108  59.8641539  43.3526855  80.2797349   1.5876899
  42.9278033  79.4737966   1.8812357  42.6906710  80.7186540   1.0535370
  64.8194387  74.8710394  44.6687078  65.1942279  75.1775312  45.4944372
  65.1928523  73.9983320  44.5455074  68.5826896   8.1849063  29.9310718
  68.3356880   8.3831895  30.8343540  68.0300568   7.4416936  29.6892868
  32.1315049  78.6547454  23.7959991  31.3633775  79.2247804  23.8316856
  32.0519947  78.1978400  22.9586540  32.0605957  73.2120378  18.6404548
  31.4372242  73.9374049  18.6019645  31.5580770  72.4834593  19.0049778
  71.5242075  53.9405311  53.7049900  71.2922846  54.7545398  53.2579551
  71.2788402  53.2505000  53.0886493  62.3469975  20.4176617  55.8295727
  62.7683594  20.8298159  56.5837669  61.5812853  20.9646940  55.6544447
  14.5803388  60.8718837   6.7425380  15.2863344  61.3097728   6.2670885
  13.9556392  61.5697635   6.9398676  67.0981091  69.3344052   8.7337003
  66.8342631  68.4163793   8.7957082  66.3537281  69.8219068   9.0864978
   4.7688111  12.6651872   4.2395673   4.5368155  11.7916739   3.9243065
   4.0102847  13.2073176   4.0228449   4.8152873  71.6673374  38.4385252
   5.6489927  71.6775703  38.9086962   4.3481046  70.9121180  38.7957597
  45.1257365  56.3953979  13.3795391  45.6889349  56.3163515  14.1494690
  45.7308381  56.5574248  12.6557766   7.1533783  30.0763810   4.9164901
   6.8623050  29.2383397   4.5570551   6.4020069  30.3969300   5.4154096
  79.1083919   5.3431380  12.7394996  79.4709073   5.5493987  13.6010490
  78.5951792   6.1161292  12.5042759  25.1879549  54.0139484  56.2769222
  24.8268485  53.1336498  56.1725092  24.5860171  54.5787859  55.7922983
  18.1051242  50.8240747  65.2971601  18.4136045  50.9751225  64.4037056
  17.3307586  51.3805342  65.3804731  67.5095906  70.6324339  25.2769113
  68.1372025  71.2925577  24.9826884  67.1118214  70.3039408  24.4706202
  82.6446685  68.4840727  67.8404903  81.7123201  68.6949396  67.8904343
  82.9448899  68.9139509  67.0396757  52.4034749   8.9208329   7.3676286
  52.5309740   9.0376008   8.3090816  51.9147740   8.1012738   7.2919403
  79.3452464   6.0965741   0.8026014  79.9705564   6.1575473   0.0804506
  79.8251496   5.6461013   1.4975820  47.6389335  45.0952018  21.9720207
  47.8315197  45.4397643  22.8440319  47.7454518  45.8466018  21.3886772
  78.2134496  10.3698123   1.5478216  77.4146138  10.2555812   1.0329996
  78.4841524  11.2711585   1.3731132  54.6574214  19.5686007  55.1953125
  54.7567823  18.6197591  55.2731609  53.8241532  19.7583377  55.6264734
  25.1397300  49.0482235  64.0531635  24.3323898  48.7846184  64.4946861
  25.8304715  48.5690451  64.5108700  80.2918952   4.9090795  62.1046495
  80.6873458   4.5762663  62.9103088  80.5869716   4.3031530  61.4249420
  19.1141354  70.0307877   9.4104419  18.4927218  69.4956167   9.9040638
  19.7029936  70.3883751  10.0749717  77.9707282   4.0699797  28.7989926
  78.8525622   3.6997538  28.8382196  77.5921910   3.8785009  29.6570563
  13.2507944  39.3731332  44.4357824  13.7167120  40.1040745  44.8418379
  12.9616988  39.7139835  43.5893345   7.8797996  56.4824343  67.7719069
   8.1994408  55.9820175  68.5226679   6.9537616  56.2494612  67.7055168
  30.3769875  80.2485275  40.9462547  30.2969384  80.3482151  41.8948793
  30.5501390  81.1338425  40.6261492   8.6579092   8.0788339  20.4547535
   9.3449982   8.2638276  19.8145042   8.9161929   7.2458756  20.8493457
  30.3493635  68.7731035  15.7310424  29.6043845  68.1868322  15.5986629
  30.0900104  69.3275435  16.4669548  56.9835177  32.8856528  14.4724308
  57.1711329  33.4058011  13.6911045  56.2947543  33.3727420  14.9247394
  53.1682675  71.1452826  18.8596855  52.5189536  70.6038650  18.4108101
  52.9438465  71.0690005  19.7870765  65.2374976  81.1963065  27.8192173
  65.6276219  81.9029172  28.3337532  65.7329600  80.4163607  28.0690895
  15.7578850  62.6411152  33.6283016  14.8581016  62.4132109  33.8621426
  15.9979784  62.0064497  32.9531813  66.5950196   7.5413256  41.8727350
  66.2950438   6.6438322  41.7286777  65.9800118   8.0819063  41.3769817
  16.7880261  68.4651566  62.7240133  15.8842075  68.2392979  62.9438591
  17.1779490  67.6397181  62.4361944  58.2891061  73.9530230  44.1717625
  57.9981616  73.6526871  43.3107233  58.4951952  74.8791838  44.0453386
   9.6792334  56.8487807  47.8451667  10.0476711  56.5192612  47.0254741
   9.1767877  57.6219256  47.5882183  44.8605507  80.3632744   5.8661876
  44.3388789  80.2071269   6.6534029  45.7663088  80.3660973   6.1757455
  59.5045989   3.6568480  45.8478689  58.6136287   3.9860659  45.9662533
  59.5846575   2.9477434  46.4858294   7.7686960  63.5983849  64.2468596
   8.5570711  64.1099691  64.0652609   8.0210775  63.0155039  64.9629498
  79.6035283  12.2829275  51.7858028  79.9682277  11.5751772  52.3171282
  79.1978066  11.8388300  51.0412264  22.2351074  40.5108833  54.1478491
  22.0447040  39.8403811  53.4917974  22.6381612  40.0306416  54.8711395
  45.6152855  32.8294433   1.2422071  45.7254540  31.9611848   1.6297947
  46.3300727  32.9018319   0.6096922  69.9831258  41.2401641   7.8583656
  70.7808183  40.8220351   8.1825433  69.6330939  41.7083419   8.6163316
  52.5416654  73.0171640   6.3054643  52.7578037  72.0846875   6.3075719
  53.3067387  73.4394820   5.9148965  44.3444872  65.1771784  70.4916096
  44.3695354  64.9749422  71.4268684  44.9980068  65.8673096  70.3782034
  83.1050573   3.8071406  21.1520134  83.5954700   4.6259606  21.2245212
  83.2432042   3.3700049  21.9922863  20.1959634  40.9717083  66.3792419
  20.8773565  40.3904247  66.0415316  20.6600237  41.5696907  66.9651508
  16.0928857  17.1689725  54.9297571  15.8706486  17.9455352  54.4161463
  16.8551767  16.7979717  54.4853449   5.7292493  31.3490498  11.4906726
   5.6658896  30.9157956  10.6394897   5.2371772  30.7825768  12.0849834
  68.2258640  25.1459134  12.9879699  67.6907991  25.7736838  13.4736000
  67.7367161  24.3246901  13.0385337   4.5253444  78.6994553  56.5715790
   3.9200631  79.0884876  57.2028637   5.2864647  79.2798424  56.5805197
  56.0797527  51.3842154  24.9697042  55.6371691  50.5872631  24.6777773
  56.9118407  51.3830996  24.4965672  66.7970684  62.2573233  47.8236198
  66.6661003  61.4836025  47.2755051  67.5691130  62.0499802  48.3501101
  21.8848681  71.6400003  24.3276429  21.8412757  72.1774197  23.5367489
  20.9803629  71.5965080  24.6378207  28.2258734  78.0305655  23.0781494
  28.6594365  78.4650357  22.3436485  28.4838545  77.1121629  22.9993187
  15.0497644  70.8451827  22.0167003  14.5307653  71.6476114  21.9620929
  15.2449077  70.7491191  22.9488598  31.1214137  56.2969160  68.5479212
  31.4034081  56.5029240  67.6567030  31.5239310  55.4492044  68.7365723
  84.0384867  39.0183377  40.4019403  83.1149658  38.7707543  40.4471445
  84.3584451  38.9144659  41.2980843  42.0420361  60.8825111  35.9862876
  41.4223957  61.2956381  35.3849483  42.4810696  60.2163076  35.4574609
  74.7336164  26.9182968  62.9582882  75.5462387  26.4998984  62.6740026
  74.2162719  26.2060499  63.3341742  69.0633677   1.4827645  58.4672580
  68.4606002   0.8699859  58.8884483  69.7154306   0.9244311  58.0438076
  22.7355628  18.4082441  64.7887754  23.1229948  17.5901823  64.4774961
  23.3811455  18.7612848  65.4010010   9.9612385  26.8446064  45.5870581
   9.0226150  26.9538403  45.7396555  10.1565039  25.9665298  45.9142971
  14.2162879  32.3266232   5.6802402  13.8258346  31.8802941   6.4316211
  14.0030893  33.2502854   5.8130012  10.5391371  18.1526661  58.3859921
  10.3558969  19.0820336  58.2484007   9.6756786  17.7411819  58.4227705
  45.4428809  77.2409637  11.8385826  46.2261420  77.7791532  11.9529758
  45.7636493  76.3399370  11.8771873   2.9775098  37.5738955  58.8663101
   3.7492833  37.7545953  58.3297062   3.0174628  36.6323352  59.0339518
  78.4624587  30.4644072  10.0828109  78.4826718  30.0030768   9.2443691
  79.3685733  30.7364095  10.2284275  81.3331928  66.7708111  12.9651654
  81.5428897  65.8871174  12.6629388  82.1235936  67.2795916  12.7844977
  58.2912772  68.2233580   9.9497448  57.4159091  67.8518327  10.0589691
  58.7551659  67.9832681  10.7518612  75.0669156  15.4441941   6.5035186
  75.5365275  15.4303229   5.6695495  74.2949496  14.8986829   6.3527952
   0.9903363  43.1160021  62.6590252   0.8082329  43.4077168  61.7657328
   1.9034329  42.8297186  62.6360416  71.4264427  14.1724980  13.7934242
  71.6245614  13.3820022  14.2955051  71.9751428  14.1037906  13.0121170
  28.8942146  67.0363474  29.0719271  29.0443659  67.6872683  29.7574830
  29.7337055  66.5853882  28.9818239  12.3517895  58.5675859  62.7776337
  11.6158116  58.3224916  62.2168350  13.1197000  58.2019997  62.3384380
  12.0001483  39.3750143  51.5333652  11.4375317  38.9318490  52.1684217
  11.8275392  38.9257741  50.7059431  23.4059787  63.7652540  46.3612366
  23.7323880  63.7114334  47.2594547  23.7888837  64.5713758  46.0151529
   2.0659347  60.9439611  30.1739860   2.2652286  60.1446199  29.6865726
   1.1690684  60.8181906  30.4838943  57.4822131  58.6465991  12.4546943
  57.9770104  58.3038199  11.7104469  57.1354751  59.4838965  12.1465812
  67.9677647  79.3412383   8.1897960  68.7897342  78.8532193   8.1404768
  67.7107018  79.2850335   9.1101204  28.4358668  70.9808445  33.9956021
  29.2121577  71.0457850  33.4393764  27.7175403  70.8129454  33.3856440
   7.3648041  72.0017560  22.4994693   7.3751562  71.1196764  22.1279083
   6.6924685  71.9671495  23.1799064   1.2498817  57.8444529  66.3972712
   1.8153727  57.1753979  66.7830372   1.8394199  58.5728645  66.2020969
  86.0866285  48.3094168  56.9944859  85.6146755  48.7117958  57.7235842
  86.7837183  47.8026247  57.4109697  54.8356332  22.1571315   1.6218458
  55.1985614  22.9998315   1.3491426  54.2355897  22.3743689   2.3352800
  86.2266837   2.6861442  13.2803474  85.9000002   3.1243623  12.4945579
  85.4883228   2.7043403  13.8892208  66.2976091  76.1369045   7.8139530
  66.7212670  76.6821106   8.4768949  66.8881076  75.3916676   7.7036462
  14.5917106  13.5947299  64.2396593  15.3841519  13.3311999  63.7718773
  14.2850411  14.3718433  63.7724543  38.2670808  81.2765598  70.0861835
  38.8352537  81.6397858  69.4068623  38.6276841  81.6144657  70.9059477
  30.8698077  63.4497674  11.5136657  31.6405671  62.9363163  11.2717376
  31.1405308  63.9356001  12.2927032  50.3231691  28.5201180   8.7199007
  51.2436132  28.4076512   8.9573227  50.3419809  29.0908015   7.9516588
  41.5835791   5.9067945  57.3939371  41.6290801   4.9528818  57.3290682
  41.3961380   6.0754042  58.3173370  57.6702635  17.8811229   2.6091133
  57.6693929  18.3306420   1.7640339  56.8583606  17.3741353   2.6115595
   8.7918919  33.2164836  67.7816153   9.5168173  32.6258397  67.5770283
   8.0629396  32.6350403  67.9979134  17.2878726  36.8316615  10.4506240
  17.1054633  37.3401797   9.6604572  17.8176006  37.4151004  10.9939609
  22.1979666  58.1984758  34.8624706  22.1148157  57.4528646  34.2680097
  21.3717175  58.6726189  34.7690058  37.4550348  25.0785284  68.0739546
  37.7487349  24.5576506  68.8213873  36.9710176  24.4602327  67.5265360
  12.2595751  57.3553801  39.8027229  12.2709644  57.0945072  40.7236195
  11.4931822  57.9234505  39.7241688   4.3688229  50.1625252  61.0500002
   4.1090757  49.2540264  60.8970642   3.9376995  50.3999376  61.8709755
  11.8720889  50.4788446  69.3051910  12.1589744  50.2268505  68.4274483
  12.6770210  50.5026627  69.8226357  60.5005291  24.2462993  38.5972500
  60.2843430  24.3054724  37.6666617  59.7127631  23.8850594  39.0036488
  10.3370571  70.9957457  67.6624870  10.0565898  71.8615294  67.3658514
   9.6088672  70.4173517  67.4357080  52.0524972  62.2268637  11.8756328
  51.5375512  62.0455893  12.6618896  52.5895064  61.4436992  11.7551933
  62.4168493  27.8119338   0.8140407  62.8620161  27.1863664   1.3856350
  61.9996433  28.4299434   1.4142357  18.2174933  40.0828934  40.5427027
  18.8953257  39.4883013  40.8640051  18.7021494  40.8017731  40.1370573
  15.7344707   8.3367169  33.0307422  16.1591466   8.1656039  32.1901451
  16.4483436   8.6038363  33.6097656  56.5564483   6.6012316  42.1852160
  56.3312405   6.9361048  43.0531883  57.4380868   6.2429361  42.2880697
  65.1062396  12.6807284  63.6323071  64.7011688  12.9498529  62.8078556
  66.0471466  12.7198029  63.4608507  55.8045127   7.8402532  10.5210910
  56.6286405   7.3777211  10.3690754  55.7771550   8.5113252   9.8390709
  87.0792152  78.4515095  63.2820797  86.2723385  77.9400206  63.2223988
  87.6064399  77.9917908  63.9354753  37.5516587  69.6557315  10.4475532
  37.9049390  68.7748821  10.3229271  37.4001675  69.9808057   9.5600830
  43.6835688  12.6398783  66.1880779  44.6025830  12.7057199  66.4475203
  43.2706910  12.1415834  66.8933868  32.4289870  65.3150082  51.3571882
  32.4686503  66.2687111  51.4286375  33.0950832  65.0957251  50.7056808
  20.1303792  64.7214746  43.2962513  19.1740286  64.7617817  43.2969618
  20.3882694  65.1379299  44.1186190   9.7378671  65.0010490  45.3460789
  10.0916505  65.2995157  44.5082331   9.1287196  64.3004704  45.1129293
  11.1753162  44.5275557   7.6050554  11.0309299  43.6262381   7.8931890
  10.5099305  45.0365413   8.0681120  27.9469824  73.5847139  44.1067171
  27.2308660  74.1865063  44.3098211  28.1737685  73.7804461  43.1976032
  76.4827906  53.3471644  19.6615062  75.8634530  52.6651538  19.9213348
  77.0726429  52.9129088  19.0452896   3.2446545  64.6883821  48.5315704
   3.1883022  65.2563286  47.7631330   2.4182178  64.2054462  48.5335875
   9.7468844  80.4605706  11.8015991  10.3758469  79.8383577  11.4362369
  10.2875843  81.1227782  12.2321354  67.5678461  10.6595736  26.1576819
  68.1250637   9.9814634  25.7756925  67.8456657  10.7107668  27.0722461
  59.1698950   8.6512308  55.9560823  58.7751358   8.4623079  55.1047850
  58.4311264   8.8945894  56.5139627  43.6613226  77.4875975  58.1228399
  43.9156437  78.0507040  57.3917723  44.3976593  77.5390959  58.7322569
  81.2328397  35.4362452   1.9118248  82.1139966  35.2101767   2.2096334
  81.3742529  36.0261548   1.1713920  70.0116204  10.3354848   3.2039438
  69.4027172   9.7911084   2.7048193  69.4776462  10.7130206   3.9029203
  39.3017953   9.9433928  65.5220032  39.5526343   9.5999269  66.3795280
  39.2934828  10.8935385  65.6376410  75.7904237  13.7682562  33.0576682
  76.6669171  13.5406141  32.7475619  75.2615111  12.9924803  32.8715110
  50.7229083   2.5007944  42.1386814  50.7984131   3.3078413  41.6295576
  49.8205607   2.2133474  41.9995022  16.9587453  22.9316724  12.6377140
  16.4454444  23.3388341  11.9398723  17.1558841  23.6491597  13.2398639
  24.5044374  76.9641447  46.7108107  25.3597093  77.3330069  46.9314575
  23.8824129  77.6621628  46.9159651  38.1944966  69.5709991  66.8128777
  37.6783919  68.7649822  66.7986679  38.0513287  69.9623013  65.9511232
  20.0967622  75.9907198  55.8838081  20.7086825  76.4871693  56.4272404
  20.6276798  75.2910185  55.5033112  23.5185170  60.5618763  57.9018021
  24.1084981  59.9534416  57.4568748  24.1006637  61.1725807  58.3538866
  85.4447358   3.3210211  33.2779980  85.6206792   2.4213533  33.5534620
  85.9889071   3.8584928  33.8535261  32.4066337  22.3041642   6.8824564
  31.6366228  22.6949990   7.2954593  32.8958209  21.9152177   7.6074682
  18.3488035  66.3469696  61.8317556  17.7509463  65.7088327  61.4424276
  19.2164373  66.0769367  61.5308762  38.7279892  68.8041353  63.0916929
  39.4122171  68.5617876  63.7156534  38.0992341  69.3072557  63.6091614
  48.8427114  61.8622351  66.9678164  49.5729828  62.2053623  66.4528418
  48.9687824  62.2352219  67.8402948  13.4667013  69.7459984  58.5778141
  13.4657762  69.4669199  57.6622009  12.9919050  70.5771399  58.5753489
  15.1205993  77.6481819  51.6865110  14.4339371  77.0890617  51.3230371
  15.9242380  77.1386099  51.5829134  56.1848705   2.4698763  36.8841720
  55.5769938   1.9075136  36.4040971  56.3464492   3.2063227  36.2944555
  17.6722240  45.8738565  55.8754063  17.7981281  44.9252033  55.8963394
  16.8415141  45.9951305  55.4155779  28.8539489  16.0443604  14.9005447
  29.0743240  15.3318894  14.3005024  28.5325654  16.7448438  14.3328510
  36.4799595  57.2304535  60.8288908  36.2299371  57.7872515  61.5662479
  37.2679973  57.6421452  60.4742956  55.3615063  11.3012533  41.5810776
  54.8601740  11.9991426  42.0028067  54.7113340  10.8078985  41.0809708
  85.6445132  16.1441386   5.5114017  85.9028994  15.2892554   5.1669584
  85.0539480  15.9414924   6.2369333  34.4982004  69.5612955  70.9395218
  34.4855165  70.4427481  71.3124990  34.2321563  69.6830177  70.0281286
  83.8334976  68.7003577   4.1567836  83.3002292  67.9277957   4.3438755
  84.1638075  68.5544360   3.2703100   1.8925983  56.6657925  57.8124285
   1.8090996  57.1503401  58.6336899   1.0633222  56.8178892  57.3592234
  67.5918582  71.1005831  27.9912138  67.5776210  70.8398724  27.0703125
  67.8764620  72.0143843  27.9770660  84.7450005  13.9747966   7.4058185
  83.8445650  13.6935199   7.2435508  84.7300635  14.3234933   8.2971178
  23.9596637  26.1762774  20.6007896  23.3299240  26.8434441  20.3277622
  23.5963519  25.3545773  20.2705799   8.7228739  65.0530958  69.0897131
   8.4090734  64.9717522  69.9903488   9.2988086  65.8174944  69.1048670
  85.1644833  47.2863054  61.2154055  84.4667300  47.4552202  61.8485212
  84.7982761  46.6274261  60.6254864  67.8736728   2.3868780  50.6155109
  68.6682909   2.0464544  51.0265112  67.9238170   3.3339243  50.7451725
  33.2192945  65.7180500  27.3195267  33.9025187  65.0599957  27.1914577
  33.6867380  66.5533113  27.3115897  34.4213986  66.9536352  46.1412525
  35.1567626  66.3859749  45.9105301  34.4633961  67.0242929  47.0949173
   4.9662837  49.3848419  23.0558968   5.9201890  49.4450092  23.1076264
   4.6804225  50.2766752  22.8580308  33.9020433  19.2818384  53.9601469
  34.2226063  18.9004545  53.1428289  33.6285322  20.1672010  53.7202406
  48.2455140  15.5384760  39.2517948  48.1871133  14.6732359  38.8466072
  47.6992243  16.0985594  38.7003350  57.2709339   9.2961149  49.2605162
  56.5754121   9.7129564  48.7518644  58.0361479   9.8543196  49.1223431
  60.3584957  69.6546030  55.9508371  61.2083006  69.2281294  55.8404684
  60.0830173  69.4143057  56.8354845  56.9698875  18.3256750  57.4426937
  56.5856975  18.8760214  58.1251478  56.2219661  18.0321436  56.9224215
  51.7850082   3.6974745  65.5321026  51.6718262   3.2163935  66.3518524
  51.4312094   4.5679884  65.7144594  -0.2800203  30.1383114  45.7805395
   0.6618552  30.2958441  45.8460045  -0.3598835  29.1865063  45.7179308
  11.0700715  79.6322346  54.9660301  11.3946736  80.5193901  55.1203823
  10.5414963  79.7054720  54.1713715  41.0886961  64.9882682  22.9731212
  41.2631398  64.5430572  22.1439109  41.9464510  65.0591119  23.3920131
  44.2808628  43.0075455  70.1006937  43.4062624  42.7250719  69.8332834
  44.1273546  43.5908318  70.8439541  21.3493705  23.3583307  38.1983137
  20.4944825  23.7615466  38.0472827  21.4976668  23.4564567  39.1388512
  16.3937843  71.7266941  58.3280802  16.5220118  70.9430075  58.8625240
  17.2538304  72.1464014  58.3082056  69.6437448  14.9588709  56.1185884
  70.4825061  15.4066305  56.2291098  69.5579999  14.4143229  56.9011164
  67.7773905  68.0760670  62.9454231  67.4486876  68.3834076  63.7902498
  68.6761284  67.7995062  63.1243420  35.9727883  80.4444790  56.6919899
  35.1628494  80.2499962  56.2203884  35.6817961  80.7647896  57.5457811
   6.4987834  38.0937779  11.4279209   7.0505579  38.8646329  11.2953983
   5.6342061  38.4503043  11.6319500  41.5514517  72.6380682  70.4404879
  40.7409191  72.3078442  70.0529003  41.2820196  73.0057240  71.2821960
  24.1848230  69.8519707  57.7464628  23.4322524  70.4361916  57.8389788
  24.9395227  70.4389715  57.7007437  26.0723138  55.9447432  57.9497004
  25.8076358  55.2431059  57.3548222  26.6671705  56.4866209  57.4312973
  58.2570705  39.2583049  17.8575645  57.5478119  38.9736474  17.2812400
  57.8195944  39.7577632  18.5470520  81.2682011  77.2945929  62.2954416
  80.3959581  77.6883078  62.2751331  81.8593332  78.0097675  62.0602274
  67.9884903  41.6750586  15.4736839  67.0428757  41.7169726  15.6161247
  68.2741211  42.5884688  15.4915844  71.7997687  10.9054213  41.0782194
  71.5486854  11.3391046  40.2626801  72.1199744  10.0461225  40.8037901
  47.6544695  10.2356176  65.2108145  47.2773068  10.7838087  64.5227289
  48.5970216  10.3915815  65.1516151  84.7327648  24.8913587  14.1773449
  84.6004854  23.9784205  14.4328533  85.6270586  24.9176753  13.8370834
  76.2571786  52.8531993   4.4476925  76.6285859  52.8626883   3.5655389
  76.9952832  53.0611480   5.0205742   0.5986675  36.8020499  22.7896152
   0.7544359  37.3025430  23.5905395   1.3566216  36.9925178  22.2369323
  22.5116467  60.6725502  61.9074821  21.9537497  61.4477587  61.9710159
  22.8987050  60.5839825  62.7784443   7.0179421  42.4152040  68.9961815
   6.8837368  43.3269835  69.2547846   7.0579177  42.4407911  68.0401611
  13.5544479  80.7728958  47.4402094  13.6048138  79.9233389  47.0020819
  13.9902282  80.6348705  48.2812071  85.9346038  30.9844851  28.5205841
  86.6629872  30.4204679  28.7805319  86.3533386  31.7778325  28.1866789
  19.4104791  63.3425140  68.8526917  19.5892537  63.5327625  69.7736025
  18.6129928  63.8343811  68.6569405  85.8689915  38.7776149   6.0608707
  84.9398266  38.5925639   5.9243427  86.2348615  37.9497159   6.3722358
  41.8569975   1.5461664  43.5124779  42.2180908   1.5227537  42.6263094
  40.9279423   1.3462667  43.3978987  62.6737738  71.2410450  61.2525940
  63.0117655  70.8577251  62.0619535  63.3444881  71.0476303  60.5976391
  45.2276402  13.4742479  47.0337868  44.7872143  14.3240385  47.0447063
  46.1357086  13.6779718  46.8098640  37.5458884  54.8346186  62.6687860
  38.3582234  55.3307962  62.7695370  37.1158361  54.9035597  63.5211515
  31.1068511  81.0015965  43.3043766  30.9450960  80.7501411  44.2136860
  31.9786549  80.6564331  43.1118870  42.2091722  70.3797674  37.0157576
  42.6424503  70.3703690  37.8692269  42.6160908  69.6605682  36.5326381
  52.5059891  75.7546711  69.9849892  53.1806850  75.9450626  70.6367302
  52.8777981  76.0624838  69.1584015  76.8374961  32.0456915  31.6429663
  76.0163968  31.5838366  31.8124413  76.6932052  32.9259806  31.9900894
  12.6308286  72.2251987  50.5304766  12.5328755  71.5493584  49.8597431
  13.3469558  72.7754450  50.2132654  83.7536155  14.5606530  32.5306926
  84.1453324  15.0834763  31.8310867  82.8163610  14.5643056  32.3363338
  16.9724095  72.0315552  47.0233059  16.2250924  72.6138067  46.8864393
  16.6074443  71.2786722  47.4882698  72.1455997   6.0644655  19.3103123
  72.6343720   6.7029219  18.7909877  71.3231748   6.5064936  19.5211637
  59.6162489  51.3444770  19.9650703  60.3315769  51.6811622  19.4254528
  58.8394671  51.4273704  19.4119201  78.4766286  13.5280828  65.2874041
  78.6959880  13.3526640  64.3723440  77.5299876  13.6698275  65.2838421
  33.0875223  81.1173804   0.2738748  32.5327428  80.5474861   0.8064829
  33.8875990  81.2220509   0.7888065  56.2906664  63.5464414  22.9956375
  56.5381973  64.4660743  23.0917392  56.6882294  63.1113179  23.7498508
   6.1683550   5.7118635  69.8223686   6.0935250   5.2637415  70.6648731
   5.9066668   5.0547056  69.1774702  24.9704123  77.8691244  33.2818651
  25.7625961  78.1344843  33.7490511  24.8927259  76.9310522  33.4556842
  20.3868389  56.5192127  33.1173611  19.9609435  55.7486534  33.4929776
  19.9468791  57.2617054  33.5313320  47.4278164  77.8084421  33.2192707
  47.9529858  77.8264666  32.4192071  46.5528631  77.5543785  32.9257703
  48.4506060   0.8575433  28.0537258  47.6343895   0.5792992  28.4691845
  49.0068413   1.1360639  28.7812267  74.0008150  25.7490504   6.2473903
  73.1040119  25.4154885   6.2206636  73.9901958  26.4093984   6.9402538
  22.6009601  49.3162646  16.7882476  21.6484039  49.4037040  16.7532764
  22.7504467  48.3827604  16.9381080  84.1587394  20.4634123   0.3674888
  83.2500308  20.3367643   0.0946483  84.2062705  21.3850241   0.6216560
  11.5497541  52.1331787  54.2527962  11.8289793  53.0406141  54.3745327
  10.6073260  52.1915817  54.0957975  62.8342183  12.0695508  27.6418243
  62.5904720  12.9644025  27.8785930  62.2912280  11.8670190  26.8800007
   5.3995498  36.0315478  12.6032005   5.6802209  36.6189444  13.3049236
   5.5703863  36.5209449  11.7984996  22.8243279  51.1598110  59.9054098
  22.4500442  51.5003443  59.0928936  22.7036881  51.8667173  60.5394125
  24.0402055  62.9338694  55.5150986  24.5928311  62.2592878  55.1204109
  24.6581364  63.5809469  55.8552265  40.3676987  59.9765968  62.6902533
  40.5000925  59.2372704  62.0968723  41.1587334  60.5066681  62.5926638
  37.4828839  75.9383631  15.3676665  37.1900272  75.3272104  16.0436559
  37.0862508  75.6107187  14.5604718  57.6780217   0.2368479  45.4732800
  57.2204488   0.9936933  45.8394051  57.0603030  -0.1349516  44.8436594
  53.4586375  12.8108816  42.9263830  53.8626736  13.6785727  42.9358912
  52.9106491  12.7932291  43.7110043  20.5451107  52.2029543  58.4235668
  20.5724096  52.5979424  57.5520897  20.3239059  52.9278326  59.0082502
  66.3226145  30.4191046  46.4564466  65.4323261  30.1677637  46.2105894
  66.8742674  29.7194700  46.1065531  67.4703997  16.0526113  63.7305784
  67.8938334  15.4533415  63.1159210  67.1649831  15.4897146  64.4419813
  22.5713473   4.4133120  49.3599796  22.3681121   5.3404264  49.4840527
  23.0702626   4.1709928  50.1401043  44.5335370   5.0357466  59.0439892
  43.8855069   4.3347959  59.1143751  44.3916874   5.5722742  59.8238945
  59.8864787   9.8330049  52.9494715  59.7288340  10.6033735  53.4952879
  60.4498904  10.1506453  52.2438478  72.1521085   6.8740587  64.5816851
  72.0290416   6.3757734  63.7737274  72.1292060   6.2149363  65.2754211
  81.6753211  49.0449190  58.3378935  81.7048850  49.9440718  58.0109644
  80.8370271  48.9840460  58.7959194   9.5914069  71.3381513  17.2711597
  10.4418030  71.7500384  17.4241481   8.9781227  71.8529423  17.7956615
  85.3709184  56.6235888   0.7779012  86.2871562  56.4286864   0.5810485
  85.3786312  57.5322593   1.0787378  82.8028386  12.2569780  66.0641718
  82.0210736  12.1842604  66.6116953  83.0553954  13.1780176  66.1283827
  36.4452966  27.3525298  21.2135444  35.5857881  26.9874824  21.4238201
  36.9189151  26.6290057  20.8031402  43.7502914   3.9898519  27.7295613
  43.5090321   3.0669813  27.6499534  42.9810076   4.4058161  28.1186724
  71.9066715  49.3787146  55.8186865  72.5573206  49.0600014  55.1931381
  71.4779520  48.5866451  56.1428118  32.0779037  81.7676449  32.1791768
  31.9480395  82.2350216  33.0043578  31.4308333  81.0625648  32.1988654
  67.6306599  15.9840517  54.5243073  67.0671385  15.2341680  54.7149944
  68.2499593  16.0098677  55.2537155  32.4751449  62.7197361  56.9496250
  33.1144214  63.3663797  57.2486448  32.7942085  61.8879175  57.2996378
  44.8657160  14.8529081  34.9015331  44.9559753  15.2279501  34.0255022
  44.3030851  15.4699545  35.3694344  62.1954651  60.6824744   0.4964290
  62.0120139  60.5775798  -0.4371514  61.4554940  60.2621711   0.9346328
  34.9647069  66.1183071  55.3795815  35.7785892  66.6142225  55.4684496
  35.2485704  65.2135468  55.2489758  32.3108125  76.0106897  50.2297974
  32.1295094  75.9333086  51.1664820  31.6742635  75.4293251  49.8138046
  42.7006817  60.8214045  54.6083832  42.8963375  60.1803970  55.2918005
  43.4892368  61.3612127  54.5534706  36.1167722  32.3692446  66.4354277
  36.8416911  32.1211176  67.0091486  36.5233534  32.5005178  65.5788708
  26.8794298  78.3236217  47.3432636  26.6462517  78.5460567  48.2445908
  27.7209330  77.8735495  47.4176788   6.7071527  69.2963560   5.3879820
   6.6332286  70.0205381   6.0095297   7.5750654  69.4026263   4.9985347
  12.5250705  34.7252620  25.2851806  12.3764165  34.9867213  26.1938987
  13.4159644  35.0186456  25.0942073  28.3990932  75.2561808  70.0906515
  28.3542538  74.3717909  69.7272253  29.1690898  75.6463528  69.6770048
  17.0583820  75.0172281  55.0538921  16.3690305  75.6467295  54.8423338
  17.8736413  75.4996014  54.9164009  65.4540013   4.0199197  48.5117946
  64.7675698   3.9251912  49.1721473  65.8885549   4.8432219  48.7344299
  54.5453501  75.5892706  48.2998753  53.6193800  75.4203892  48.4739256
  55.0117970  75.0212049  48.9130306  75.0747218  73.4644747  39.8668814
  74.4516661  73.7226391  39.1876292  74.5286360  73.2436085  40.6213617
   5.8544779  66.6467857  47.3456240   6.5194094  67.1703196  46.8984032
   5.4134387  66.1689806  46.6431904  74.7648321  33.5756743   9.0248333
  75.3983747  33.1197846   8.4707342  74.9470197  34.5045579   8.8826500
  20.8705735  57.6669168  54.5702934  20.7032037  57.1691132  53.7700367
  21.3098717  58.4625626  54.2699623  27.9096301   4.2132962  27.3367534
  27.3343309   4.5106852  28.0416046  28.3513721   3.4441197  27.6965652
  66.5711115  30.9222758   5.8110080  66.8388186  30.0185550   5.9779058
  66.5008651  31.3157762   6.6807495  81.0572396  30.9122098  11.0481105
  81.5964042  31.6259301  11.3889061  81.2407766  30.1745665  11.6298519
  48.4277344  76.3920164  41.7247868  47.7119780  76.4424944  41.0912466
  48.0378103  75.9769011  42.4941158  85.8755619  57.2068453  67.8147745
  86.1833402  56.7382860  68.5906363  86.6536474  57.2959518  67.2644329
  83.1540690  21.0704148  16.8731914  82.8327166  20.1706136  16.8155323
  82.3817097  21.6115439  16.7092834  66.4228814   9.1795378  11.0842216
  65.9925669   8.4761457  10.5981028  65.9025424   9.9588327  10.8888388
  64.8990601   1.2289553  46.4174032  65.0575727   1.8652277  45.7200766
  65.7626908   1.0717611  46.7990589  86.0509978  41.1354411   1.6491829
  85.4950510  41.8135512   2.0329986  85.5948363  40.8765853   0.8484684
   5.1661956  40.2464581  46.6496372   5.2993423  39.7725177  47.4705410
   4.2240196  40.1898289  46.4904833  17.5787532  61.1418962  37.6748800
  17.8653109  61.1311483  38.5881162  18.3912730  61.1546803  37.1690345
  24.2216849   5.3455477  47.2080135  24.7968998   5.1510553  46.4680576
  23.4530305   4.7931986  47.0655060  80.4789918  15.9930449  41.1231899
  81.2500422  15.6692247  40.6575203  80.1262277  16.6779547  40.5551291
  34.2190265  11.2379866  65.6631708  34.5652168  12.1022062  65.4406595
  34.5281451  11.0784845  66.5549326  69.8484653  10.8963613  50.5172157
  70.0821822  11.8243437  50.5387306  69.0915673  10.8264475  51.0989761
  67.2848480   2.0445089  47.7758408  67.8045314   1.7045336  48.5042524
  66.6617268   2.6444845  48.1856918  40.9814978  74.8095655  49.4765615
  40.5795574  74.0529490  49.0497065  41.7783546  74.4628525  49.8778629
  25.0055504  59.8062086  52.3756647  25.6404972  59.1837883  52.0211601
  24.8224187  60.4016495  51.6489315   6.3260682  53.2381308   3.3938776
   6.7064412  52.8321898   2.6149355   5.4459318  53.4988463   3.1225429
  77.2894948  28.4264688  66.7399883  76.4502709  28.2881861  67.1790886
  77.0554774  28.7815123  65.8824253   6.1759456  33.0101979  14.2549930
   6.4372977  33.6079085  13.5545192   6.1913689  32.1436704  13.8486419
  22.2948774  25.4162324  10.1113735  22.7250942  26.2664092  10.2027069
  22.5549253  25.1082480   9.2431865  48.4395140  11.3033228  24.5218372
  48.9362638  12.0996027  24.7100019  47.8088408  11.2393694  25.2390480
  10.7341131  43.4147418   2.5983225   9.8830541  43.0375827   2.3754202
  10.9451898  43.0407298   3.4537731  52.8426886  74.9924803  61.0259342
  53.4151697  74.3305254  61.4136362  53.4056044  75.7579947  60.9104204
   6.0062536  45.3062690  10.2734028   5.3541978  45.2676738  10.9730945
   6.1352094  46.2418425  10.1175247  73.8261741   0.0896006  46.9533825
  73.2624858   0.7898359  46.6245174  73.2294887  -0.5040617  47.4091911
  28.5434389  80.8405590  63.0699492  28.0800390  81.6370106  63.3291149
  28.7067389  80.3799057  63.8929701   9.0109768  26.1247854  67.7079344
   9.0392390  27.0604925  67.9076338   9.2582503  25.6973104  68.5279083
  50.4499251  28.5144822  68.8197425  49.6132237  28.1629006  69.1239626
  50.8420379  27.7995746  68.3183615  30.9619602  37.7873052   2.2205387
  30.1080259  38.1747878   2.0284877  31.2716468  38.2608045   2.9926286
  19.4231129  62.9468155  54.1084242  20.3513265  62.7130985  54.1031790
  19.1508019  62.8258276  55.0180626   4.0825119  32.2262506  66.5554953
   4.0853825  31.7864637  65.7053185   4.2302170  33.1490164  66.3483191
   4.9494990  62.9675162  15.8894191   5.0266798  63.0229533  14.9369465
   5.2309831  62.0774806  16.1011253  45.1140483  70.7132304   3.9201389
  45.6708606  71.4787448   4.0621791  44.2398151  71.0008109   4.1833053
  85.9423839  63.6261428  12.0653186  86.8867479  63.4870303  12.1364341
  85.6860434  63.1349624  11.2847648  56.1231375  77.5648260  59.9078035
  56.3639927  77.6092577  58.9824629  56.3931227  76.6889381  60.1837730
  10.0916203  69.3743289  15.0000415  10.8655365  69.0316832  15.4471145
   9.7390254  70.0308574  15.6007705  46.3147836   1.8312101  46.0824537
  46.4559322   1.1896162  45.3862762  45.3788023   1.7741423  46.2745857
  70.2565616  49.7149878  58.6026859  69.7732203  49.6396379  57.7799225
  71.1169427  49.3423586  58.4100246  51.4725011  15.9888868  32.3621774
  51.8305462  15.1170473  32.1950483  52.2327607  16.5176420  32.6043558
  58.1630080   8.5343389  32.5690341  58.7988680   7.8190355  32.5533342
  58.6916702   9.3268423  32.4757910  67.2619490  35.0654138   0.3814159
  67.3295711  35.5858386  -0.4190935  66.9295411  35.6777060   1.0377966
  54.6206617  72.5384283  43.0112982  55.0618839  71.7506313  42.6935959
  55.2958298  73.0113840  43.4978056  86.7461436   3.3189230  63.6632204
  87.4807876   2.9411631  63.1796646  86.4062827   2.5937681  64.1875076
  41.6130972  80.3130817  67.1615362  41.2068939  80.1196003  66.3166714
  41.4632416  79.5259619  67.6851988  38.6147380  79.4862938  31.9385767
  38.7551236  78.6680937  32.4150944  38.8767123  80.1703167  32.5547814
  84.3233340  17.1256762  54.6592808  83.4402602  16.7707281  54.7613764
  84.8929160  16.3564138  54.6658134  45.8951839  39.2350638  19.3765102
  45.3874143  38.4411633  19.5441852  46.1113771  39.5694220  20.2469669
  55.9819174  79.5448256  42.1803379  55.8316946  78.8339949  42.8035450
  55.3318119  79.4016981  41.4925098  40.7337230  11.7014627  63.3506107
  39.8250752  11.5706758  63.6216927  40.7537287  12.5926619  63.0019045
  55.5909937  13.2861738  51.9917107  55.0845807  13.6909609  52.6959276
  54.9974435  13.2836752  51.2407589  55.1868003   2.0353346  45.7407999
  54.5883482   2.3913794  45.0840473  54.6823662   1.3489466  46.1774302
   0.2340403   5.5564909  54.7010565   1.1854878   5.5357962  54.8037767
  -0.0477466   6.3030939  55.2296591  84.3929564  50.6919635   9.2511306
  84.0790354  50.0330222   9.8703895  83.9521991  51.4991725   9.5164142
  51.0162371   3.4874659  60.4234838  50.4533380   2.7336435  60.2470684
  51.6504376   3.4858160  59.7065353  62.8117037  59.4848728  51.6577768
  62.6635075  58.5412550  51.5956497  62.4078608  59.7365713  52.4883127
  46.0563183  69.3771172  30.2939105  45.7417774  68.8388777  31.0202694
  45.2674198  69.5930624  29.7966766  40.7298439  19.8305731  50.6964016
  39.8754101  19.5773153  50.3470707  40.5338841  20.5163031  51.3348436
  68.6776464  36.0111170  42.5066996  68.8358157  35.1417570  42.1386909
  68.6453336  35.8685141  43.4526682   7.5682116  46.9419336  36.8326139
   6.7967612  46.3753605  36.8230724   7.8540146  46.9728041  35.9195995
  22.4107218  80.4650116  29.0508270  22.9800653  79.7733068  29.3879175
  23.0127692  81.1186504  28.6951184  52.8125303   0.4676943  36.5351415
  51.8784397   0.4510241  36.3267469  52.8959816   1.1442690  37.2070909
  75.2197879  66.9966154  34.0065575  75.6501143  66.1517172  33.8754225
  74.5619195  66.8281965  34.6811509  30.3104091  62.7170658  47.2907782
  29.7384977  63.4263325  46.9973660  31.0654306  63.1619310  47.6758385
  31.6343594  75.6344795  59.9441147  32.0706439  74.9053097  60.3847933
  32.3495126  76.1604691  59.5861769  45.0603294  67.6878595  32.2752500
  45.0372791  68.3797646  32.9362869  44.4107914  67.0507574  32.5726318
  32.3539567  71.7090511  29.5751667  33.1927633  71.9652557  29.9585676
  32.3294568  72.1585512  28.7304306  40.4948759  66.1602783  53.6138725
  40.5959892  66.3203335  52.6755810  41.3286591  65.7742310  53.8822126
  44.0948349   6.9158678  27.2899652  44.6552186   6.1626558  27.4767113
  43.4554630   6.9211607  28.0022907  23.7220788  60.7439566  70.6264210
  23.1089592  60.5767727  71.3422203  23.1640077  60.8998632  69.8645306
  73.1646913   7.5523882  47.3741055  74.0674298   7.2918634  47.5569153
  73.2468408   8.3463507  46.8458128  64.2509358  49.7278716  21.2357555
  64.1370290  50.6703235  21.3583980  63.5114615  49.4666518  20.6869636
  79.7030728   6.9998102  40.9785795  79.9114411   7.7671461  40.4456472
  79.0561479   6.5184813  40.4627895   4.5314303  27.1741991  57.2897434
   3.8826456  27.8303175  57.0351410   4.0612688  26.5911703  57.8857803
  27.6299906  69.6586752  10.6731689  26.9442081  69.1738462  10.2139544
  28.0735636  70.1553726   9.9855888  47.1305704  65.6750202  34.0973830
  46.7547798  66.1273432  34.8526430  47.7849007  66.2838745  33.7547636
  41.1352768  16.2546663  45.6209898  40.7283821  15.5955725  46.1833620
  40.4538575  16.4840250  44.9890852  19.5094427   6.1940062   6.4055811
  19.2942174   5.6509793   7.1638857  18.6604484   6.4658368   6.0569416
  23.2698479   7.1809320  18.9969480  22.4958554   7.6686220  19.2785847
  23.2881585   7.2890310  18.0460477  38.7709212  76.5344429  49.4373941
  38.2760119  76.2895727  48.6555147  39.5735407  76.0155010  49.3850994
   1.8466791  45.0524676   2.2070060   2.1902355  45.9318889   2.0494543
   1.7341216  45.0058330   3.1564174  14.0922013  13.2452612  60.9436941
  14.2304364  12.4289827  61.4241219  13.5846129  13.7927370  61.5427446
  37.7295065  66.9076967  47.0247221  38.1047297  66.4261866  47.7620029
  37.1867776  66.2638998  46.5695238  80.2231734   7.4189405  43.9537907
  79.9558871   7.2505121  43.0502272  80.4896205   6.5625982  44.2883301
   4.0270939   7.8306513  69.8588228   4.5344820   7.1145563  69.4767284
   4.5490208   8.6137991  69.6841812  17.9943383  58.1731844  52.1313429
  18.6565089  58.4547281  51.5000820  17.7696145  58.9688540  52.6136684
  72.7648878  68.4016037  22.4240351  72.8982162  68.3719015  21.4766312
  72.1861696  69.1516256  22.5610685  49.7897434  77.5693083  31.5727901
  50.6539536  77.2898436  31.8748951  49.8610735  78.5202026  31.4894819
  23.0755234  77.4862051  64.8193550  23.6180496  76.9773626  65.4218292
  23.6709142  78.1420660  64.4566059  42.6100729  42.1847880   3.7259565
  43.0214880  41.4255107   4.1388403  43.1519769  42.9265845   3.9948497
  24.3548622  19.5253115  66.5862179  25.0761643  18.9173918  66.4237690
  24.6396294  20.0381880  67.3425865   8.2701500  45.8753360  26.4079033
   7.6432904  45.8786643  25.6845317   7.7508529  46.1133922  27.1759449
  69.2210525  17.9966192  25.6006074  69.1315501  17.1372633  25.1886177
  68.3264273  18.3336477  25.6484461  17.8660369  75.6246376  71.1155367
  18.3715820  74.8442125  70.8883953  18.3426011  76.3464451  70.7055235
   7.5383671  30.7433427   1.7315136   7.6351388  29.7910893   1.7227779
   6.7726930  30.9012235   2.2838245  19.4727921  80.4900742  42.0887709
  20.1514816  81.1007786  41.8012714  19.3250895  79.9226379  41.3321829
  81.4951669  21.5735829  11.2008701  82.2820793  22.0606959  10.9564911
  80.7990109  21.9615758  10.6707225   9.2902985  20.9021120  57.5267649
   9.4415465  21.4865808  58.2695627   9.6825066  21.3561945  56.7809629
  79.7511905   6.1772089  54.5339155  79.7539514   6.1025553  53.5796356
  80.5151742   5.6740789  54.8157310   5.1233616  25.3657942  54.9257469
   4.8700037  26.0787420  55.5120468   4.3882456  25.2824621  54.3183804
  32.7337408  66.4131451  63.9228487  32.3707533  65.6432295  63.4850073
  32.7665210  67.0835543  63.2404137  64.8094194   6.2064772  30.8121276
  63.9858907   6.5645914  31.1434698  64.6764749   5.2585535  30.8143044
  34.3224084  10.7588129  62.0103502  33.5458123  10.3825979  61.5961123
  34.1567808  10.6760626  62.9494715  14.8190632   5.0993948  46.6163158
  14.1065827   5.2586679  47.2353745  15.6158867   5.2610712  47.1214533
  47.8718805  64.5152617  64.9189281  47.4545002  64.1495800  65.6988621
  47.5162649  65.4012823  64.8500919  83.1432315  57.2912645  53.3076954
  82.3754382  56.9604969  53.7738705  83.6059454  57.8230095  53.9552879
  79.2579167  11.3126497  60.1860094  79.9550431  11.3184671  59.5301056
  79.7170823  11.2425070  61.0229540   6.2397280  15.1487284  59.4143534
   6.1274376  15.5891256  60.2567720   6.6579380  14.3160181  59.6332788
  77.5584887  55.1788867  11.8669544  78.4705697  55.0243724  11.6210495
  77.4755429  54.7884620  12.7369629  37.1985531  77.8530693  58.0907345
  37.2331810  78.5408020  57.4258614  36.5834832  78.1836319  58.7454462
  66.4488953   8.8821917  53.6962891  65.5585092   8.6960154  53.3983231
  66.3586514   9.0415506  54.6358013  35.2784952  33.0868066  13.2067333
  35.3290733  32.1334470  13.1376300  34.6561035  33.3435834  12.5263439
  65.1435661  76.6552830  53.8212442  66.0768032  76.5864038  54.0226460
  65.1159382  76.9262648  52.9036188  33.7458213  25.1642240   2.3935447
  33.1077560  24.5848096   2.8099428  34.5961746  24.8177493   2.6638780
  21.1071324  70.4177999  50.8218098  22.0077729  70.7062483  50.6739092
  20.5727291  71.1833668  50.6107426   3.1268349   3.2831316  69.6866894
   3.3810320   3.8633566  68.9690876   3.5688248   3.6445456  70.4549694
  52.8484051  21.8658317  11.2395225  53.2602699  21.2511981  11.8468319
  53.0435406  22.7293170  11.6035877  59.3230656  20.4982531   6.6142831
  59.5867783  20.2750361   5.7216106  58.5383657  19.9728740   6.7706667
  60.9134286   7.3592596  53.1075096  60.2209967   6.7649775  53.3966351
  60.5415004   8.2338457  53.2215071  56.1694520  10.4275160  68.5149813
  56.7551582  10.5206041  69.2663193  56.2865060   9.5209722  68.2309103
   1.6089764  10.9515791  13.5380530   1.7108002  10.5156450  12.6919901
   1.3832798  11.8549948  13.3163786  67.5508301  29.5799125   8.0466686
  67.7102147  28.9911235   8.7843404  66.7762940  30.0806010   8.3028637
  35.0945044  75.6595087  50.0969934  35.5213642  75.4980803  49.2555904
  34.2498279  76.0464525  49.8667097  42.8128624  70.3667498  56.1660242
  42.8427410  69.6193457  55.5687571  43.7308025  70.6016207  56.3018799
  16.2295532  68.7352562  43.1782436  16.5927577  68.8629913  44.0545988
  16.8924129  68.2215309  42.7167940  12.4986258  11.1440020  28.1426072
  11.9408551  10.4977732  27.7095842  12.6482764  11.8155317  27.4771142
  63.6385839   0.5235033  48.7760925  64.2861836   0.8368998  48.1447220
  63.0290359   0.0011568  48.2547092   5.1577073  70.1716995  42.5495529
   5.9254462  70.4141092  43.0672836   4.4993243  70.8287859  42.7753830
  13.1218064  77.6631069  28.3385682  12.4935138  76.9934225  28.6087513
  12.6160800  78.2554102  27.7821040  84.4780868  19.5867949  25.4531932
  84.2503064  20.5101805  25.5613875  85.1299327  19.5814352  24.7522664
  28.3571005  61.2195206  56.0815287  28.8671160  61.4635897  56.8538952
  28.3656240  62.0028877  55.5315304  78.7705966  76.8270350  27.5577021
  78.8598182  76.6924620  28.5011864  77.8380742  76.6980600  27.3844981
  75.3600209   7.8605490  19.2573822  75.1417964   7.8218107  20.1885700
  75.7920783   8.7076120  19.1476727  29.9943328  68.1194830  62.6941729
  29.3782735  67.4168396  62.4868011  29.4959164  68.7188148  63.2497025
   8.1415232   8.7876380  12.7940212   8.1403335   7.8409112  12.9352413
   8.2682713   8.8889182  11.8506656  20.9055161  67.7053165  41.9109249
  21.3612151  68.5088491  41.6601133  20.9246039  67.7078867  42.8679323
  18.6860704  77.7505159  59.6308613  19.2828631  77.2537947  60.1906252
  18.4519315  77.1414995  58.9304972  28.7036069  32.4526513  25.2868877
  28.0936225  32.0490325  24.6694408  29.5618900  32.3540318  24.8747573
  43.7695503  65.1015282  35.9063482  44.4967747  65.1667261  36.5253210
  44.1739511  65.2259016  35.0477314  42.4455786  64.4308949  54.3177128
  42.5284767  64.6970081  55.2334309  43.1533909  63.7999868  54.1866207
  63.0659073  22.6825647  20.2271199  63.2714170  23.5186510  19.8088431
  63.5617965  22.0355062  19.7254813  22.1090007  74.5694685  65.0233030
  22.3980451  75.4815102  65.0526905  22.7856159  74.1199827  64.5169544
  80.5271905  18.2450895  65.5431843  80.0843661  17.7668886  66.2442350
  80.0332397  18.0243235  64.7535610  47.4161720  61.8134594  36.8407917
  46.6266775  61.8922615  36.3053274  48.1312609  62.0473385  36.2490296
  60.0945251  18.7136679  68.2916975  59.4177096  18.3371191  68.8541603
  59.7352379  18.6468153  67.4070072  61.0369013  34.7251475  29.4865451
  60.1667599  35.1082099  29.5976768  61.6393949  35.4134763  29.7683941
   5.6468519  57.9211772  22.5133453   5.8843573  57.1031535  22.9499946
   5.6510290  58.5755504  23.2119213   5.8943787  24.3173532  42.5110817
   5.0911894  23.8621836  42.7639532   5.7583895  25.2203684  42.7979517
   4.1965571   4.8830442  67.7244949   4.0904560   4.2683058  66.9984961
   3.8013687   5.6960230  67.4096537  35.8632135  68.9238262  63.2448483
  35.8373952  68.7097549  62.3122501  34.9687552  69.1932821  63.4535885
  83.9477675  10.6586008  29.7126603  84.0469258  11.5336542  29.3375850
  83.5420650  10.8085852  30.5665588  31.3714584  52.4736655   1.4025007
  31.9489940  51.7103541   1.4076172  30.8713992  52.4011100   2.2154651
  32.7108860  62.1336937  64.2735577  33.5694861  62.4470377  64.5579052
  32.2066045  62.0494890  65.0827837  28.3064922  15.6570924   5.2058159
  27.5453170  16.1787808   4.9514900  28.9446529  16.2997592   5.5155883
  53.5023730   7.2823935  33.2985592  53.7403076   8.0274801  33.8503432
  54.2918699   7.0999269  32.7890205  51.5583754  70.4505920  51.0890007
  51.8585205  70.5643988  51.9907761  52.2730827  69.9839592  50.6557798
  56.4282799  71.0818434  59.9160767  55.5103445  71.1002779  59.6453524
  56.8436003  70.4656363  59.3127298  62.7513450   9.1646032  26.4966679
  63.5486715   9.4502954  26.0507083  62.8903597   9.4043474  27.4128747
  67.7579832  59.6832037  61.7314529  67.2419834  58.9424706  62.0497179
  68.6431360  59.3329811  61.6310740  58.8829964  12.5825911  67.2249126
  57.9681700  12.8640776  67.2344875  58.8430470  11.6446333  67.0381737
  10.4342785   2.4196081  38.4701920  10.1142445   1.5184526  38.5116673
  11.0790291   2.4124842  37.7627468  39.9898799  19.6286738  15.3111110
  39.2341550  19.0837014  15.5304561  39.8369249  19.8967851  14.4050441
  33.5654195  50.1818908   1.3340507  34.3157895  49.7790587   1.7709766
  33.1906637  49.4782794   0.8042226  68.5293906  38.4219961  64.7156906
  69.1907638  39.0659456  64.4624043  68.5774487  38.3924608  65.6712294
  45.5514860  70.1659298  52.8844881  45.0639629  70.8986807  52.5081491
  45.0630760  69.9337339  53.6742783  24.5664778   2.5217180  45.3417778
  25.2182405   1.8256979  45.2581978  24.1480302   2.3577909  46.1869144
  59.7853994  71.5435028  69.7554684  59.9625731  71.3615990  70.6783724
  58.9786386  72.0585823  69.7634554  70.0133985   2.8354006  29.2642665
  69.6596663   3.7028055  29.0674996  69.8530858   2.7181272  30.2006316
  57.6248758  19.6094637  48.5925817  57.0298450  19.1872721  47.9729700
  57.0540278  19.9369364  49.2876577  83.4380113  23.6019576   8.0687509
  84.1841970  23.0200780   8.2131563  82.7798735  23.0478537   7.6491676
  38.6026454  73.2089090  28.7718916  38.0816293  73.8717365  29.2251420
  39.5073366  73.4110165  29.0104651  67.7870958  21.1116724  67.0805693
  68.3350103  20.4043226  67.4206829  67.4564045  20.7785253  66.2463713
  12.4770558  51.4902735  24.5067072  13.3635747  51.3702488  24.1662526
  11.9582641  50.8169365  24.0665841  33.6207223  80.1069260  55.3299999
  33.3580041  80.9960270  55.0918770  33.7528110  79.6636534  54.4919729
  15.6311687  40.1660121   0.3159605  15.4652484  39.8082030   1.1881242
  15.6249174  39.4025100  -0.2613272  83.2833277  55.3316844   1.9163499
  84.1240464  55.7232440   1.6794954  83.2711588  54.4931662   1.4548669
  75.4361861   6.1118059   6.5545642  75.5423825   5.4009371   7.1867192
  74.5585959   5.9831743   6.1946797  43.9197879   0.9639387  35.5574155
  43.4931331   0.3283625  36.1320901  44.0327244   0.4991465  34.7282887
   3.9307633   6.8876581  49.1902542   3.4472790   7.5897531  49.6256018
   4.3789521   7.3203592  48.4635305   9.1730124  58.4478633  58.0336477
   8.5374553  58.3102672  58.7360479   9.0305812  57.7148501  57.4347820
  75.4101944  70.3678703  34.4905829  76.0279226  69.8148203  34.0122676
  74.9314928  69.7601748  35.0543070  57.1976917  31.3739614  29.0483356
  57.5318711  32.1089201  29.5625234  57.4066465  30.6005411  29.5721602
  12.5152388  13.6292391  37.7636409  11.7145863  13.6650019  37.2402740
  12.2323933  13.2851057  38.6108732  68.4666920  65.5252075  13.4040320
  68.0849743  64.6494818  13.3438230  68.4056520  65.8747339  12.5150216
  63.0161922  35.3768091  11.4290226  62.8211611  36.2603693  11.7413044
  62.9296725  34.8238020  12.2055066  48.9823961  70.2071142  50.1715994
  48.6179686  70.0499296  51.0426426  49.8894167  70.4659367  50.3345871
   5.0408542  61.3500690  41.4175320   5.0412381  60.7814646  40.6475210
   5.8553451  61.1370230  41.8729973  52.3753510  33.7439931   5.9202705
  53.1689034  33.2833875   5.6476007  52.3560445  33.6449731   6.8721424
  39.2831357  53.6156238  17.4112545  39.2868360  53.7519801  16.4638267
  40.1212343  53.1914962  17.5954662   0.9986391  30.4305677  16.9271553
   1.0608330  31.2431364  17.4292433   0.1883784  30.5203943  16.4255214
  44.9659586  80.7784748  30.8211994  44.6361351  80.4553509  29.9827242
  45.8127117  81.1717129  30.6100035  87.1620076  28.6982470  65.4477406
  87.2913878  27.7824430  65.2011871  86.5967267  28.6610060  66.2192965
  80.4514020   7.7131300  69.3309593  81.1854642   7.6207857  68.7236214
  80.8603280   7.9209547  70.1710892  66.8939114  71.1115885  62.3583364
  67.3045635  70.5778551  61.6780996  66.1955738  70.5581665  62.7080250
  44.3227997  17.3540335  57.6129150  44.2248860  16.5298872  57.1360254
  45.2691212  17.4726801  57.6943207  51.9103457   2.4979108  21.0345493
  51.4645554   3.3438580  20.9912334  52.0180251   2.3315900  21.9710193
  12.2188797  25.3017359  69.8088932  11.3172570  25.1055460  70.0634956
  12.5129834  24.5174532  69.3455982  26.8818982  21.2176955  13.1432281
  26.1318477  20.6697429  12.9121242  27.3906453  20.6827367  13.7525116
  28.9954185  64.7859859  57.4508858  29.2060733  63.9204931  57.8012848
  29.6201348  65.3745079  57.8746891  41.1246777  81.2222958  54.4507360
  41.9488716  81.5738869  54.1141033  40.9195709  80.4920387  53.8668823
  21.4921784  67.8432798  51.2095976  21.5435314  68.7956333  51.2909126
  21.7321754  67.5156021  52.0763540  43.9427710  76.4673424  49.4305182
  43.9039373  76.1506891  48.5280466  43.5174751  75.7804441  49.9438667
  75.8814424   1.4439325  48.4360600  75.2050775   0.9353952  47.9886770
  75.3956883   2.0920687  48.9461422  71.1497634   9.2816381  64.0782642
  70.6850617   9.5109777  64.8830557  71.5847438   8.4533339  64.2806101
  81.4789282  79.0726912  16.7089115  82.1116506  79.7691119  16.5331112
  81.9279181  78.4902251  17.3215900  65.7002728  24.4243841  38.2390618
  65.7527154  25.3770285  38.1619692  66.5438073  24.1674261  38.6114216
  81.7888260  76.2422943  66.9949675  81.1366940  76.1623096  66.2988663
  82.5971413  76.4784813  66.5399170  21.2355216  40.9133304  13.0264507
  21.5053018  41.8117965  13.2167373  21.2329276  40.4783500  13.8791023
  75.3453779  64.8359060  45.4586840  75.9179974  65.5824327  45.6348467
  75.4393053  64.6784449  44.5192099  67.2414511  28.1574564  60.4305649
  66.3430470  28.3277826  60.1475573  67.6952832  28.9902430  60.3011608
  21.5046438  65.2258075   2.0467315  21.4437755  64.3149531   2.3346172
  22.4363645  65.4355586   2.1110044  64.6420805  64.0539802  42.3384796
  65.4390781  63.5239470  42.3288475  64.5502596  64.3318904  43.2498298
  63.1598990  27.3647432  33.6573768  62.5312799  27.9819803  33.2831025
  63.8467305  27.2910147  32.9947615  81.1425400  66.6864443  49.0754890
  82.0939064  66.5866470  49.0411139  80.8024025  65.8275938  48.8246632
  69.2806190  75.5698900  57.7599430  68.8391345  74.8329287  57.3377991
  68.6595862  75.8738451  58.4218788  15.0553837  29.0015917  70.5544949
  14.5846072  29.7135096  70.9878254  14.8136750  29.0813761  69.6317577
  68.1682652   1.2107210  68.0064917  68.3218735   1.9586782  67.4292564
  68.7693899   1.3460665  68.7389946   7.3046811   8.8409818   3.2910476
   8.1252750   9.1314853   3.6891304   7.1802243   7.9511321   3.6210666
  49.2308426  62.6413536  69.6010780  49.9740505  63.1115294  69.2231798
  48.6739588  63.3283663  69.9673080  45.7295895  79.2981863  38.9065313
  45.2916384  79.8776770  39.5299292  45.0908661  78.6067533  38.7327886
  71.2916511  34.7372656  56.3824034  71.7949479  35.3597288  56.9072437
  71.7548125  33.9061575  56.4871454   9.2511931  21.1949663  49.0438986
   9.0759173  20.3198080  49.3897295   9.3258467  21.7490129  49.8208714
   2.9581585  17.9204302  46.6561317   2.6214543  17.4610739  47.4254560
   3.8798991  17.6664858  46.6099167  20.3870907  15.3132658  46.9369888
  19.9996033  15.9240847  46.3101006  19.7972861  14.5593767  46.9327021
  59.1972273  10.0337725  36.3160181  60.0691646   9.8624449  36.6718268
  59.0834039  10.9798937  36.4061809  74.2612927  13.7209539  19.9600434
  73.9268106  14.0540915  20.7927346  73.6769670  14.0947752  19.3004501
  36.6195240  65.1987772  38.1226206  37.3642865  65.7717161  38.3050704
  36.9578495  64.5580034  37.4971843  68.7177515  75.9745312  47.5425100
  69.5080614  75.4345942  47.5528431  68.7769127  76.5009975  48.3397293
  69.6112871  72.4565458  63.7177896  69.0119505  71.7193031  63.6015797
  69.1716719  73.0252647  64.3498755  83.6792462  25.1084833  70.3303766
  84.3405622  25.7750826  70.1444864  82.8502648  25.5178575  70.0825071
  84.4724029  39.7179060  43.2828808  85.3872817  39.9992971  43.2901764
  83.9873069  40.4716425  43.6187172  82.5911522  44.2226410  70.3710222
  82.2084522  44.6677208  71.1271143  83.5361576  44.3168879  70.4906416
  15.7293215  30.0381975  35.0138021  16.6430750  30.3109293  34.9306750
  15.4023447  30.0189428  34.1143870  57.4247932  70.4020691  17.0000887
  57.0523787  70.2219915  17.8632879  56.6652775  70.5652237  16.4408505
  66.9560879  14.7697763  58.3768415  67.2635286  15.6647520  58.5208321
  67.7339094  14.2262106  58.5023975  73.0775629  78.8065112  16.9787059
  72.9751848  79.4555629  16.2826572  74.0243433  78.7281096  17.0957218
  56.2104057  79.6925063  52.6032782  55.7493140  79.0753250  53.1713581
  57.0655617  79.8067094  53.0178833  23.1596804   2.7982461  23.8009310
  23.7382746   2.2358571  24.3158841  22.2915745   2.6594901  24.1795754
  36.7775571  60.5030055   3.9580379  37.2296994  60.2013584   4.7459493
  37.0966565  59.9269112   3.2634006  75.9354594  33.2609677  65.4425478
  75.3089752  32.6064181  65.1338196  76.2878301  32.8919744  66.2524271
  76.3457396  -0.1919716  36.7579961  75.5341306   0.3122044  36.7003036
  76.9659295   0.4003235  37.1831846   7.4316239  17.1838510  24.8607326
   6.7302006  17.8115582  25.0345731   8.0268389  17.6469791  24.2712712
  17.2778702  17.6508534  35.0084066  18.0719185  17.8888011  35.4870510
  17.2023010  16.7038620  35.1255679  34.2439168  39.2980707  19.7658477
  33.9255341  40.0466909  20.2702556  33.4618913  38.9452472  19.3413673
  20.6627536  16.5175509  62.8260422  21.5025973  16.9663966  62.9231548
  20.5473113  16.0444820  63.6501265   6.7384368  21.3227916  69.7079754
   5.8259559  21.4134622  69.4334030   6.6947627  20.8226085  70.5229235
   2.1262622   6.4848763   7.9326272   2.0278214   7.4204373   7.7558041
   1.8560340   6.0577542   7.1197462  58.3656147  47.0779800  13.8238418
  57.5942996  46.6367483  13.4680033  58.6422255  46.5248394  14.5544243
  54.4093769  31.0421796   5.6829820  55.0216120  31.6761817   5.3095661
  53.9898842  30.6382306   4.9233232  15.7124150  27.2535872  41.5795851
  15.9728384  26.8396139  40.7567644  15.6974995  26.5369964  42.2140217
  32.9469728  44.0627623  34.7428489  32.4741864  43.5095644  35.3646803
  33.2651067  43.4549570  34.0753198  54.2474270   4.4593796  12.7432716
  54.8325539   3.7986791  12.3726869  53.4569979   3.9739043  12.9794168
  73.9478217   2.6180423  11.0755954  74.3715225   1.7627538  11.0035644
  74.1343318   2.9031527  11.9701133  64.6263019  81.7924121   2.3774689
  64.9196288  82.3714508   3.0809641  65.3585515  81.7741901   1.7612624
  35.8348641  77.7765827  31.7689538  36.0946474  77.7058865  32.6875114
  35.6077704  78.6993973  31.6546154  73.3466825  76.3252993  43.3131218
  72.9508516  75.5506457  43.7124443  74.1045198  75.9878482  42.8355837
   1.1199763   7.5283253  26.7702866   0.4748181   7.4092686  26.0732722
   0.9858769   6.7794949  27.3512363  85.7144328  61.0703452   3.5149274
  84.8532243  61.4584692   3.3603082  86.2933012  61.5184005   2.8981720
  75.0104358  42.5154209  61.7689419  75.2268245  42.4244404  60.8409739
  75.1823809  41.6503716  62.1409082  80.0462225   0.1151094  70.7745266
  79.4983765   0.6061363  70.1621628  80.5492284   0.7856976  71.2366199
  24.2099047  29.3893743  38.2173157  23.4894753  30.0095415  38.3295846
  24.8687100  29.8748922  37.7208447   5.8923823  22.1678329  30.8711672
   6.5788913  21.7158961  31.3617682   5.7385772  21.6120982  30.1071429
  20.7685614  11.1956882  52.1418381  20.3206778  10.3673112  52.3133707
  20.0907898  11.7627299  51.7739773  48.6554384  21.8706870  20.7715678
  48.6961126  20.9733891  21.1023784  48.0956745  21.8152809  19.9970829
  32.0724854  80.8231454  18.3170712  31.9144377  79.9557055  17.9445112
  31.3582096  80.9493216  18.9416695  73.2741492  56.7187913  12.7510772
  72.8783315  57.3652251  13.3356128  73.2986062  55.9127720  13.2667957
  60.4397752  14.2501330  53.4980249  60.9501436  14.3252361  52.6917267
  60.5755022  15.0850511  53.9460421  23.2668877  22.0376396  56.1775017
  23.1916213  21.1583805  55.8067322  24.1038609  22.0309067  56.6418982
   5.8847290  56.9255257  40.4556751   5.7334834  57.2480917  41.3441086
   5.2341688  56.2332821  40.3382111  67.1704691  74.7435768  12.7248226
  66.8802279  75.2246030  11.9498287  67.1750944  75.3968723  13.4243999
  52.3172310  19.8785591  51.0356808  51.6965678  20.6037831  50.9645462
  52.5722983  19.6921027  50.1321268  22.2853717  74.7173221  46.4753771
  22.9279766  75.1927574  45.9488297  21.5323696  74.6094085  45.8943653
  21.5071973  70.2362807  33.0093122  20.7079849  69.7126420  33.0667114
  21.2678442  71.0811753  33.3902264  20.4149037  75.5929025  18.0544315
  19.8161852  75.4309185  18.7834869  20.4691469  76.5468033  17.9964576
  84.8917757  23.8133693  56.1328506  85.7065941  24.1627645  55.7719851
  84.2082077  24.3768215  55.7702398  58.5725557  75.7300992  52.7322769
  59.5081094  75.5717493  52.8583574  58.4949411  75.9880013  51.8137503
  28.2301259   4.5513511  24.7662139  28.8976693   3.8890350  24.5874476
  27.7238083   4.1907227  25.4941010  73.9282932  27.9713416  13.2851040
  73.0893638  27.7904820  13.7090373  74.4628623  28.3695412  13.9720571
  70.1291642  81.9092636  33.0034280  70.1490471  81.9874286  33.9572239
  71.0266409  81.6788853  32.7632308  12.5718296  27.8363633  46.3233614
  11.7424130  27.3585701  46.3269091  12.4186087  28.5778308  45.7377195
  54.0004263  73.3070166   9.0231097  54.4045297  72.4514593   8.8783568
  53.7940792  73.6261584   8.1445867   7.7366686  25.8119988  54.9692917
   6.7818844  25.8799362  54.9674654   8.0360591  26.6346240  54.5821428
  63.1586816  33.1239152  53.3869028  62.3389533  32.6362419  53.4672260
  62.9774478  33.9670634  53.8022184  75.4413232  56.7209024  22.2377372
  75.6584034  56.7422552  23.1697512  75.8370778  57.5162668  21.8813539
  56.5476608  -0.0308741  38.7369537  56.2530804   0.8785855  38.6886072
  57.3418570  -0.0540900  38.2031465   4.2299876  44.1342354  54.6856737
   4.7424853  44.4139481  55.4441833   4.2205670  43.1787491  54.7421408
  84.1378698  63.7894030  26.6812134  83.3111820  63.9067776  27.1492314
  83.8817105  63.4475215  25.8246326  62.1459291  73.7402148  42.3215008
  62.5586748  74.1519208  43.0806923  62.8767208  73.5048254  41.7498636
  54.9246740  20.9089899  63.3079958  54.4337320  21.2338805  62.5532389
  54.4364309  21.2284017  64.0668297  10.9807014  73.1960011  52.6515818
  11.2770152  74.0974998  52.7770090  11.3320589  72.9450607  51.7972946
  35.2591300  28.3020687  33.4919524  35.1628900  27.5994444  34.1348290
  35.5925226  27.8654718  32.7080727   1.8452614  60.6277128   4.5769249
   1.3291018  61.2626846   5.0735317   2.7367275  60.9757407   4.5968423
  85.4238799  17.8762245  39.7713780  85.2276964  17.8540587  40.7079983
  84.6117641  17.5951362  39.3498468  78.8592317  20.1585150  23.2453346
  79.1163864  20.9544706  22.7799749  77.9269263  20.2776504  23.4265685
  11.1705167  79.5601612  42.7241564  10.8399899  79.1574548  41.9211531
  11.9522912  79.0527619  42.9423332  83.5444948  42.4343061  54.2368507
  83.1050989  42.3828602  55.0856876  84.0169414  41.6052771  54.1610813
  83.3307251  35.1757836  64.5738840  82.3887130  35.1798105  64.7436762
  83.4673726  34.4222713  63.9996243   7.8457522   6.7645836  45.9613419
   8.6491799   6.8721455  46.4704227   8.1152487   6.2635678  45.1915455
  20.4931808   4.0316764  46.2065458  20.7874870   4.9422878  46.1864758
  19.6998060   4.0481248  46.7418194  69.4595041  34.9684238  48.0830669
  68.7529495  34.6095395  48.6199236  69.0312948  35.6204534  47.5283337
  33.2336840  68.5576446  35.8949876  32.7727542  67.8408177  36.3308024
  32.5373635  69.1000147  35.5245781  15.9228045  70.7461865  40.3622198
  15.4211576  71.1244447  39.6400714  16.8326909  70.7839592  40.0674152
  79.6938166  54.6830244  44.4501686  79.8424086  53.9559741  43.8455629
  79.2211876  54.2910976  45.1845026  21.7367506   8.4951234  68.7488365
  21.9883466   9.2740828  68.2526970  21.5112209   8.8271302  69.6178246
  22.6210475  32.3791790  34.4057870  23.0285263  31.5518236  34.1495109
  22.9190993  32.5249577  35.3036427  16.1518526   6.7703319  42.1437883
  15.5944419   7.0703751  42.8617716  16.2566721   5.8315003  42.2981882
  22.4704456   7.0336634  53.7385130  22.4567890   6.1501294  54.1064930
  21.9278026   6.9740587  52.9522419  67.0986774   6.2590832  15.8154213
  66.2168958   6.1113811  15.4735446  67.6623907   6.2356830  15.0421751
  37.9125690   8.1170923  40.6698847  38.7657547   7.7233648  40.8523226
  37.3057818   7.6510000  41.2450361  85.2158701  16.7917335  63.1812143
  85.7623276  17.2812915  63.7959909  84.9687926  17.4343371  62.5161982
  15.3104353   0.7766166  37.3443866  16.0888541   1.2661584  37.0785952
  14.8057437   1.3966194  37.8708029  46.3769560  34.7197910   3.2741914
  46.0632377  34.3252774   2.4604545  46.6313701  33.9749749   3.8189445
  10.7838166   1.3163145  30.8882904  11.2901795   2.1249321  30.8110499
  11.1888826   0.8489194  31.6188335  19.3731689  45.9516764  58.2701921
  18.8902950  45.1345205  58.3939743  19.1175258  46.2511396  57.3977280
  20.1610851  45.5054426  27.8333664  19.4291675  45.7935810  28.3788061
  20.8630705  46.1267567  28.0268049  61.5087567   2.5110305   1.2320743
  62.0506065   2.6004279   2.0160614  61.6446264   1.6068423   0.9488426
  34.1785031  54.8540433   9.9510418  34.3094587  54.0755184  10.4923187
  34.1527181  55.5786570  10.5759464  73.4902832  76.0121967  63.2352066
  73.8586101  75.7450701  64.0773535  73.6917576  75.2863545  62.6446199
  76.9924095  17.6759470   0.8016204  76.2599042  18.2916152   0.7767309
  77.7720847  18.2293713   0.7562419  11.4238417  12.5289106  20.2588463
  12.1839070  12.4098182  20.8283639  11.7595494  12.3741603  19.3759048
  67.0517683   3.3665508  38.0367875  66.7468882   2.5261697  37.6946759
  67.5951576   3.7274024  37.3362541  18.6220336  31.4623404  48.8691330
  19.2802858  32.1470308  48.7502384  18.8490248  31.0543823  49.7047663
   8.1251800  13.3805931  38.0609035   8.5027248  14.2441344  37.8936100
   7.8485894  13.4134436  38.9766812   7.2398001  22.0495272  45.7752466
   8.0136228  21.5927863  46.1051273   7.5872338  22.6972556  45.1620865
  18.2913518  10.9947813  39.3738556  19.2175841  11.1731839  39.2110705
  18.2902789  10.3985405  40.1226711  80.2474144  15.3270626  66.7898273
  79.9872067  14.6460605  66.1695385  81.2040433  15.2942789  66.7941236
  69.3286529  44.8056459  10.4510760  70.2008178  44.4260550  10.5581748
  68.9495447  44.7864819  11.3297915   2.1814711  79.7126722  58.2258368
   2.0570976  79.2622514  59.0612316   2.6735360  80.5023877  58.4504509
  80.0681844   3.5665759  39.3036151  80.7733318   4.2133126  39.2765760
  80.5167755   2.7216238  39.2711520   7.0208502  51.5283108  11.7497420
   6.4414281  51.6309261  10.9947777   6.7017823  50.7412672  12.1913183
  11.1135941  39.6534126   5.1010261  11.6892951  39.2639104   4.4429336
  10.2810424  39.1935475   4.9932609   2.6436710   3.0529484  59.5155954
   3.3407062   2.6506126  58.9974260   2.8750712   3.9811707  59.5485926
  55.3302267  40.1407003  66.2427425  55.2470997  39.4628549  65.5720377
  54.9132469  40.9113359  65.8574104  81.1834248  10.7892442  34.3648624
  80.8492901   9.9469990  34.0563035  80.4204919  11.2249291  34.7447896
  62.2882869  25.9438539  49.6255207  62.7305892  25.3094864  50.1895952
  62.1989038  25.4952669  48.7846804  26.5149223  52.9277642  25.3027473
  26.7375454  52.0136745  25.4791294  27.3249900  53.3109398  24.9662910
  82.5705355  35.7799816  39.8706961  82.4869489  35.5145812  38.9548326
  82.2910219  36.6954017  39.8812556  34.6087766  15.4728699  56.4201641
  34.3687272  14.5940685  56.7139626  33.7718582  15.9185576  56.2891531
  52.3091814  81.0592804  55.7513046  52.2298542  80.7774086  54.8399973
  51.9557694  81.9488195  55.7585049  40.0809226  68.3420451   5.5667716
  39.3256352  68.5311635   5.0099880  40.0960335  69.0584810   6.2013769
  31.5537190  17.0267427  19.4703186  32.0307589  16.6909266  20.2291942
  31.8007255  17.9502392  19.4216037  85.3305341  11.5644884  41.7843485
  85.9467624  10.8852291  42.0583963  84.5189429  11.0915065  41.6003942
  81.8009522   6.6551131   9.8512238  82.6182112   6.6661572   9.3530291
  81.1517193   7.0276898   9.2546380  16.9608128  12.5633538  62.8345442
  17.4481940  12.5598454  62.0107222  17.6218224  12.7430558  63.5031271
  10.3280705  80.5872734   8.3559166  10.8093267  80.1070865   9.0297447
  10.9079664  81.3102897   8.1167493  66.3802292  29.7699332  69.2016125
  66.0860088  28.9606714  69.6196556  66.7270997  29.4896054  68.3546591
  70.0523469  75.6987942  37.0967460  69.1628203  75.8799340  36.7931628
  70.6171868  76.0888566  36.4296341  31.1000538  38.4979796  41.0797071
  30.5379629  38.1249452  41.7587709  31.8800902  37.9432178  41.0830116
  79.0109357  72.4376233  22.8154588  78.1597719  72.2504736  23.2113433
  78.8045463  72.9558243  22.0375752  60.2766210  74.9489797  29.7566032
  59.9449989  74.8151220  28.8687158  60.6908432  75.8115037  29.7300673
   5.8932173   0.5845981  31.0073686   5.5779660   1.3642803  31.4644718
   6.2306237   0.0195065  31.7023945  20.0457239  21.2075043  46.8099880
  20.5610251  20.6116414  47.3537159  20.2829003  22.0811534  47.1209812
  74.3697014   1.9461176  36.5801811  73.7237671   1.3294712  36.2355828
  74.3828275   2.6602566  35.9429479  44.4026618  66.0828550  19.1651855
  44.5342808  66.4879091  18.3079563  43.7946384  66.6687019  19.6160923
  12.2561932  20.0732279  55.2478695  12.9935884  20.0110555  55.8550072
  11.8064046  19.2323327  55.3304434  84.8100093  12.0679796  46.7582655
  84.1238287  12.6193368  47.1342897  85.6243729  12.4218261  47.1158075
  79.8702892  27.4649668  47.1061516  80.3783485  28.0890679  47.6244211
  80.1221159  27.6448178  46.2003565   5.8218438  75.8488942  27.3777366
   4.9011881  76.0808415  27.4994826   6.2096912  75.9432871  28.2477355
   6.2529099   3.2948062  25.5925727   5.4845339   3.6046422  26.0719824
   6.1295259   3.6255512  24.7028446   5.0417399  27.3766828  29.6156907
   5.8005315  26.7948580  29.5715499   5.1984197  27.9162645  30.3906322
  37.4679756  26.2545228  46.5990591  37.0504236  25.4292393  46.8456173
  37.5657439  26.7294216  47.4243736  24.4537020  30.7602286   4.8992202
  25.2229071  31.0140991   5.4092234  24.0461969  30.0620890   5.4118311
  12.1292619  51.6794276  65.0294240  11.3522557  51.4692843  64.5114138
  12.2850029  52.6088011  64.8613717  60.1834612  76.4620144  63.4121275
  60.9257531  76.9740726  63.7331104  59.4169164  76.8786700  63.8058758
  29.1412926   4.2778254  49.3502235  29.1196513   3.6556703  50.0773287
  29.8462105   3.9614707  48.7852097  22.7267265   6.8892908  43.9432859
  22.7773046   5.9775519  43.6562204  22.9364944   7.3988169  43.1605864
  27.4403167  20.4150915  45.8726168  26.6894174  20.1535368  46.4055109
  28.0793095  20.7446218  46.5045452  62.0961359  24.1651130  53.5453844
  61.5021970  23.6244988  53.0246115  62.3247435  23.6157608  54.2951727
   1.4341511  37.2071934  43.4900188   1.7971064  36.8626189  44.3059635
   2.1396673  37.7371192  43.1189966  18.5438836  21.6485381  33.7878275
  18.3824146  21.5486550  34.7260070  17.7960014  21.2221789  33.3693504
  62.4263146  23.5694408  17.1589589  62.7155259  22.7445936  16.7688107
  63.2370212  24.0401959  17.3522854   1.6369135  26.1413450  16.7696881
   0.9309895  25.5345650  16.9926715   1.5675838  26.8392344  17.4211276
  74.3937757  29.5756769  46.5185165  74.1903749  29.6117330  45.5838728
  73.6545422  29.1075540  46.9066238  60.2062648  71.8144949   5.8997617
  61.0251992  71.4208205   6.2007604  60.2601164  71.7786844   4.9447475
   9.6880609  22.4829531  55.2018499  10.2110767  23.1286025  54.7266436
   9.1380131  22.0793009  54.5304775  -0.1413480  23.7961030  66.6945696
   0.2694222  24.5289969  67.1532249  -0.0222795  23.0493116  67.2813845
  36.9859228  65.1225467  20.3791738  37.2955999  66.0248239  20.3002596
  37.1690020  64.8851247  21.2882090  29.4182515   5.9478790  54.9696255
  29.8622108   6.0159642  55.8149052  28.4886718   5.8925110  55.1910973
  12.9409325  37.1658969  54.2050171  12.2323561  37.8012133  54.1024351
  12.5664175  36.3385153  53.9026737  85.9345509  29.6270037   5.2226704
  86.1199593  28.8390684   5.7335639  86.5932182  29.6226287   4.5281416
  23.9063263  29.9826765  31.7638087  24.4466019  29.3490982  31.2916708
  23.8201952  30.7207298  31.1604071  14.4966352  29.8279309  40.2492476
  15.0164807  29.3814611  40.9175730  15.0045598  29.7276640  39.4441462
  79.2930142  54.0211808  67.2099708  78.6029879  53.6281967  66.6755034
  80.0809304  53.5260748  66.9857173   7.5967002  28.6121297  64.4835091
   8.5036033  28.4311962  64.2364836   7.5311756  29.5670104  64.4716358
  62.8115466  23.4783697  31.7728806  62.2404554  23.9018011  32.4138141
  62.3743799  23.6186552  30.9329772   8.6238396  36.2326193  26.6024947
   8.3696717  35.3463507  26.8597007   9.4220960  36.4070678  27.1010780
  68.7539809  62.2363527  14.0961681  67.9962509  62.2238834  13.5114322
  69.4228690  61.7328031  13.6322151  11.7901969  48.8135719  58.2340813
  11.2044942  49.2431593  57.6106739  12.5729346  48.6062908  57.7236032
  76.2416151  24.9078536  20.9606004  75.5443695  25.3488588  20.4752183
  76.1935225  25.2807856  21.8408513   4.5168558  43.0792809  43.6199474
   5.3901768  43.4703398  43.5951805   3.9323282  43.7801075  43.3311605
  28.3453608  23.4468317  42.8745270  28.3949375  22.5369835  43.1677008
  29.2571902  23.7350225  42.8327227  46.3527393  60.6123447   2.1348922
  46.1845112  61.3654995   2.7011824  46.2714720  59.8544550   2.7138856
  16.6642869  37.4619985  67.9738808  16.1132348  38.1214499  68.3954239
  17.2384286  37.9639125  67.3953676  75.1398840  75.8625174  25.7062411
  74.5325270  76.1303186  25.0165796  76.0081365  76.0023594  25.3283334
  23.2480836  31.0685587  57.1082020  22.8325653  30.6543803  56.3518715
  23.3719325  30.3549767  57.7340555   4.9885789  48.8499594  46.1515236
   4.4389468  49.3783236  46.7302942   5.1744533  49.4236612  45.4081869
  16.4182043   9.8363602  50.1837206  17.2567832   9.3748313  50.1864338
  16.2319791  10.0001740  51.1082315  74.2656803  30.6262684  60.0097847
  75.1018190  30.8102751  60.4378605  74.2003918  31.2851596  59.3185282
  64.5526030  29.1246295  54.8588037  64.5403078  29.2895508  55.8016062
  63.6615493  28.8415766  54.6535254  62.6410071  74.2028129  62.1793546
  62.5764696  74.6585786  61.3401021  62.7872745  73.2866633  61.9437535
  73.3844807  41.9796944  58.6872578  72.8659644  41.8594217  57.8917027
  73.4987130  41.0951281  59.0347099  69.3164698  48.1162554  70.3396723
  69.3164794  48.7070405  71.0928019  68.9604203  47.2952199  70.6793187
  19.0229082  12.9913867  64.4522858  18.9626741  13.2893443  65.3599358
  19.9627948  12.9221487  64.2848015  13.0829191   4.6858642   2.7299610
  13.1197941   4.8119444   1.7818175  12.1525085   4.7531796   2.9445258
  63.1716683  49.0208340  48.2531881  63.8208916  49.6911430  48.0400562
  63.6894157  48.2411385  48.4537935  27.1536374  15.3356743  50.4982042
  27.7768970  14.6610308  50.7677126  27.4406505  15.5903399  49.6212816
  73.9323523  55.3396225  40.9595966  73.7937954  54.6437836  41.6021252
  74.8198083  55.6531906  41.1337471  13.0957019  21.6358709  43.7260723
  13.8345385  22.2438288  43.7532520  12.3829734  22.1055651  44.1592407
  76.1894729  64.3250418  38.5103488  75.6203845  64.9894571  38.1218576
  75.8209088  64.1731453  39.3805885  25.8166599  26.9164681  61.8609285
  26.7733717  26.9470382  61.8620777  25.6063962  25.9922504  61.9944954
  18.4763908  49.8696947  42.2229958  19.3652964  49.9871683  41.8879128
  18.3588195  48.9205694  42.2625446  18.9050043  42.7133369   3.3493343
  18.2456207  42.7997494   2.6608732  19.4368517  41.9648075   3.0790037
  17.2131443  39.4590616  54.8270178  17.5094807  38.9194560  55.5599833
  16.4081264  39.8699617  55.1421976  43.4095716  34.3007612  31.8524623
  42.8342438  33.8186574  32.4464345  43.5548210  33.7012267  31.1205530
  74.2189214   1.1775844  62.7586402  74.7444400   0.8885924  63.5046609
  74.8251543   1.1615340  62.0180621  33.1221795  20.0756764  41.1663532
  32.1759701  20.2184248  41.1430502  33.4283566  20.3584528  40.3046560
  26.4692879  28.6747551  39.9817872  27.1725202  28.2291293  39.5094419
  25.9829092  29.1417885  39.3024135   4.3351722  48.4513998  36.3740635
   4.3983909  47.4982548  36.4353013   4.4887012  48.6426687  35.4488182
  82.8802290  25.4861021  63.2976246  83.0216726  26.4319348  63.2572937
  83.6661329  25.1443648  63.7240076   4.6546373  23.7552691  29.0515447
   5.2269888  24.5213413  29.0093732   4.8943567  23.3219957  29.8707151
   7.4542415   0.4484250  57.7396202   7.9641509  -0.3458018  57.5801611
   7.8560758   1.1084832  57.1747494  34.0661430  23.8931870  49.3500376
  33.3074570  24.0681005  49.9068451  33.8397026  24.2851281  48.5066271
   1.3814963  59.5489597  34.4762707   0.6873908  60.2078438  34.4583654
   2.0862317  59.9291611  33.9518428  16.2791944  31.1987162  45.0970888
  15.4525399  31.5671444  44.7854233  16.2448990  31.3038015  46.0478830
  82.3199877  78.8661794  20.7436156  82.1380338  79.7180570  20.3468418
  83.2690558  78.8576130  20.8678126   8.1446970  42.6912355  13.2253051
   7.6750910  43.4471226  12.8726912   8.8074994  43.0693054  13.8032234
   1.6958435  71.8216801  45.4025078   1.2586835  71.2916756  44.7360039
   0.9809621  72.2330284  45.8882713  72.2368813  30.0675726  61.7326260
  72.0930243  29.1303802  61.6014433  73.0122995  30.2666211  61.2079000
  84.5022672  55.0973654  46.0084772  84.1134315  54.6843767  45.2374506
  85.0681400  54.4218636  46.3822699  43.4119558   2.7816385  10.8340085
  42.5734186   2.7606311  10.3728676  43.5778093   1.8692294  11.0711432
   2.9317790   2.5273183  38.1369615   3.2942933   3.3365184  37.7763915
   2.1140191   2.3964761  37.6569796  28.5009742  41.1587000  29.8903823
  27.6798654  41.5893078  30.1282716  28.2304597  40.3721619  29.4166589
  24.6756148  70.2306700  54.0475607  25.4902148  70.3077745  53.5508537
  24.5065355  71.1161852  54.3692875  82.2017779   0.5247320  52.2559738
  82.0662495  -0.3438787  52.6346254  82.9662054   0.4222664  51.6890669
  85.5475179  42.5201082  30.4645586  86.1112887  42.0928431  31.1094141
  85.3147651  41.8233633  29.8508763   6.6685922  79.8212227  65.0953865
   6.7493183  79.3199201  64.2839622   6.9679338  80.7005892  64.8644304
  28.6853743  19.1102266  22.6930690  29.4094753  19.0642798  23.3174062
  28.9384937  18.5138881  21.9884109   2.3547624  30.8030939  35.6379795
   2.2278538  30.2844119  34.8435640   2.4833904  30.1541281  36.3297391
  37.9473615  33.8864374  59.4029903  38.9009261  33.8797426  59.3198967
  37.7191567  32.9816008  59.6161222  68.9231341  76.5283044   5.8266101
  68.2093184  76.9261225   5.3281723  68.5717528  75.6870969   6.1183868
  65.0998006  71.6885240  36.1691165  64.7924051  72.4119778  36.7153358
  64.4685582  71.6457279  35.4508305  27.7533174  15.7650340  64.9261093
  28.2025695  15.5236387  64.1160870  27.8491044  14.9981177  65.4908133
  60.5671518  76.6600569   1.0234247  59.6706956  76.3245733   1.0162912
  61.0325711  76.0868104   1.6325317  48.7797070   8.8935226  50.6058550
  48.6345100   9.5036483  49.8827362  47.9406071   8.4456998  50.7135391
  28.7913632  30.0635099  32.3665237  29.4536400  30.5143595  31.8427348
  27.9577398  30.4104376  32.0488095  22.2583294  41.6203928  33.6911440
  21.3327837  41.3939476  33.7823701  22.5211310  41.9105673  34.5646214
  23.6759210  56.5019512  55.5046368  23.1353879  56.9864368  54.8806715
  23.2528281  56.6466904  56.3509655  36.6961980  65.2318239  13.3863866
  36.9367933  65.7109833  12.5934482  37.4919367  64.7597456  13.6316919
   6.5374392  52.8289413  47.2742319   7.2583884  52.9793119  47.8856659
   5.7482612  53.0050850  47.7864838  21.6999149  24.3825960  49.5466805
  21.3241839  25.2033305  49.2281628  21.0467196  23.7186003  49.3260479
  31.3648987  22.1332979  69.4693804  30.7475185  22.7825546  69.1324234
  30.8473897  21.3326478  69.5552492  65.4470875  54.4233131  34.3517399
  65.8816793  54.1863155  35.1710033  65.0617054  53.6046410  34.0395069
  37.8183895   2.4635916  32.9257751  37.5578385   2.0572119  33.7523341
  37.1939533   3.1786184  32.8031206  14.4755769  25.4376101  37.2367644
  14.0437305  24.6522307  37.5727987  14.8262990  25.1728344  36.3863993
  70.2357867  15.1525140  34.6479464  70.4930260  14.3364251  34.2189264
  69.5344415  14.8972929  35.2472878  30.5672875  54.9966224   0.3669963
  31.0191193  54.1938765   0.6271444  29.6537915  54.7325333   0.2574144
  10.7114017   3.5226184  50.1939917  10.2530599   3.2753089  49.3908787
  10.2041650   4.2553732  50.5432940  25.4183960  44.0366554  31.8197584
  24.6967769  44.5179319  31.4149499  26.1724591  44.2194510  31.2592149
   4.5484200  43.0181789  60.3482676   4.8024362  43.9409494  60.3625727
   4.4595885  42.7798796  61.2710619  24.0983071   8.5340722   0.9022604
  24.1019385   7.8670223   1.5887485  23.7750822   9.3232878   1.3368784
   3.3139354  38.1969666  41.5819073   3.5614753  37.2736788  41.6318703
   2.7011791  38.2412720  40.8478785  82.7243363  58.2196856  37.6664805
  82.3270931  58.1646967  38.5356212  82.5747060  57.3569775  37.2797298
  19.5439339  26.7583156   6.8761343  20.0564957  26.0577321   6.4727807
  19.5725453  27.4728346   6.2398338   5.8888000  16.3282311  39.3383193
   6.0591424  16.3247514  38.3964038   4.9479145  16.4885068  39.4109678
   8.1142783  37.4642015   8.8228965   8.1574428  36.5104747   8.7537950
   7.2284728  37.6853275   8.5353506  14.2667687  52.8989649  43.0279064
  15.0532281  52.6340771  42.5508881  14.2907560  53.8558006  43.0167341
  33.8121533   5.8889395  39.6848655  33.8686728   6.1971164  40.5893326
  32.9709744   6.2207198  39.3709064  37.6115251   1.0484446  30.5520272
  38.0700564   1.3413179  31.3395596  36.6943192   1.2703276  30.7124329
  73.3438983  41.6638374  11.2536752  73.5273018  41.0572672  11.9710767
  72.9465094  41.1185980  10.5746865   4.2987525  41.4122534  12.7803743
   4.3325579  41.3084745  11.8294168   3.9548093  40.5782175  13.1002498
  13.9770925  26.8643427  34.2336345  14.3772018  26.1028409  33.8138056
  13.5253382  27.3197389  33.5231686  30.7444263  20.4338169  49.0390015
  30.3155208  21.0385275  48.4335279  30.0706935  19.7871315  49.2490339
  32.0158124  42.3358631  36.6522312  32.5992298  42.8549528  37.2057676
  32.1872878  41.4293766  36.9073987  52.1745062   0.3988344  56.7424059
  52.4135876  -0.4958094  56.5001631  52.5585842   0.9437244  56.0555267
  34.6694526  81.6452845  64.7910833  34.0391431  81.7344983  65.5059147
  35.3910932  82.2252113  65.0342941  20.4653471  81.5594991   6.2400709
  19.6200930  81.2863238   5.8834825  20.2920311  82.4109776   6.6415344
  17.5329137  11.9591856  33.4627557  16.9486821  12.2433114  32.7597761
  18.1547081  11.3709044  33.0343533   6.3412571  52.9432678  25.0592828
   7.2576284  53.1914711  24.9372506   6.3562465  51.9873381  25.1062799
   9.8628223  34.8810625  44.7191286  10.6693912  34.7414517  45.2153015
   9.9367052  35.7764554  44.3889093  27.2524858  36.0132146  32.6633835
  26.3925600  35.7559347  32.3308659  27.7919626  36.1146498  31.8792224
  10.9165525  54.0695381  36.2706399  10.5603814  54.8545694  36.6866994
  10.7478595  54.1958237  35.3369236  58.7993340  39.8904483  62.9842373
  58.1967066  39.2600600  62.5896646  58.5285775  39.9391048  63.9010550
  66.4337406  69.0818687  29.1421056  66.9591233  69.7315092  28.6750174
  65.6202600  69.5394857  29.3543959  32.7299881   7.7175838   7.8633374
  33.4552884   8.3222491   7.7066529  32.4614334   7.8941965   8.7649572
  82.5058978  44.2834248  28.7715755  82.2954457  45.1219152  29.1825233
  82.1061843  44.3351896  27.9033695  35.0266457  33.8212132  22.1172190
  34.4018197  34.5197606  22.3117828  34.9773860  33.2379985  22.8746271
  18.6411536  39.9770212  20.7402039  17.9386675  39.3762779  20.9889054
  19.2768288  39.4261813  20.2833390  58.2918310  11.8049264  60.9592819
  58.1461239  11.0547161  61.5356398  57.4631310  12.2837090  60.9752131
  17.8000116  34.9551654  15.6567359  16.9416142  34.8727584  15.2412903
  18.3950400  34.4854927  15.0722861  36.7581105   0.5197401  42.2858334
  36.1747146  -0.2157515  42.4727345  37.5888014   0.2763762  42.6944447
  34.1743266  63.8012035  13.9767013  35.0184118  64.2480405  14.0406356
  33.7292873  64.2331369  13.2475887  65.9370473  55.8206224  31.9759989
  65.2128127  55.4931736  31.4426184  65.8352354  55.3755617  32.8172970
  80.5418363  22.4395394  39.7727013  81.0534784  21.6468382  39.9341869
  79.9801978  22.5232267  40.5432796  11.0673904  31.7473602  21.5805387
  10.6244278  31.7365742  20.7320690  11.2114954  30.8239222  21.7872477
  14.3915453  67.5547893  11.5788780  14.9166718  67.3737081  12.3584209
  14.4989195  66.7767675  11.0317264  76.2718436  62.8571577  56.4830399
  76.1180553  62.4741240  57.3466778  75.6031069  62.4623926  55.9234142
  35.7341435  23.9321589   7.1938992  35.4778531  23.9065695   6.2720031
  35.2046540  24.6351671   7.5702685  78.4058842  12.7942264  32.7788758
  78.9342996  12.8901064  31.9865274  77.9747411  11.9455969  32.6780009
  24.8994040  10.5720973  19.7324860  25.7439256  10.6455886  19.2879498
  24.2602587  10.5058420  19.0230238   4.1906652  25.8848953  63.6998224
   5.1053643  25.6798053  63.5061884   4.2214063  26.7457342  64.1172504
  -0.1926044  53.6482811  46.1044121   0.7419427  53.4426689  46.1284494
  -0.4416596  53.5242033  45.1885462  31.6783166  14.0336812  49.2242718
  32.5572348  13.8541412  49.5581865  31.5259051  14.9550450  49.4342566
  17.1306169  57.0263577  23.3028173  18.0323756  57.2323036  23.5490823
  16.9527745  56.1862326  23.7256622  85.8574689  27.7454090  46.6084003
  85.6135810  27.2407460  47.3843288  85.2191066  27.4864125  45.9438372
  75.6152036  34.5158243  43.2258606  74.8184695  34.5353866  43.7560177
  75.9663596  35.4040885  43.2883739   9.3097776  77.7163172  25.4406381
   8.8761717  76.9159031  25.7365227   9.1920185  77.7153826  24.4907093
  32.2296190  19.7217023  31.9011688  32.5141430  18.8184965  31.7615342
  31.3810349  19.6408951  32.3366094  14.1962869  79.3406225  12.4547899
  14.6583850  78.5033343  12.4142241  13.9036996  79.4089271  13.3636129
  23.4159356  28.0104347  10.3604732  22.5069302  28.3034964  10.4241501
  23.9232140  28.8184460  10.2829013  13.4741342  38.6259675  59.3681145
  13.0937696  38.0305600  58.7223244  14.2652321  38.9623046  58.9470768
  44.7938824  50.1924610   8.0827111  44.4544220  50.2886295   8.9725131
  45.6499195  50.6201553   8.1054115  22.6614976  18.9507687  42.5356817
  22.4878979  18.0164051  42.6499557  22.7803111  19.2828894  43.4255219
   8.2387519  39.5359373  62.6026726   7.7453876  39.0945292  63.2940340
   9.0280765  39.0051794  62.4954700  67.6814561  23.5515511   7.2914205
  68.2673048  23.0204070   6.7520700  68.2446383  24.2344439   7.6557193
  27.5476789   7.7792096  21.7369628  27.3372316   8.6406392  22.0973539
  27.4704742   7.1826917  22.4815679  29.2106032  53.8717079  24.9097180
  29.0736747  54.8135662  24.8078346  29.4632006  53.5706043  24.0369272
   3.3475721  12.2336721  66.3631725   2.7064735  11.7016900  66.8345737
   3.2470474  13.1116641  66.7309427  20.4790115  47.1141863  22.8987145
  20.7362270  46.1939144  22.9550695  20.9486413  47.5385427  23.6167669
   7.1132576  31.1328077  63.9099979   6.2045699  31.4278197  63.9690304
   7.2692859  31.0239959  62.9718876  84.3393126  10.6508887  18.2260609
  83.5573890  11.1838496  18.3702147  84.4000932  10.0990009  19.0057766
  14.9552143  71.0151911   0.9236163  14.7784400  70.1130486   0.6569279
  14.3746769  71.1623383   1.6703126  17.5838470  23.9398074  55.2541733
  18.4112823  23.6682749  55.6514788  17.8245938  24.2308164  54.3746328
  18.0939412  24.1795707  66.8656349  18.3149421  24.9197769  67.4308634
  18.2647717  23.4072351  67.4046612  22.2483516  37.7901530  47.1381283
  21.6890121  38.5541105  46.9976234  21.7515707  37.2372556  47.7412415
  65.2595713   9.1209465  30.5621886  64.5850327   9.1709864  29.8848963
  65.2867868   8.1955093  30.8052063  33.0684185  42.0854425  32.4861622
  32.6054645  41.3627481  32.9099846  32.4998403  42.3408890  31.7597365
  61.3365214  64.9459942  27.3819004  61.1156195  65.3299125  28.2304512
  61.2799733  64.0011652  27.5244747  35.8742595  26.9341493  31.1873507
  34.9563956  26.6773462  31.0989833  36.3543367  26.1061645  31.2014270
  13.6388528  32.1942353  43.8444710  13.7609088  32.5117397  42.9497528
  13.1528258  31.3757563  43.7439585  12.9360282  46.8820763  46.1091137
  12.9763997  46.7483759  45.1621580  13.0634511  46.0088682  46.4799356
   7.4817765  41.0600567   2.5906035   7.4860173  40.7773256   3.5050845
   7.6366466  40.2582312   2.0912811   6.4782327  65.0158270  17.0510612
   7.1328753  64.3617471  17.2957073   5.8664959  64.5430000  16.4867435
  54.7392777  70.2628429  44.8747015  54.2607147  70.0967546  45.6868744
  55.4819864  70.8048375  45.1408911  17.5776279  59.6773100  21.3671589
  18.3166885  59.0945530  21.1927557  16.8050921  59.1570616  21.1463380
  16.3213480  51.6643286  34.1744232  16.6041589  52.1065235  33.3739781
  16.3184392  52.3523474  34.8398972   6.8539089  21.0666871  50.6511641
   6.2544274  21.0871029  51.3971090   7.5918835  21.6128564  50.9219456
  78.5793730  49.3326044  58.3689404  77.7114048  48.9344835  58.3028793
  78.8822558  49.3983984  57.4633121  44.6360207   5.8994198   6.7225379
  45.2886772   6.3804311   7.2313625  44.3637705   6.5135252   6.0406393
  63.0638599  36.0345292  54.6820211  63.0675316  36.7864633  54.0897274
  62.7951431  36.3961768  55.5265522  20.7560468  20.3832150  59.0912294
  20.7089734  20.6385803  58.1699228  19.8820269  20.5668235  59.4356203
  82.3817133   8.5451716  52.8192949  81.7957857   7.9079944  52.4107313
  82.0888716   9.3912917  52.4808359  34.7495198  32.5534511  32.4757290
  34.3868065  32.1978021  31.6644430  34.3132067  33.3986640  32.5828624
  40.8966732  29.4117880  66.5294361  41.6555882  29.9455214  66.7648220
  40.6419849  28.9838600  67.3468971  86.2357952  37.4575734  36.4791322
  85.8175821  38.2906532  36.6966295  87.0392228  37.4498749  36.9993997
  59.4508960  11.0613692  49.4438171  59.1641214  11.8441319  49.9142170
  60.2746585  10.8168411  49.8655462   2.7121133  64.2381334  59.1880560
   2.3127900  64.8206568  58.5419559   3.5266536  63.9477491  58.7776518
  17.5873876  48.4168386   8.1067127  17.1352589  49.2472267   8.2559395
  16.9939482  47.7541304   8.4600919  50.6535530  20.6902957  59.8983383
  50.9900141  21.5727019  60.0545073  51.4253807  20.1267004  59.9519300
  14.7367055  61.2109823   2.8379112  14.6876151  62.1554394   2.9856440
  14.3159968  60.8261104   3.6067459   6.4065570  36.6005707  57.1565723
   7.2654617  36.2206507  57.3414373   5.7903963  35.8832502  57.3049927
  29.1804790  43.6051655  66.2459850  29.8830271  43.3776760  66.8550014
  28.4214044  43.7678480  66.8059587  22.6805258  47.0240307  27.9375362
  23.4514332  46.4835405  27.7649021  23.0083609  47.7434254  28.4771919
  34.9904752  40.3447914   5.2793086  35.9146500  40.2073193   5.4872388
  34.8051953  41.2320948   5.5868775  75.2820799  80.7839219  44.8556042
  75.7340631  80.5216163  45.6575632  75.6443927  80.2124108  44.1785955
  25.0268793   4.3000787  68.4338999  25.5809355   3.5949379  68.7686062
  24.3865013   3.8575992  67.8768015  74.2270913  67.8626871   9.3281800
  73.8012579  67.8284836   8.4716010  74.6820631  68.7048101   9.3360192
  86.3944998   0.4856625  18.4833241  86.6248668   0.9028880  17.6532125
  86.5516857   1.1614233  19.1427732   7.0827305  25.5003452  28.7004375
   7.5654268  25.1196957  27.9667187   7.6954091  25.4637480  29.4349551
  17.0788848   6.0823321   5.2529472  16.3633859   6.6927546   5.0749654
  17.2689521   5.6821406   4.4044468   3.9558029  63.7464094  25.4622746
   4.5211223  63.0227995  25.7325220   3.7340489  64.1947794  26.2783742
  44.5072126  23.1747770  67.5409842  43.9205265  23.9180112  67.4008560
  44.9240112  23.0350137  66.6907024  85.9253706  16.3711953  17.5572050
  86.0022191  15.7252872  16.8549728  85.2763184  15.9994972  18.1545353
   8.6985266  27.9065561  38.4027386   8.2407212  27.1186495  38.6957383
   9.5041645  27.5803232  38.0017972  69.6669486  44.9441051  22.7902555
  70.0915077  45.7228041  22.4302387  69.7425761  44.2880917  22.0973206
  23.2707047  42.2529364  27.9493403  23.2058191  41.4781380  27.3910284
  22.3623824  42.5040293  28.1170797  17.0458746  20.9557414  41.9845009
  16.3968492  21.5153384  42.4109364  17.1111369  21.3004208  41.0938978
   6.2825674  32.1392703  34.0271831   6.8732762  32.1057653  34.7796273
   5.4981130  32.5769258  34.3578219  46.6810588  71.5304195  67.3993998
  45.7873062  71.8650877  67.3256882  47.2341935  72.3092925  67.3391579
  72.1188059  27.0187998  61.6145134  72.4192503  26.7159033  60.7576466
  72.9102280  27.3415112  62.0454931  25.1174450  12.5284123  63.2963514
  24.2195654  12.8524077  63.2251310  25.0212002  11.6070914  63.5374689
  15.1189256  50.5183649  58.8624001  14.8219562  50.3630543  59.7590160
  15.9931803  50.1300383  58.8290024  31.9671679  48.7301636  32.1878505
  32.1417332  47.8047895  32.3594332  32.8272653  49.1480732  32.2304916
  19.2457473  57.1144962  46.3595247  20.1246071  57.1037483  46.7386293
  19.2112386  57.9289770  45.8578682   0.3959371  69.3067312  49.6780014
   1.1420029  68.7074471  49.6997309   0.3433631  69.6560907  50.5676174
  50.7182734   7.0165186  54.6419716  50.5722349   6.1273603  54.3190050
  50.2602165   7.5770597  54.0157127  23.8404918  38.6125302  11.0425711
  23.0032134  38.2532358  10.7491314  23.7407231  39.5598674  10.9485888
  34.6999884  44.1483402  40.5031061  35.2047133  44.7481585  41.0523748
  34.2370558  43.5865211  41.1246252  45.0624657  59.8271132  29.7990537
  45.3507853  59.1743708  30.4370427  44.2657948  59.4558907  29.4199228
  33.2061052  28.0510139  57.6328611  33.5035157  27.2211385  58.0058002
  33.2041621  27.9016900  56.6873837  81.8936690  55.7739401  69.8167753
  82.5188604  55.8634281  69.0974998  81.0687014  56.1023998  69.4593191
  12.7519381  34.3696976  45.6763887  13.3161259  35.0372982  45.2862167
  12.9170930  33.5829973  45.1567125  39.6586182  30.6309009  14.6597254
  38.9320996  30.2154946  14.1951358  39.2513373  31.0428905  15.4217112
  85.7337510  49.8238420  18.6991322  86.3107630  49.5972919  17.9697740
  85.8101946  50.7746696  18.7785983  33.7600350  73.0921555  58.7759542
  34.1281724  73.7097025  58.1440163  34.5193553  72.6254129  59.1249752
  26.9128394  37.1129322  44.3304396  26.1498284  36.6431594  44.6671295
  26.8195295  37.0704293  43.3787489   8.0957091  14.6819770  34.3817425
   7.6534140  13.8361621  34.3096018   8.9666224  14.4690168  34.7169900
  73.0670914   8.7473838  52.5150313  73.8022825   8.9124648  53.1053485
  72.3706326   8.4215943  53.0851521  16.4961302  13.2826364  67.7811241
  15.7087016  13.8228118  67.7148008  16.3140786  12.6815236  68.5034466
  50.3805017  45.6362247  11.0339284  50.3672075  46.2873030  10.3323925
  49.9134398  44.8836040  10.6710875  69.9410343  65.5799580   5.5509001
  70.6922960  66.0747290   5.2237320  69.6190071  65.1007223   4.7874466
  22.6566409  17.7029448  37.6828289  22.6522040  18.4410219  38.2923007
  22.9705166  16.9639139  38.2039285  57.7463865  64.5657492  26.4555955
  58.4237576  63.9554071  26.7469406  58.0958128  64.9440193  25.6487226
  14.2537677  41.2792587  59.4567013  13.6153603  41.9567680  59.2338753
  13.7236691  40.5359888  59.7444057  45.9272003  55.7611942   5.6106091
  45.5576420  54.9025345   5.8164221  46.3836193  56.0233831   6.4100909
  29.7923851  60.8223820  24.6398687  28.8991737  60.8176613  24.2957973
  30.2888775  61.3450050  24.0101123  31.0657001  62.8148222  23.4372687
  31.1925507  63.6570930  23.8739848  31.7673135  62.7739048  22.7874255
  34.6499372  18.0253732  44.2660618  34.9066257  18.4017193  43.4242153
  34.3288112  18.7706625  44.7736549  20.8954477  44.8747063  15.7429707
  21.1822748  44.2707825  15.0579607  21.5524411  44.7835636  16.4331043
  13.0430830  39.7870851  19.8432672  13.1094658  38.9697385  20.3369975
  13.7960064  39.7718167  19.2524159  13.2072580  41.5253878  31.7088962
  12.5244296  41.4261150  31.0454774  13.2521200  40.6700754  32.1362829
  14.1538870  44.1286182  46.9544697  14.4610047  43.6785412  46.1674881
  13.5137868  43.5295105  47.3386192  38.8814389  67.5277169   2.0550237
  38.3997189  68.3284266   1.8475519  39.7660487  67.8277452   2.2640215
  28.2874727  67.4073029  39.9394894  27.8073716  67.2160053  40.7451820
  29.1741109  67.6169014  40.2330399  35.9169674  55.1966667  23.9844251
  35.1452494  54.7075081  24.2697382  36.2848210  55.5559254  24.7917938
  21.8913841  53.2068777  25.0835943  22.0857692  52.3425102  24.7212100
  22.7408624  53.6461639  25.1241064   9.5741117  33.5217762  49.1120911
   8.9451528  33.9709353  49.6767998   9.0641403  32.8327727  48.6861420
  17.4468422  52.1392679  38.1690836  17.8994584  51.7122650  37.4417305
  18.0744410  52.7835417  38.4965944  23.4878707  37.5627685  40.7503176
  22.7786827  36.9683218  40.5055285  23.3199406  38.3573842  40.2437449
  72.3321130  58.7934399   6.0409516  72.5467851  59.2212915   6.8698621
  72.7709320  57.9441166   6.0891110   1.5229510  49.4255590  46.1012411
   1.4787298  48.4695482  46.1192369   2.2344585  49.6437883  46.7032051
  11.8274891  28.6046720   5.6570232  12.1086287  28.6697602   4.7443587
  10.8712685  28.6094737   5.6140089  29.3323517  42.7296162  38.4427476
  29.4581604  41.8551636  38.8111734  28.4568524  42.7031851  38.0567002
  64.6348095  74.6308851  25.1471782  65.2483749  74.1432762  25.6967282
  65.1802015  75.2691555  24.6874046  25.0171065  28.8274693  42.3972797
  25.4312301  28.7349296  41.5392780  25.7298160  28.6962748  43.0226326
  60.0009060  66.7338228  54.4207859  60.9206009  66.4948416  54.5360327
  60.0186539  67.4619389  53.7996817  12.8888702  62.2280312  47.0344925
  13.5302031  61.9748592  47.6984406  12.9921961  63.1759548  46.9508362
  85.7878535  18.4016542  19.9945068  86.5012973  18.2079153  20.6025338
  85.3223031  17.5707750  19.8989642  14.3557918  23.8984537  40.7597685
  15.1619422  24.3764329  40.5651140  14.5275152  23.0063748  40.4582071
  57.1656561  70.7511950  29.7688770  57.1149969  70.6435108  30.7186508
  56.3096476  70.4657841  29.4494748  20.6122732  53.7164640  33.9616108
  20.8150339  52.8744841  34.3692756  20.2814651  54.2565775  34.6793008
  17.8314042  66.0295343  29.5657754  18.0895102  65.5289221  28.7918258
  18.3936322  65.6962252  30.2650881  30.2551103  77.6535797  44.5073891
  29.3838835  77.9388237  44.7827673  30.1279497  77.3182154  43.6199236
  26.3091493  63.1704617  42.9974127  26.6228724  62.8701115  42.1444178
  25.9870410  62.3779202  43.4267807  47.1770566  27.6523619  54.8539209
  47.8210991  27.1398191  54.3653059  47.2287028  27.3128061  55.7473803
  61.0679483  78.0300474  18.6057949  60.3488588  78.6596775  18.5537469
  60.9350300  77.5832319  19.4418097  45.8907461  65.1503420  30.6607533
  45.5502892  65.5905342  31.4395690  45.6923580  64.2247629  30.8027983
  59.2635775  72.9958153  49.1219950  60.1288462  73.3929157  49.0227365
  59.0855408  73.0412197  50.0613928  66.7612188  14.5894556  22.0432425
  67.4396794  14.1273622  22.5355792  66.3069742  15.1178675  22.6994991
  11.1995799  28.7932841  66.5490084  11.7697532  28.2202975  67.0616670
  10.3508765  28.7422721  66.9887092  36.0337741  30.7185857  70.3788790
  35.6036098  31.5736548  70.3859345  36.8137176  30.8383624  70.9207036
  36.2057304  73.7160397  38.6390495  36.9209981  74.3515348  38.6113596
  35.6235862  73.9794445  37.9263377  63.6032503  27.7308493  47.9437828
  63.8525312  26.8285589  48.1437206  63.7694495  28.2106523  48.7551975
  53.0798953   2.1186571  48.5355186  52.4703734   2.7787333  48.8656998
  53.9259928   2.3660307  48.9085627  24.2431045  66.0150623  25.8585429
  24.7308135  66.7386007  26.2520719  24.2494535  65.3302145  26.5272546
  25.2882042  17.6512651  44.5930910  24.7480622  16.8669825  44.4962168
  26.1748352  17.3590879  44.3815804  12.3406076  58.9257526  19.0639639
  11.5259564  59.1379881  19.5195186  12.6963580  59.7747040  18.8013673
  71.6902392   2.6009684  27.3342276  71.1362594   2.7718096  28.0959034
  72.3857921   2.0334368  27.6664186  81.6360950  71.5339375  18.1589413
  80.8732700  71.7938995  17.6424539  81.2928677  70.9040308  18.7926972
  69.1834443  38.6426001   4.9030551  68.3949607  38.4035807   4.4158262
  69.8483937  38.0238371   4.6010557  39.9461842  59.6993732  37.6633501
  39.3265390  59.2446232  37.0928502  40.5319071  60.1595736  37.0622015
  40.5580139  81.5302563  43.5568142  40.1619101  82.2605419  43.0814028
  41.4824820  81.7667389  43.6320686  68.8698953  12.9307299  64.2796707
  69.5850080  13.2299166  64.8412132  69.3047374  12.4615889  63.5675955
  33.9475513  41.5366602   0.1430700  34.2317200  41.4872789   1.0557811
  33.4822297  40.7138824  -0.0077532  25.9782600  66.7473364  37.5426435
  26.6145062  67.2787428  38.0212140  25.6979084  67.3050737  36.8169975
  61.7681122  75.7424402  47.3453808  62.2468376  75.1417828  47.9165792
  62.4192667  76.0380030  46.7090845  48.1737381  19.9596815  29.0594602
  48.1300920  19.7450953  28.1276464  48.1133550  19.1136770  29.5031548
  46.2045097  70.4202938  38.2399845  46.9611835  70.0357676  38.6824965
  45.4495573  70.0959539  38.7309861  71.4587021  80.2059364  30.2350616
  71.5395355  81.0898113  30.5934644  72.3278666  80.0086021  29.8860002
  71.2549203   0.8351545  64.2149448  70.6500237   0.8390074  64.9567795
  71.2594169   1.7407255  63.9048624  69.3344164  55.7994318  43.0605268
  70.1181412  56.3385010  43.1673765  69.2127943  55.7387733  42.1130276
  13.0933323   3.1230955  26.2028432  12.6956263   3.9927988  26.1619592
  12.7497998   2.7403383  27.0101309  18.3504951  72.1107435  29.2590690
  18.4077573  72.4911690  30.1355553  18.9410186  71.3578796  29.2856884
  56.8416357  80.4297829  14.8812699  57.2089338  79.6224976  15.2412927
  56.0283756  80.5611324  15.3687012  51.5112114  48.7818623  16.8774354
  51.0019112  48.0480099  16.5334797  52.4151993  48.4671688  16.8768418
  21.0584450  59.6963930  25.0021315  20.4039192  59.1238594  24.6020913
  20.9655976  59.5456886  25.9428215  26.3922348   3.9995699  51.3035536
  26.7786255   3.5637407  52.0631504  25.5184975   4.2596369  51.5954065
  52.8579187  59.1960573  25.4536247  52.6114702  58.3230543  25.7591724
  53.7663174  59.1019011  25.1669669  65.2255392  69.1757584  53.1612015
  65.5319595  69.8714972  53.7428236  65.3015041  68.3767509  53.6827803
  63.3245993  70.9074402  39.6217299  63.9524460  70.1878071  39.6862698
  62.4797630  70.5074310  39.8278332  10.5539837   4.9364595  16.8388784
  10.2975932   5.3857355  16.0334861  11.3826361   5.3457193  17.0880330
  15.4893279  55.4659081  49.9512053  15.3069985  56.1308193  50.6151962
  16.0730624  55.9014463  49.3300819  38.7932611  64.5309782  26.5957737
  37.9740524  64.4061041  26.1166763  38.5237694  64.6326065  27.5086141
  67.8649061  23.2253294  35.8471990  68.2374661  24.0838270  35.6461883
  68.0785101  23.0814390  36.7690992  80.2466672   7.3660784  51.1646748
  80.7394355   6.5680914  51.3560200  79.3291085   7.0964937  51.2052250
  28.3702111  64.0856504  45.0235653  27.9917979  64.0855026  45.9027863
  27.6307511  63.9008808  44.4445181  22.4911292  61.4835036  20.5423198
  21.7465433  61.6327155  19.9596058  22.0974143  61.3487399  21.4043365
  61.3589573  66.5136862  45.6217813  60.4142761  66.5014315  45.7755899
  61.6881514  67.1955156  46.2074184  24.7972711  60.4862178  28.8705383
  24.9279388  59.5701945  28.6254440  25.4516824  60.9657538  28.3625732
  33.5006881  70.6861115  42.4480867  33.6957288  69.8223019  42.8114319
  32.8827119  71.0728931  43.0683565  45.2335405  81.6373730  51.5452003
  45.0498581  80.9288216  52.1620083  44.6420956  81.4745998  50.8103991
  29.1023293   5.0412493  44.1643572  29.4492474   5.7147913  44.7493505
  29.6463242   4.2723780  44.3350887  24.3118318  43.2627261  24.8635612
  23.5263189  43.0753959  25.3774772  24.2761215  44.2063392  24.7068344
  38.9489031  72.1226740  44.3637943  38.4484935  71.6383314  43.7071133
  39.8638535  71.9364119  44.1530800  21.8619442  71.9792891  45.8746243
  22.4551487  72.7107143  46.0459518  21.1456013  72.1008587  46.4977646
  54.7647810  65.7957077  52.6527977  54.5076275  65.6680727  51.7396641
  55.7215118  65.7695055  52.6380968  31.9224334  49.4686604  66.8898678
  32.5654793  49.2549276  67.5659180  31.7247319  50.3944540  67.0314932
  67.5863838  63.0103064  58.2195044  68.1316710  62.5618792  58.8658857
  67.1446419  62.3042822  57.7476740  77.5521844   2.6402121  34.7987890
  78.0014842   2.1170645  34.1349483  77.7446502   2.1959429  35.6245112
  25.9192514  77.0847797  55.7171965  26.4133191  76.2674713  55.6528425
  25.4535007  77.0181036  56.5507793  59.2921942   3.1252794  49.5120668
  59.2758410   2.5020914  48.7857056  60.2057856   3.1365328  49.7974682
  78.0368614  48.1603861  29.7500110  78.4042740  49.0141201  29.5211554
  77.1338320  48.3489323  30.0053978  35.0752297   2.5226431  30.3122354
  34.2657318   2.9993944  30.1287675  35.6131592   3.1439905  30.8029509
  83.5193055   1.0589819  10.5539858  82.9800742   0.5337458   9.9627274
  84.3384402   0.5695467  10.6294692  77.1717399  13.6810904  39.2944121
  76.5226930  13.1009798  39.6924686  77.6641171  13.1165247  38.6985397
  39.6850729  64.7069788  55.8462286  39.3830872  64.9321508  56.7261934
  39.7735858  65.5494308  55.4005003  41.2874269  61.1756611  66.6077089
  41.7099571  60.7125235  67.3310375  40.6284904  60.5620861  66.2828064
   2.2815341  79.6576214  40.8668327   2.3404305  78.8320732  40.3859663
   1.4859776  79.5725155  41.3922644  26.6148281  81.8816280  48.5956049
  26.9924259  82.1759892  49.4244623  27.3053885  81.3567448  48.1908178
  78.9593206  47.1872771  20.2659259  79.2710553  46.8530906  19.4248710
  79.0143453  46.4365447  20.8572040  36.3046193  79.4279623  60.3462172
  35.7443070  80.1440525  60.0470448  36.1460090  79.3775082  61.2888336
  44.0345287  71.0750771  46.7422676  44.4519186  70.6056261  46.0200262
  43.6783504  70.3852749  47.3022223  35.2334166  60.8632183  36.4998293
  34.7232127  60.0533295  36.5021849  35.4070139  61.0396242  37.4244785
   6.3480845  18.5055094  49.4857883   5.6771174  19.1306334  49.2114592
   6.9136706  19.0044813  50.0751734   7.0622015  54.1981173  51.6762161
   7.4016744  54.3825388  50.8004427   6.3026780  54.7738838  51.7648315
  74.9086230   8.1190805  29.1734314  75.2928632   7.5719194  29.8584175
  74.1560691   8.5355120  29.5935225  30.3786786  48.2136500  11.3105331
  30.5956872  48.5377086  10.4363857  29.4294771  48.3183730  11.3759742
  30.2213955  80.5857372  21.5255356  29.9860311  79.7927046  21.0439372
  29.9501896  81.3031387  20.9528065  85.8994389  73.5871840  42.7917814
  85.0462151  73.3235931  42.4471807  86.3148689  72.7664089  43.0563116
  48.1093550  52.0319986  18.5190105  47.2802639  52.1852875  18.9721584
  47.9953575  51.1831045  18.0916762  46.0126925  79.6072054  35.1671195
  46.6070127  80.2597332  35.5375576  46.1380053  78.8314438  35.7136798
   2.1282044  20.1857405  21.1448789   1.4090529  20.7255297  21.4730215
   1.9084540  20.0262384  20.2270007  66.1278868  75.5446005  46.7674637
  65.7157612  76.2698078  47.2370005  67.0665884  75.7207823  46.8310070
  59.9900532  61.9328737  25.2917314  60.4797554  61.5950155  26.0415816
  60.5700254  62.5870609  24.9019837  65.8291817  62.1053696  17.5214219
  64.9958897  61.7030239  17.2765267  66.4640760  61.7325830  16.9097257
  67.3077863   5.6996469  29.8364162  67.2515052   4.9432211  29.2525601
  66.5014499   5.6654673  30.3510857  47.5609677  14.7020464  46.6024780
  47.6808899  15.5837851  46.2498093  48.4501760  14.3813734  46.7531919
  84.6054231  36.8553698   0.8738409  84.3152772  36.2909997   0.1572261
  84.1182099  37.6698697   0.7495676  60.5377388  74.4863272  12.5713980
  60.2195692  74.4110394  11.6717696  61.4394760  74.1674089  12.5340116
  66.3904231   2.5830488  54.2178917  67.3002213   2.3665838  54.4219446
  66.3044231   2.3989611  53.2825041  12.8205609  55.1661873   9.8577386
  13.0313003  54.2355013   9.9328703  13.0017090  55.5237103  10.7269871
  52.9547310  80.0259686  70.0617695  52.2133017  79.5866728  70.4783392
  52.8999758  80.9310627  70.3684330  37.9711669  11.9372301  46.1522102
  38.9021205  11.9285612  45.9297657  37.6339334  12.7328424  45.7405090
  67.5930500  70.4240799  43.4368038  67.2571945  70.1722240  44.2970371
  67.7224398  69.5941257  42.9778194  72.5734472  72.1590376  64.4878435
  71.6535187  72.4133492  64.5605421  72.9825115  72.5113058  65.2782917
  56.4020967  78.8475084  26.2701440  57.0105743  78.7924147  25.5332875
  56.4182663  79.7698307  26.5256667  21.4129766  31.4552749  11.8481765
  21.0557350  30.8678735  11.1821685  20.7375272  31.4882768  12.5256096
  13.4566768  23.0857814   1.8803201  13.8905795  23.9278233   2.0179115
  14.1673644  22.4447596   1.8958364  48.4597731  79.7985125  48.7691545
  48.4670019  80.4420280  49.4777203  47.6430035  79.3150091  48.8930416
  86.6759294  13.6685400  44.2080498  86.5567344  13.1582098  43.4070587
  87.1107524  13.0672197  44.8126745   7.4966469  35.6216459  38.3179784
   6.8407812  35.1408415  37.8131080   6.9869986  36.1382608  38.9421630
  11.7914041  15.9179700   6.9412313  12.6705869  15.7310641   7.2703729
  11.3727744  16.4141334   7.6446567  45.8271473   0.8025770  29.3434310
  45.2616995   0.0303774  29.3288612  45.9713071   0.9763555  30.2736187
  86.5778542  80.9275150  68.4763861  87.4009609  81.4124107  68.5363531
  86.8419361  80.0075054  68.4676695  22.6987591   6.9536333  59.9309587
  22.8906861   6.7546301  60.8473587  23.3497563   6.4558439  59.4363451
  69.0840190  22.3978929  33.7674618  68.7745207  22.6298552  32.8918839
  68.4897178  22.8569727  34.3609977  52.0237344  19.3893652  28.3867979
  51.3343471  19.1917162  29.0207624  52.6541894  18.6763220  28.4884357
  37.4374723  61.0948563  63.9410210  37.0767593  60.4495335  63.3330154
  37.8416848  61.7548561  63.3777714  53.1997871  78.1911469  43.1854677
  53.7256384  77.7722788  42.5041008  52.9898548  77.4835348  43.7949324
  84.1012328  36.2934141  55.6823826  84.2232459  35.8047514  54.8684072
  83.5747092  35.7139139  56.2330103  42.3089414   7.5581007  29.1591311
  42.7061003   7.8973036  29.9612808  41.6560274   8.2154398  28.9186311
  79.7369664   0.7002764  25.4009151  79.2518275   0.5438929  24.5907235
  79.9372142  -0.1748915  25.7329082  52.8135627  19.5760851  37.1724582
  53.6478584  19.5875673  37.6415539  53.0522149  19.7145777  36.2558913
  12.5909319  28.5239439  32.1688795  11.8607607  28.8891630  32.6685762
  12.3769942  28.7172918  31.2561488  53.7011760   6.4783888  41.5504599
  53.3052128   6.3160448  42.4066639  54.5396345   6.8950682  41.7494535
  55.6266308  52.5410986   7.2423625  56.3913107  53.0732441   7.0225400
  54.9709797  53.1736946   7.5359201   8.9164248   0.1223974  69.8378754
   9.1129008  -0.0780554  68.9227533   9.5920649   0.7493238  70.0961351
  44.0604830  74.7783661  30.1466966  43.4888506  74.3293428  29.5239282
  43.4791613  75.3749561  30.6182671  13.3311596  17.1217947  47.9241848
  14.0567484  16.7151575  48.3978939  13.4612170  18.0619936  48.0480814
  61.9816723  10.7322721  44.8038816  62.5717488  10.5525331  44.0719414
  62.2332421  11.6051607  45.1055622  45.5943537  81.3515472  67.9839563
  46.1453438  81.5308475  68.7458563  44.7302866  81.6816330  68.2302475
  10.8745947   5.4044466  66.2993431  10.9486142   5.0683145  65.4061651
  10.0466910   5.0480776  66.6215324  29.5145067  32.7097142   2.9705797
  30.3773626  32.3419154   3.1614719  29.6985706  33.5744012   2.6036106
  71.6971445  64.5949650  49.8973179  70.7428932  64.6524906  49.9455738
  71.8831158  64.4758797  48.9659357  41.3059807  65.0419807  27.3793173
  40.5993128  64.8708153  26.7567778  42.0605612  65.2583122  26.8315554
  78.1184237  12.0040827  67.7265787  77.7275413  11.2567167  67.2739410
  78.2960647  12.6384954  67.0321703  30.9968162  68.2896328  40.9410381
  31.7011714  68.7858009  40.5239916  31.4354777  67.7730083  41.6169882
  61.6542244  71.2965155  28.6676073  61.9617748  71.9729042  28.0641651
  60.7664204  71.0965252  28.3708906  73.7020233  49.3016529  53.7886906
  73.3452406  49.7046709  52.9971647  74.6494594  49.4106865  53.7067890
  35.6273246  80.0110531  34.7261548  35.3772664  80.3944302  33.8854885
  36.3234878  79.3910170  34.5090270  19.0134278   9.3071871  57.9902792
  19.5882836   9.9033575  58.4702396  19.6094027   8.6921911  57.5626945
  57.5485390  11.3467817  39.6019983  57.5892704  10.7205515  38.8792181
  56.8913906  10.9843664  40.1961660  69.4802284  81.2567520  52.7775288
  70.0402069  80.8928108  52.0918083  69.1755915  82.0909309  52.4203634
  43.1059551  77.0942354  43.1884575  42.1924496  77.3494673  43.0596447
  43.5329247  77.8874731  43.5120344   2.6715603  20.3433065  45.0941801
   3.5768738  20.4872923  44.8186684   2.7063837  19.5473890  45.6247759
  74.5477908  19.4856768  10.4380858  74.6488326  20.0209265  11.2251890
  75.2631658  18.8515310  10.4862189  25.9443402  62.0357323  16.7421925
  25.4232717  61.4373159  16.2068248  25.6196404  61.9045925  17.6330364
  76.5443938  12.1580152  60.2513695  75.9455722  11.4112787  60.2574682
  77.4014848  11.7761641  60.0620985  60.3196049  73.7620592  64.8796844
  60.3980446  74.1731691  64.0188313  60.2090836  74.4946337  65.4857779
  44.3266016   0.6508188  41.2047291  44.4938212   0.0069170  40.5164957
  43.6511510   1.2221365  40.8392143  68.3631468  75.2191305  44.1473675
  68.1481647  74.7616816  43.3344984  67.5262833  75.3007936  44.6047735
  63.3168221  49.5089054   5.5642444  63.4405708  48.5811472   5.3637791
  62.9504013  49.5160770   6.4485055  54.1580629  70.8283663  28.2864594
  54.4883728  71.3379097  27.5465322  53.6840868  70.1007986  27.8836870
  41.7790699  69.4131708   9.4328225  42.1841097  70.0016117  10.0699341
  41.1084652  69.9467850   9.0064645  63.1189650  15.7978468  33.2821655
  62.6348131  16.2525873  33.9713979  63.1734794  16.4334040  32.5684977
  17.1874142  78.8800955  54.3619347  17.5945139  78.1464815  53.9011621
  16.8144846  79.4222593  53.6667967  50.7127523  69.4754648  65.3063488
  51.3908815  69.5805645  64.6390152  50.9132338  68.6366034  65.7215023
  81.3801950  19.5932703  50.6763697  80.9453195  18.8106470  50.3378248
  81.9769710  19.2638998  51.3483858  43.6479480  40.3389136  67.8223123
  44.4773156  40.0962607  68.2340174  43.4430892  39.6035926  67.2447582
  19.9308720  16.9848852  15.0345647  20.3761378  17.2183924  15.8490860
  20.0179282  16.0333090  14.9783099  53.2490604  29.9940233  66.6488028
  53.9187139  30.0756865  67.3278666  53.3711665  30.7671480  66.0978031
  17.0318460  73.8182735  61.4579868  17.3775065  73.3497524  62.2177505
  17.5895762  73.5406542  60.7312870  29.0453672  75.3166389  59.2846775
  28.9578533  74.4024038  59.5543957  29.9767137  75.5098772  59.3918562
  77.0256227  21.9007044  26.8707204  77.4602025  22.6906042  27.1923137
  77.4477666  21.1848478  27.3456740  69.4993442   4.6521215  39.9670219
  69.3455689   4.5632200  40.9075975  68.6651438   4.4112520  39.5641255
  56.7484188  62.4578571  30.0633121  55.9953928  62.5967932  30.6376624
  56.3908911  61.9902182  29.3085146  10.5588379   4.3476801  40.2138424
  10.6836644   3.7369566  39.4874358   9.9937811   3.8779478  40.8272743
  23.7536955  81.4231586  44.4251013  23.6743546  82.3565578  44.2283678
  23.8934779  81.3888741  45.3714180  53.3014917  60.2084494  67.0484352
  52.5090456  60.0310278  67.5551701  53.3219862  61.1614943  66.9617462
  20.3463784   2.9145555  50.3543139  19.5438424   3.4211950  50.4787207
  20.9906283   3.5560732  50.0549269  26.7582264  14.0325289  46.8092251
  26.8273774  13.7069349  45.9117603  27.0634785  13.3055429  47.3519468
  68.7699652  61.8275499  54.9260044  69.2291880  62.3902655  55.5494547
  69.2458677  60.9976101  54.9568272  41.7022514  74.8253965  45.2104139
  41.6709518  74.2670536  44.4335556  41.0397196  75.4972172  45.0493765
  38.5914755  36.9184995  23.0316401  38.1905270  36.9247580  23.9007974
  39.4171619  36.4495087  23.1521392  39.0520096  81.1481667  52.0373440
  38.7437749  81.1009121  51.1323595  39.4839692  82.0001221  52.0990658
  85.2628803  65.6100273  71.3716364  86.1454773  65.7893896  71.0474777
  84.7157001  65.6049871  70.5862713  59.4240427  72.3231030  57.4121952
  60.2928495  72.0165491  57.6718712  59.2540550  73.0725765  57.9828310
  15.8252182  35.4084711  39.3067336  15.1344815  35.6783419  38.7015224
  16.2282791  36.2287073  39.5912957  24.9521542  73.3306980  42.4720669
  25.9021091  73.4333897  42.4148703  24.8257422  72.6137257  43.0935192
  21.9314382  81.6210556  41.8545103  22.1997449  82.4584579  42.2326469
  22.7530382  81.1581802  41.6903162  24.9625817  11.0932093  51.8530273
  24.9023285  10.1386290  51.8900347  25.8747902  11.2667875  51.6207027
  26.9006634  70.6231165  26.4295936  27.5971961  71.1532021  26.8170047
  26.3457084  71.2544727  25.9717178  84.0116017  34.8658686  44.2348194
  83.4923594  34.4780569  43.5303879  84.8873418  34.9635725  43.8609695
   1.7565641  52.2251272  49.3945169   1.3766898  51.5714693  48.8074446
   1.0921860  52.3539972  50.0714445  20.0543189  65.6609583  55.5556250
  20.0653839  64.9907064  56.2389040  20.9333611  65.6324244  55.1778650
  80.0531578  76.1581135  65.0890398  79.2486715  76.6539812  65.2411890
  80.0928307  76.0517645  64.1385937  41.7593956  63.9141607  32.1972346
  40.9572220  64.2662382  32.5829697  41.7708588  64.2648315  31.3066554
  44.5443201  75.0208521  26.8435407  45.1603222  74.4789410  27.3365974
  43.6920166  74.8325348  27.2364140  19.9070179  72.8609514  50.6995630
  19.4370413  72.9847860  51.5241957  20.4303718  73.6562490  50.6003857
  14.0283099  12.0594816  39.7748995  14.1587963  11.1114626  39.7534752
  14.4210616  12.3737745  38.9605308  62.9090071  68.9881182  55.1876020
  63.6370134  68.3669043  55.1693344  63.1816292  69.6939039  54.6012831
  52.5849717   5.3038721  35.9612489  52.3675578   6.2338572  36.0252357
  52.4782985   4.9711065  36.8523812  84.5597649  76.2052774  37.7479553
  85.1378632  76.1274672  36.9890213  85.0024509  76.8291950  38.3232737
  27.3867536  53.3858156  17.3682380  26.8857479  54.2013168  17.3546612
  28.2305503  53.6166048  16.9796848  86.1242908   6.4663916  28.6935282
  85.6962197   6.1058359  29.4700503  85.5445855   7.1718435  28.4062719
   8.2530585  32.9508047  43.5208607   8.6136141  33.6370974  44.0823174
   8.7854662  32.1791105  43.7138987   4.0912428   9.9016695  33.3881140
   3.2051316   9.9274378  33.7491894   4.6624031   9.8849134  34.1560507
  71.8320465  60.7494020  54.8668337  72.1750116  60.7951641  55.7593107
  72.4883556  61.1991882  54.3346834  60.7202404  24.8501234  46.0967302
  60.2060645  24.1056662  45.7842636  61.4224999  24.4559031  46.6140842
  52.7590895  57.3642683  29.0168524  52.5641870  56.9033051  28.2009149
  52.9132605  58.2702541  28.7491655   6.1354158  59.2545509   3.4540653
   7.0879171  59.3088865   3.3764213   5.9490487  59.5672894   4.3393278
  77.4483245   4.3461828  60.9878254  77.3077291   5.2441053  60.6875038
  78.3227914   4.3579226  61.3769245  64.0530205  70.1655388  45.7429886
  63.2917690  69.8924351  46.2549925  63.7346601  70.2013874  44.8409939
  73.7684202  56.8270063  64.5888519  73.6697674  55.9129429  64.8552942
  74.0200472  57.2845125  65.3910971  84.7528260  34.7470407  53.4802437
  84.5546525  33.8109808  53.5075235  85.5155318  34.8137407  52.9057360
  76.3935280  71.7064476  58.8627291  76.4893341  72.5281906  58.3812809
  76.5298891  71.0255671  58.2039118  42.8820324  56.4074230  25.9510040
  43.1753349  57.2249985  26.3532162  42.0222473  56.2446022  26.3389373
  39.1674741  46.9639457  14.2145000  40.0302299  46.5510238  14.1773735
  39.3102249  47.8478492  13.8760315   1.5262785   5.2142553  24.3503737
   1.5898743   5.1313047  23.3989000   2.2355261   5.8120851  24.5866084
  30.8241040  18.3527486  62.9874100  30.7863481  17.4836032  63.3866526
  30.8330876  18.9570872  63.7296547  53.1640594  13.0888777  66.6027403
  53.1526893  12.2923880  67.1334934  52.5813621  13.6922865  67.0638180
  84.1494179  79.5849419  35.5305076  84.1840076  79.1773558  36.3959026
  83.7585545  78.9173460  34.9667907  53.7630898  42.6116340  68.9131216
  54.0866429  41.7499797  69.1759990  52.8396756  42.6078479  69.1651613
  72.1558469   6.2260561  35.5444407  72.0089429   5.3000860  35.7373691
  71.8057578   6.6879110  36.3062549  82.6939106  79.4665527  61.7149162
  83.6141968  79.7279882  61.7456818  82.2165966  80.2855015  61.5818071
  56.0226679  77.5576305  56.9849539  56.7109394  77.1161795  56.4873266
  55.9201765  78.4051704  56.5520477  21.2637615  80.2917671  57.7680635
  21.5343595  80.9714603  57.1507883  20.3114200  80.3760242  57.8147602
  84.1934913  11.2888842  63.7686825  84.9098437  10.9130030  64.2803335
  83.5086816  11.4700155  64.4124651   8.4260938  58.6140060  54.0665150
   9.2352674  58.9149714  54.4798946   8.6545274  58.5062075  53.1432438
  67.5646400  79.0067530  45.4123306  67.1193838  79.8512888  45.4811764
  67.3898268  78.5749578  46.2485313  13.7292424   6.5589170   7.1986765
  13.5563412   6.4992838   8.1382406  13.0890026   5.9698896   6.7994648
  78.0012267  16.2660913  55.5583715  77.3951190  15.8641081  56.1806870
  78.1329577  15.5973463  54.8863077   0.2591172  33.5681848  29.6075106
   0.7419815  32.9363852  30.1403379   0.6643763  34.4114237  29.8098564
  82.5565475   3.5954695  36.7687941  81.7014735   3.9748125  36.5658903
  82.8755229   4.1075735  37.5119162  44.1700077  75.8070517  14.3958509
  43.4105253  76.2626696  14.7589338  44.8646402  76.4656019  14.3910408
  29.7001019  26.1101561  65.0274229  30.5909672  26.0518866  65.3726578
  29.1667881  25.6260042  65.6578302  80.7996464  79.0830040  45.2248716
  79.8710680  79.2301273  45.4046679  80.8137321  78.3204508  44.6464682
  32.4542752   8.7934904  39.5983481  33.3319512   8.8957911  39.9663854
  31.8781700   8.7495546  40.3615046  36.2216797  19.9576693  21.7472410
  36.4625874  20.8290892  22.0616007  36.6869202  19.3562250  22.3286581
  28.7593484  74.0115595  52.7787018  28.3389068  74.3030024  51.9696760
  29.6970105  74.0628195  52.5932550  76.9275141  73.7076569  28.1988955
  77.2412157  74.5190001  28.5983276  76.2147331  73.9842129  27.6229692
  86.7388433  34.9056654  51.5310764  87.1363967  34.3130999  50.8930731
  86.8780797  35.7793646  51.1657095   3.5740700   7.1746187  66.5777063
   4.0374079   7.0511370  65.7492733   3.9991131   7.9324942  66.9792080
   5.4842892   7.9387979  46.9889402   6.1751976   7.6176577  46.4095116
   4.6728316   7.6203375  46.5935373  20.8477577  57.0494235   0.5420719
  20.3882297  56.6942943  -0.2188124  21.3868888  57.7565444   0.1877342
  10.7543507  11.9992475  17.2638047  10.2215805  11.2041407  17.2499037
  11.6460553  11.6873865  17.4181914   7.7049716  56.3808978   2.3469959
   7.0597609  56.6555751   1.6954647   7.1913322  56.2145007   3.1373869
  65.0839424  77.4784517  48.1181335  65.0728273  78.4246778  47.9740572
  64.2436361  77.2899103  48.5359573  80.1599830  47.0959024  60.9889746
  80.2179950  46.2549238  61.4424324  79.4200223  47.5404768  61.4025450
  59.9764674  15.5184488  63.6447668  60.5465549  15.5856924  64.4107389
  59.7011559  14.6018057  63.6308336  24.7292646  30.6042540   1.2383638
  24.2524131  31.1616958   1.8532644  25.6515439  30.8012450   1.4021621
  52.2986215  22.5750093  30.6742263  51.9710963  23.4735804  30.7133722
  51.5145772  22.0308809  30.7478976  39.8250841  42.2326529   4.0393768
  39.6496581  43.0062926   3.5037075  40.7665883  42.0863498   3.9477382
  86.1815827   6.3456564  25.0487399  86.8363135   5.8529501  24.5539594
  85.8533376   5.7231836  25.6975937  52.2322845  77.0905876  32.5406146
  52.0697832  76.1621284  32.7073026  53.1628084  77.1351671  32.3206902
  19.0942395  55.0972986  35.4831123  18.1740594  55.1678610  35.2290988
  19.1242290  55.4462051  36.3739538  74.4153255  26.2200956  44.6383953
  75.2115481  26.5198355  44.1997385  74.5756715  25.2939062  44.8191929
  82.6712077  33.4247999  62.4974537  83.3417886  33.0172853  61.9492865
  81.8660634  33.3518629  61.9849586  12.6188889  47.6545267  25.7111573
  13.4310522  47.2213201  25.9737515  12.5989046  47.5685339  24.7580385
  60.8851385  76.2255001  60.5827475  60.5343628  76.1201954  61.4671135
  60.8203840  77.1646929  60.4096603  14.5747795   9.5646124  29.2014956
  14.1928854   9.1747026  29.9878550  13.9742127  10.2729349  28.9694953
  80.4020160  26.2665205   5.9110808  81.3468736  26.2719660   5.7579750
  80.3083699  26.4847784   6.8383485  72.4034166  62.4424696  18.5233808
  72.8876638  62.3274326  19.3410015  72.5628662  61.6348743  18.0349195
  50.8372355  63.5637569  18.7136436  50.1590490  63.0518389  19.1543603
  51.5639305  63.5849285  19.3362951   4.6699801   9.4803934  67.3741913
   5.0137511   9.9095182  68.1577110   4.4956198  10.1979189  66.7651033
  45.3495916  59.6938670   8.0230318  45.1583799  59.9361384   7.1169553
  45.2433809  60.5074561   8.5160099  70.0739956  61.0178328  16.5685260
  69.9965572  60.1829195  16.1068428  70.0770807  61.6763020  15.8738017
  31.7715549  71.6081715  44.2960501  30.8991122  71.7991972  44.6404076
  32.1699142  71.0395432  44.9549913  60.4185057  56.5533352   9.1377032
  60.5909014  57.1606827   9.8571777  60.9741354  55.7966661   9.3246585
  20.7996645  15.0692778  21.3567305  21.5696516  14.9964361  21.9206834
  20.5761042  14.1644793  21.1385727  47.2459730  32.6046908   4.9411426
  47.9775031  32.0093644   4.7778164  46.6803916  32.1281159   5.5487810
  68.3666754  73.5092926  56.0286427  68.9979458  72.8026104  55.8932686
  67.5204992  73.1201410  55.8077860   5.0873366   3.1519823  32.4042058
   4.7208205   3.2897024  33.2776642   4.5182028   3.6568384  31.8233132
  26.3600388  10.1842337  41.7716837  27.2002926  10.3334169  41.3381338
  25.7898846   9.8485498  41.0799694  48.6138423  20.2448857   8.2227932
  49.3319972  20.0559390   8.8267694  48.5069307  21.1950410   8.2675729
  44.1573238  79.7598839  33.1031084  44.7383213  79.7908068  33.8631892
  44.6935892  80.0816917  32.3784757  62.9771566  44.4369030  50.2701473
  62.4538755  44.7074699  51.0246038  63.3697701  43.6056185  50.5366993
  33.8416561  52.0113242  23.1928383  33.3983453  52.7257407  23.6503444
  33.3712753  51.2236655  23.4659134  26.8863144  30.8984880  29.8067975
  27.5745812  31.1165361  29.1783214  26.2659588  31.6247587  29.7441792
  81.0644436  79.4416809  26.1026311  81.7023182  79.3347883  25.3969955
  80.2153873  79.4371843  25.6606913  49.4259930  80.5603409  52.2777224
  48.9184332  81.2556553  51.8592119  49.6560192  80.9153461  53.1363773
  19.1536370   3.8102560  39.1423559  19.7805395   4.3450479  39.6294117
  19.4276133   2.9084139  39.3092346   7.2354117  29.1138964  44.6762371
   6.5887061  29.8144655  44.7611094   7.4764481  28.8999681  45.5775499
  75.7495730  51.2108927  42.7946281  75.3696912  50.4484205  43.2311487
  76.6952127  51.0879068  42.8775454  86.5357869   6.7962675  52.2643137
  86.5796559   6.1694174  51.5422583  86.4686625   6.2528925  53.0494738
  60.1647615  65.7432270  24.9919343  60.6214714  65.5653000  25.8141184
  60.5208445  66.5812254  24.6966410  19.7641173  20.6087522  30.0664687
  19.2754736  21.3675909  30.3852391  20.1859703  20.2502470  30.8473349
  53.4317723  18.5386591  63.6928320  52.6667347  19.0416079  63.9721060
  54.1299191  19.1887026  63.6137152  21.8485251   8.7817602  39.3049073
  21.6146555   9.3918447  38.6053848  21.0396519   8.3028059  39.4853640
  72.6705449  18.8580065  33.5643339  72.1073049  19.3518858  34.1602135
  72.0633739  18.3463221  33.0297756  17.1722927  48.3714704  58.4451199
  17.1292773  47.9317598  59.2942572  16.6638842  47.8108530  57.8590631
  50.4593277  78.7448025  45.1656628  50.2438164  79.3856478  45.8432341
  49.6255016  78.3204317  44.9634695  54.8967552  77.3090410  40.9129190
  55.1911831  76.4345646  41.1675358  54.9705935  77.3182154  39.9586153
  12.0359600  62.5274658  41.5403223  11.3071287  62.5683832  40.9211588
  11.6568542  62.1447706  42.3315573  60.5763214  42.2024565  58.4945345
  60.3687900  41.8671350  59.3667316  60.3463667  41.4868574  57.9018497
  84.0433352   3.2246809  18.5085809  84.8235553   2.8462820  18.9139247
  83.4020894   3.2682066  19.2179060  66.1412471  12.8453093  35.4343605
  66.0002034  13.3651762  36.2256098  66.7817419  12.1830206  35.6939244
  72.5559807  76.2302923  21.1116719  73.3031988  75.9144926  20.6035709
  72.3120499  77.0550489  20.6915474   0.1804819   4.4677572  69.3307924
   0.9603730   4.9670439  69.0884829   0.0873080   4.6111898  70.2725887
  85.3139203  44.0645723  42.5603724  84.7834008  44.4352846  41.8551445
  85.1516288  43.1224565  42.5123024  35.6031370  71.0008574  16.8738425
  36.4922404  71.2034178  16.5828133  35.4018950  71.6789532  17.5187612
  17.6943341  22.2681646  17.0420349  16.8433323  22.0146589  16.6845965
  18.3159533  21.6694384  16.6280949  14.4216051   5.7849150  21.8010616
  13.8726654   6.3138609  21.2221789  13.9043179   4.9969320  21.9676232
   2.2230091  14.6980219  55.2099895   3.1716242  14.8162012  55.1610613
   2.0006457  14.2137556  54.4148350  10.9610732  60.4253257   9.3837391
  11.3742574  59.7387851   8.8601146  11.6880449  60.9780181   9.6705566
   0.9301749   2.4195032  36.2561989   0.0860157   2.2684889  36.6814280
   0.9719506   1.7584257  35.5652118  44.5016479  73.0215025  40.2637768
  44.2319250  73.7035227  40.8788633  45.4005003  72.8119707  40.5175352
  39.6721797   4.3760424  50.3975201  39.7004943   3.4507399  50.1541424
  39.0859633   4.7749929  49.7545385  67.7736824  23.0412130  41.3796616
  66.9310301  23.4098368  41.6447735  68.2273834  22.8638201  42.2036266
   9.3884459   7.1268015  35.8707762  10.2844372   7.0529585  36.1993670
   9.4714251   7.6278143  35.0593996  31.6427174   8.1355410  37.0821762
  32.0203438   8.2852297  37.9489112  30.7247105   8.3907633  37.1735525
  68.2285707  23.7516241  31.4954591  68.4410971  24.6813612  31.5770602
  68.9077681  23.4003191  30.9196949  55.9695148  65.7736397  19.6579158
  55.2547121  66.3926363  19.5091355  56.6797018  66.3085842  20.0124574
  85.6649154   1.2682085  65.1357794  85.8132213   1.8417482  65.8876371
  84.7305768   1.0633306  65.1714373  18.9607087  13.0414896  36.4963126
  18.9006892  12.0867758  36.4623380  19.4170657  13.2816248  35.6898999
  51.6432142  70.8347654  33.1874275  52.5903511  70.9730387  33.1806421
  51.3035822  71.5307474  33.7500000  28.5321751   4.5744925  30.8286548
  29.3599835   4.8064833  30.4077673  27.8716793   5.0761442  30.3508115
  19.3914357   6.7106848  48.7210083  20.0874701   6.5044813  48.0971098
  18.6192694   6.2632303  48.3749247   4.3883362  12.8356771  52.4736834
   3.7591114  12.7264624  51.7606783   5.1123181  13.3238535  52.0815420
  29.7147313  21.8111353  66.0172987  29.7889176  20.9266310  66.3755941
  30.4548779  21.8885546  65.4152966  82.7114909  30.0302820  56.5523434
  82.1545356  30.7753782  56.7778826  82.1196740  29.2780046  56.5596724
  43.9330769  64.3684435  22.1939421  44.7131920  64.1359806  22.6975393
  43.9028645  63.7231302  21.4876223  41.8919071  15.2656329  18.1308399
  41.7118724  15.6981004  18.9655815  41.1186012  14.7250903  17.9694591
  50.8436680  63.9720154  32.0150304  50.1234198  64.5907402  32.1360898
  51.3163805  63.9889383  32.8471875  63.3795040  36.1716776  62.4810314
  62.9915612  35.2991991  62.4138403  63.9528339  36.2383203  61.7174339
  82.7720159  13.6649065  47.1296120  82.2994702  13.0031424  47.6345825
  82.5503343  14.4936399  47.5542164  35.6743940  60.4496730   0.8105074
  36.3527807  60.0081027   1.3214288  34.9302848  59.8478759   0.8296810
  19.4897779  36.4857400   5.0819288  19.6105941  36.0170091   4.2561374
  18.5536464  36.4088262   5.2662502  17.9646006  36.9521265  23.6054659
  17.8278962  37.7248316  23.0573153  17.4783745  37.1390657  24.4085002
  59.0751522  30.0955706  70.5692387  58.3260816  29.6023588  70.2347803
  58.9943140  30.0375967  71.5212584   7.3941222  25.2714567  22.6605773
   6.7026558  25.0419359  22.0397496   8.1503001  24.7572260  22.3777461
  23.7901767  27.5308240  13.5255466  23.7304004  27.8793586  12.6360641
  24.2077049  26.6759456  13.4202610  61.1828899  80.0131321  22.5397205
  60.9844923  79.5369244  23.3460021  60.3626347  80.0012207  22.0465016
  63.4435027  11.6024332  53.9985132  63.3492153  11.7659788  53.0601120
  63.4826224  10.6489115  54.0727043  84.8391247  61.8552256  58.6799955
  84.5354843  62.4103260  59.3982601  85.4815388  62.3928595  58.2168770
  18.7211790  23.0348616   5.4304963  19.5582190  23.4339361   5.6678396
  18.8859072  22.6178293   4.5848164  24.7608319  21.1366682  68.7301779
  24.1814080  21.5828543  69.3477631  25.6158009  21.1373644  69.1605949
  67.8890944  71.4328527  39.6037579  67.8628159  72.1451092  38.9648318
  67.0271921  71.0214901  39.5394611  37.1258688  75.3232431  24.6896625
  36.9808555  75.9117126  25.4305458  37.2981262  74.4713068  25.0906134
  17.5741330  15.7158976  11.8897605  18.3669796  15.2464228  11.6305053
  16.9338742  15.0262480  12.0649171  43.2067966  69.3166542  48.7745190
  42.9672861  69.2891550  49.7008610  43.9984703  68.7818241  48.7158489
  19.4389000  19.5522718  35.9089565  20.0992051  20.0926428  36.3428116
  19.9253550  18.7948446  35.5835581  54.3073177  71.4992714  23.6107802
  53.6544228  71.7288017  22.9495120  54.6988869  70.6872559  23.2890129
  66.5788317  59.0029907  45.0369930  67.3961210  59.4987345  45.0870895
  66.1765814  59.2866468  44.2160416   7.9450646  25.0878839  50.0077343
   7.5513735  24.4788294  49.3829918   8.0249300  24.5827227  50.8168459
  84.2569726   1.0738020  29.8597240  83.9471000   0.4303961  30.4970980
  85.1333659   1.3095026  30.1640368  16.2664086  55.8019034  69.6399665
  16.9922072  55.7587401  70.2625332  16.3102204  56.6886107  69.2821107
  70.3904384  10.8887606  12.4030638  71.3445466  10.8846979  12.4797964
  70.0924438  10.2913218  13.0889940   4.9651041  19.8640184  53.3128834
   5.5960074  19.1627531  53.1503630   4.2929640  19.4591837  53.8611269
   2.6671114  24.1015749  53.9355659   1.7796936  24.3951349  53.7293005
   2.6678267  23.9908152  54.8863363  52.8683138  73.7287903  29.6455956
  52.0909786  73.1964207  29.4765902  53.4464550  73.1554842  30.1488972
  27.8119221  16.1530333  47.9326582  27.4878540  15.3198175  47.5906563
  27.2664204  16.8148260  47.5075865  65.6256907  33.5541754  57.8789377
  65.5121964  34.2568808  58.5189056  65.9265249  33.9984350  57.0862436
  51.4496613  68.1089735  58.7366343  50.7788849  68.6251974  58.2896328
  51.0871744  67.9482365  59.6078396  50.4297066  72.3125029  30.8311939
  49.9971724  72.0356131  30.0234318  50.0915384  71.7172146  31.5001512
  17.3494473   9.1616945  35.5266547  17.0551434   9.8510389  36.1219931
  17.2185889   8.3499746  36.0167670   7.4257126  11.2419062  40.7698107
   6.6461077  10.8438139  40.3825378   7.1490994  12.1263723  41.0094738
  34.5317974  30.3061800  53.0945253  34.2641774  31.1878805  52.8352642
  34.3605175  29.7671061  52.3223305  79.9921785  66.8542445   3.3234821
  79.3704234  66.8725932   4.0510212  79.6613441  66.1688769   2.7429186
  61.6982651  62.9474258  57.9741669  62.1669340  63.5113096  57.3588467
  62.3560238  62.7056456  58.6261845  25.3261121  60.3831351  25.1746784
  25.5039199  61.0911811  25.7937751  25.6706699  59.5990527  25.6021343
  40.7948494  58.8364458  13.8829374  40.7512712  58.6425924  14.8192883
  40.0263882  59.3819571  13.7152684   8.1113084  51.6896499   1.4068447
   8.2756217  51.0361731   0.7269893   8.9785226  52.0303023   1.6262279
  75.7459688  55.2693892  47.1409845  75.4176664  54.7076750  47.8430700
  75.0195169  55.8624649  46.9492483  48.5850635  49.2683787  17.4032652
  48.5325101  49.1446967  16.4555454  49.4806478  49.0164275  17.6283908
   2.5653083  76.5932424   9.4006282   1.7335231  76.5870233   8.9269954
   3.1788117  76.1521156   8.8130462  25.3309447  76.7178960  58.3355904
  26.1444480  76.2263144  58.4486723  24.6971852  76.2630917  58.8903284
  11.4690852   8.6661714  10.0391185  11.8834805   9.4916755  10.2902174
  11.6934276   8.5569209   9.1150153   7.1305442   0.4867340  25.5925560
   7.5147623   1.3549972  25.7139134   6.9955671   0.1581832  26.4814138
   0.2658374  54.5789475  10.3641415   0.8012063  55.3609939  10.4983568
   0.8999569  53.8756652  10.2244389  16.4493084   7.3475742  48.4689379
  16.4566219   7.8383499  47.6471615  16.6723108   7.9957777  49.1370201
  20.6266189  41.0017681  36.9897437  21.4041901  40.5027771  36.7394972
  20.1423216  41.1165857  36.1721206  15.6244636  20.2420092  25.0749660
  16.3918877  20.4510951  25.6074810  15.8201277  19.3835187  24.6995425
  20.5282599  32.2577734   1.7713612  21.4131600  32.2503347   2.1362281
  20.3611428  33.1778688   1.5670785  65.2366426  40.4954290   7.7905089
  64.6098092  39.8184896   7.5354266  66.0844996  40.1578093   7.5017464
  30.9134746  27.6213193  50.4754496  30.7760501  27.1247458  51.2821484
  30.7461262  26.9910288  49.7747660  21.4471388  20.5813527  49.2788839
  22.1724200  21.0851574  49.6481800  21.3532686  19.8311341  49.8659039
  18.7611020  38.4996247  12.4379277  19.6665943  38.5008192  12.7482736
  18.2435131  38.7332964  13.2084668  21.5600109  22.5937319  52.5707912
  21.8549299  23.3098030  53.1333685  20.9541941  22.0934916  53.1175804
  39.7269797  53.9295721  24.7316909  39.0775037  54.2709732  24.1169906
  40.5655193  54.0517712  24.2865467  39.9876690  13.5469115  23.9537930
  40.8305120  13.2672834  23.5965061  39.3379688  13.0808723  23.4275508
   4.9658686  12.7180207  26.2801695   5.2716559  13.6132288  26.4262056
   5.4787403  12.1872997  26.8897009  67.7007344  39.8867488  42.9350805
  68.0466690  40.0918531  43.8036966  67.1350231  40.6286907  42.7212524
  19.9314058  35.0575447  31.9714212  19.7206068  34.1267276  32.0447326
  19.8485267  35.2490401  31.0372400  27.2109747  12.3365068  53.4320974
  26.6455483  11.5645218  53.4083128  26.9273925  12.8172255  54.2097378
  25.0297839  69.4665189  29.2616510  25.8071858  69.9248416  28.9425635
  24.3547732  70.1435967  29.3081141  85.1841466  26.4655757  59.4776869
  84.4492951  26.5860295  58.8762617  85.0878006  25.5683279  59.7969007
  10.8810598  68.9483221  45.9556055  11.1436946  68.0359585  46.0774517
  10.0781447  69.0370519  46.4691114  44.8472977   9.1992879  25.7990479
  44.1649628   9.3189842  25.1384997  44.6378422   8.3608216  26.2105513
  17.2436535  28.9613485  29.4544172  16.8993664  28.0909824  29.6548176
  16.5266752  29.5579076  29.6695733  22.3288829  80.5808829  38.0533290
  22.6512486  81.4165501  37.7157259  22.8290946  79.9200944  37.5743914
  76.4233837  71.3015778  29.5591116  76.9162736  72.1004261  29.3716717
  75.7836005  71.2428482  28.8495612  34.1099262  17.7039504  28.4297276
  34.2565823  18.5998297  28.1262088  34.8725414  17.2172618  28.1170177
  20.5009866  26.8297100  33.3079338  20.4831266  25.8808517  33.4327507
  19.6838951  27.0264435  32.8497982  20.1099849   3.6784372  31.4607811
  20.7835865   3.0248559  31.6487265  19.8175383   3.9755818  32.3224139
  37.7110100  44.9797678  19.8205137  37.7166200  45.6800175  20.4730868
  37.7643991  44.1735983  20.3338051   8.0023057  63.0317361  18.0302751
   8.1200392  62.2558243  17.4822497   8.5829312  62.8875597  18.7774813
  76.5307846  13.8769519  48.5271645  76.8696573  12.9938924  48.3801794
  75.6053677  13.8210857  48.2890129  14.7399867  36.4780164  47.2755909
  14.6426439  36.0510063  48.1267214  14.1658437  37.2423744  47.3240423
   7.8705376   9.8030901  26.7456818   7.8595215   9.6029443  25.8097053
   6.9686657   9.6587837  27.0320988  57.6190818  75.7021083   3.6917537
  58.0021112  75.6701351   2.8151134  58.3485487  75.5045952   4.2792043
  26.2275215  76.3492735   4.8212562  27.0869987  75.9302171   4.8651062
  26.3480362  77.1897729   5.2631508  18.1956732  19.4860852  11.1593413
  18.3123910  18.6975539  10.6294096  19.0842783  19.7427022  11.4058375
  10.8787930   5.1285404  12.9852939  11.5286207   4.7719744  13.5909486
  11.2469375   4.9669367  12.1166253  25.1664186   4.0445560  41.5914774
  25.1051092   3.7424058  40.6852865  26.0693216   4.3492633  41.6817808
  66.9689730  78.9088560  28.4764242  67.6039115  79.5585631  28.7780309
  67.3111466  78.6132307  27.6327705  28.0053735   0.2928088   2.3423918
  27.3029327  -0.0943936   2.8647751  28.6605310   0.5639047   2.9854381
  18.2313156  49.8930073  28.9189267  18.5642576  50.7889223  28.8667154
  18.8402832  49.4450235  29.5060372  13.0534613  15.9751081  11.1204231
  13.1336677  15.0215662  11.1440098  13.9567137  16.2917602  11.1303127
  20.1879168   5.6374073   1.7601711  21.0930777   5.3334671   1.6928044
  19.9908495   5.9965622   0.8950678  44.6245007  23.3982730  70.3102404
  44.5871798  23.2282972  69.3689926  45.1478235  22.6786136  70.6630216
  41.6492645   9.6622908  58.2380356  41.7545859   8.9573347  58.8769235
  42.5388781   9.9795711  58.0826272  41.6798958  56.3174624  18.8938630
  42.4396846  56.1623735  19.4550240  40.9419462  55.9555335  19.3844426
  83.2449684  64.9448855  17.1996450  82.9796896  64.1839321  17.7161813
  82.8986296  65.6949956  17.6829839  49.2732096  22.9689264   7.4812526
  50.2060556  22.9450655   7.6944792  49.1882086  22.4022532   6.7145133
  39.8552227   6.4494348  64.1674328  40.2585363   6.8884462  64.9163294
  39.4788933   7.1596551  63.6476326  38.0975107  50.1793372  68.7966048
  38.4674815  51.0614860  68.7624479  38.6010049  49.6832901  68.1511100
  43.5772667  50.5678721  10.6266510  44.1151414  50.9905667  11.2961662
  42.7259824  51.0001249  10.6952262  25.3728151  19.3756843   8.4321409
  24.5219111  18.9389277   8.4700251  25.9582448  18.8030338   8.9276987
  20.7692671   5.7121527  10.6856728  20.2823639   5.2152836  11.3431513
  21.4670038   6.1430687  11.1793423   3.7652805  35.4605079  41.0382986
   4.3091479  35.0370145  41.7024517   3.4257969  34.7378635  40.5103159
  33.8993272  54.8440499   3.0212501  34.4881401  54.2085404   3.4282660
  33.0276236  54.5926185   3.3264509   8.7380809   4.8488790  24.1084576
   8.5236895   5.6349242  24.6108508   7.8926480   4.5257509  23.7969065
  85.0039531  11.0542572   6.6786641  85.7930880  11.5534115   6.8892413
  84.5711475  10.9232879   7.5223219  10.4251797  54.0429945  16.5893972
  10.0276906  53.9477844  15.7238519   9.7652251  54.5047755  17.1065509
  14.5894492  18.2149315  39.0073252  14.9802387  18.1728697  39.8801064
  13.9348030  17.5166047  39.0041113  72.1752755  52.0818710  64.0219190
  72.5473849  52.2628569  63.1587781  71.2670819  52.3773777  63.9579626
  31.8519251  53.5373580  68.6740150  31.2600284  53.2744443  69.3788319
  31.5406204  53.0557036  67.9076399  70.1949367  79.9164869  19.3402481
  70.7209000  79.8458491  20.1368690  69.3923745  80.3559516  19.6213102
  51.5111971  16.7822611  51.1862803  52.2113895  16.5001893  50.5977201
  51.9009638  17.4891150  51.7007399  34.6173892  54.4555735  62.2764816
  34.6943180  55.0764441  63.0009349  33.6963258  54.1950869  62.2810693
  31.5634561  23.9532280  50.6507254  31.1118293  24.2978883  49.8803520
  30.9728527  23.2831073  50.9947538   1.7921016   7.2309726  35.8419156
   1.9960044   8.1392801  35.6191301   1.6274735   7.2467715  36.7847204
  64.4990245  71.7311330  23.5434318  64.3876425  71.9968064  22.6306081
  64.5590845  72.5549938  24.0270400   3.0646784  63.3334465  52.3573112
   3.0574209  63.2572396  53.3114433   3.6754496  64.0485139  52.1787882
  26.1594391  21.3217115  16.5713859  25.7737947  20.7042098  17.1928358
  26.4765620  22.0425391  17.1155131  69.0662715  66.8549259  60.5025148
  68.9477369  66.3054020  59.7277880  69.6914098  67.5254626  60.2271748
  38.4477711  12.0580685  11.9181550  37.7441263  12.0098734  12.5652993
  38.4471345  12.9712451  11.6312063   0.5615749   8.8974530  48.0903387
   0.2228614   8.7656605  48.9758539  -0.1881379   9.2248929  47.5934029
  64.2341893  60.5155988   5.1979433  63.6683648  60.8917673   4.5237241
  64.3851703  59.6155866   4.9091278  72.1711323  69.5465918  70.3997707
  72.8379271  70.2186389  70.2584600  71.7540464  69.4395263  69.5448971
  63.9752701  79.5993477  32.0092869  64.0427217  78.7378557  32.4210072
  64.7824726  80.0485255  32.2600746  86.4305315  56.0868068  15.5278122
  86.6059956  55.1474733  15.4721701  85.4813180  56.1594720  15.4280889
  76.6080968  12.1165812  70.1630026  76.9772259  12.9170382  70.5361600
  77.0005242  12.0552003  69.2921031  10.9211636  12.8325820  12.5622833
  10.3336334  13.0656922  13.2811022  10.3549361  12.4067557  11.9186282
  23.5504634  70.9352405   9.0355426  22.9259593  71.1477966   8.3419669
  23.8951737  71.7831738   9.3155718  32.1686474  29.1087782  59.7990085
  32.5980691  28.8999545  58.9694168  32.8154696  28.8821756  60.4672171
  78.1109938  71.3257284  26.0847497  77.2998759  70.8391006  25.9380698
  78.3147607  71.1788006  27.0083952  17.7475727  33.5849071  55.5290174
  16.9849443  33.0611849  55.7746696  18.4517884  33.2604814  56.0903168
  26.7292904  78.3800637  53.4910073  27.6698933  78.5339772  53.5793700
  26.4359752  78.1735575  54.3784489  12.9788262  62.3182137  34.0677857
  12.3711164  62.8654153  34.5652676  12.5421578  61.4685102  34.0081453
  76.6741803  31.2262559  16.6473365  75.8336499  31.6317201  16.4344096
  77.0844134  31.8342352  17.2623968   9.5441449  15.7442737  26.2435293
   9.5168424  16.0127985  25.3251719   8.6519933  15.8845830  26.5607214
  16.9612789   4.9549973  35.3649664  16.7543304   4.3503207  36.0775471
  16.3900042   5.7079786  35.5162835  52.8304544  70.1569898  63.5356903
  53.7280044  69.8741515  63.3606529  52.4554464  70.3138323  62.6690865
  18.8847625   6.3227642  21.5209842  19.1748846   5.8331794  22.2906375
  18.0201340   6.6559935  21.7610025  20.7465582  42.0684713   8.5517774
  20.6233435  42.9873285   8.3135496  20.5365991  41.5838408   7.7534757
  27.7921033   4.1548681  20.3841949  28.4642887   3.6589316  20.8515739
  26.9719458   3.9085716  20.8118749  18.5248792  24.6002364  37.8686166
  18.6127567  25.5426097  38.0115986  18.4493828  24.5080972  36.9188595
   7.6202404   1.0132334  15.8915544   7.8420752   1.5462908  15.1280951
   6.7600876   0.6469266  15.6861556  13.7640560  20.2781820  37.6375031
  14.0020347  19.5163107  38.1658506  13.7976205  19.9631834  36.7342424
   2.2530372  67.5715549  24.1574454   3.0598337  67.7987618  24.6197081
   1.5824825  68.1227345  24.5609164  19.6731303  73.7706124  69.6074964
  20.1954917  73.8806712  68.8129793  20.2601300  74.0295755  70.3178495
   1.8037944   9.3136293  18.3577251   0.9506059   8.8807666  18.3882475
   1.6048864  10.2432179  18.4696758  64.9972943  45.9347291  18.7166774
  65.3081730  46.2476201  19.5661986  65.6937871  45.3569598  18.4047294
  31.8959355  27.8956771  12.2406113  31.1211443  28.3562016  11.9183576
  32.5057721  27.9076433  11.5029204  34.7584939  22.5997686  35.5711627
  35.0981474  23.0669379  36.3344574  34.6315980  21.7016482  35.8769584
  52.4536078  65.6514008   3.0124174  51.6442960  66.0908373   3.2734571
  53.0989330  65.9329780   3.6608778   9.0056712  63.3377118  14.4688106
   8.9675171  62.7813287  15.2467668   9.2786724  64.1934724  14.7995305
  12.1390492  76.0255243  40.4161930  12.6931436  76.5268154  41.0144567
  12.7560861  75.5581517  39.8531151  13.8304961  11.1538780  48.4038353
  14.4070339  10.4672384  48.7390423  14.4253981  11.8102300  48.0411720
  27.1990180  22.0663095  30.0244713  27.0746660  22.6902914  30.7396054
  26.3422537  22.0135903  29.6009064   1.4739004  11.7334282  62.4969292
   1.4228882  11.8510616  61.5483570   1.0007847  12.4835491  62.8570843
  34.5450926  13.8978302  30.3372979  35.1562333  13.6598933  29.6400714
  34.9759197  14.6177709  30.7980633  26.3292165  79.0480530  59.2201306
  26.3945080  79.5335137  58.3977582  25.9559009  78.2027995  58.9703037
  40.3734439  53.7959166  14.8012958  41.2364166  54.1831322  14.6544109
  39.7861927  54.2984279  14.2366253  12.9307401  26.9298029  18.0480421
  12.9282033  26.0542297  17.6612639  13.0370963  26.7766023  18.9868987
  36.3459802  10.2529168  51.1070490  35.9137249  10.8008754  51.7621279
  35.9259295  10.4911840  50.2805996  51.8447876  18.0883205   2.4332906
  51.2339067  17.5888300   2.9751083  51.5513325  17.9324567   1.5356135
  25.3228831  18.8511002  12.5957525  25.1897573  18.4345984  13.4472418
  24.6126866  18.5131705  12.0501733  36.0342526   3.9452893  35.4500222
  35.9711361   4.3808243  36.3000560  35.2524900   4.2297032  34.9765420
  46.8142271   5.4944861  17.6628137  47.0116377   5.8351165  18.5353005
  47.2896194   6.0730702  17.0665979  32.7938342   9.8396552  19.9415720
  32.2437024   9.3150425  19.3598783  32.1745753  10.2838683  20.5207324
  23.5430098  11.0656655  44.3303347  24.3418288  11.5866637  44.4120836
  23.7858939  10.2012014  44.6619081  24.0284967  21.3884330  49.8729134
  24.1029501  21.6884470  50.7788277  24.6127582  21.9652319  49.3808031
  21.1148620   6.6330814  46.3803101  21.7884517   7.3118454  46.4226103
  20.3983426   7.0368934  45.8906507  54.0476649  42.1832226   2.4164043
  54.1399377  41.7322900   3.2556759  53.3431619  41.7145676   1.9688879
  10.9995747   2.2433686  54.6203518  11.5691364   1.6294211  55.0839233
  11.1905634   2.0947042  53.6942530  31.7993457  81.9507876  36.8287587
  32.0982129  81.7029110  35.9538484  31.0694558  81.3584200  37.0092964
  29.6482658  11.3377392  23.1943893  29.2650533  10.9005058  22.4339890
  29.2183065  12.1925223  23.2210684  17.5011420   2.1210137  18.1942225
  16.8856454   1.4789307  18.5479510  17.0481861   2.9598287  18.2805443
  35.5548429  13.8524294   6.7324734  35.5581093  12.8960979   6.7731142
  36.3206697  14.1164434   7.2424144  10.1306689   6.3282502  44.4647074
  10.8303308   6.7747021  44.9415588  10.1051426   5.4497302  44.8438931
   0.8109409  77.7037956   4.9371883   0.2922232  78.5031794   5.0274605
   1.7115290  77.9826997   5.1026750  81.5337912  44.6760842  61.6786833
  81.2142007  44.0869623  60.9952869  81.4124600  44.1870024  62.4925079
  65.7346395  71.8633659  48.9214039  65.8002553  71.1755545  49.5838547
  65.7919720  72.6799626  49.4175053  18.3293152  10.4090798   0.8506845
  18.3114314  11.1171484   0.2068293  17.6891792   9.7751153   0.5273478
   3.5710675  73.6258138  20.4584694   3.2911164  73.7942584  21.3581848
   2.9655296  74.1351951  19.9198723   9.3896586  10.1953244  58.3110189
   9.8211062  11.0142744  58.0672884   8.4671628  10.3384137  58.0994558
  59.5296054  75.1878132  26.6327548  60.2639556  74.9744667  26.0570431
  59.5571155  76.1412687  26.7127371  28.0830724  67.3275752   3.7132028
  27.5397927  68.0487247   4.0310401  27.7539355  66.5574439   4.1766667
  73.0019412  69.8627157  55.8335304  73.4149847  70.0717611  56.6713381
  72.1553621  70.3082223  55.8660936   2.0283188  60.0837552  71.0011723
   1.4077867  60.7884144  70.8150919   2.7644552  60.2512645  70.4127213
  21.6918278  22.5542951  12.2122812  21.5400386  21.6187978  12.0779860
  21.2562418  22.9763460  11.4717615  77.8529963  73.4694220  20.5770802
  77.9889176  72.5277383  20.4722524  77.7443442  73.7966014  19.6841180
  17.9322398  43.7257195  34.6913624  18.4867895  44.4955063  34.8183656
  17.2450686  44.0214443  34.0942264  42.5148869   6.1133546  23.8983631
  41.8127441   5.8669180  24.5004392  42.3840332   7.0496011  23.7481928
  13.9282472  75.2173622   2.0186654  14.7307879  74.8509551   1.6473109
  14.0222604  75.0919504   2.9629457  40.8277750  45.6645155  11.2622631
  41.5589046  46.2661839  11.1219883  41.1183786  45.0967455  11.9759989
  24.3864018  80.3473103  50.4503584  23.5447843  79.9278211  50.2716160
  24.1667945  81.2643486  50.6148148  17.0739698  38.9906430  36.6934299
  17.3184085  39.8270321  37.0895815  17.7183795  38.3684206  37.0307803
  48.8839179  63.6635359   4.6912752  49.1664689  64.3593462   5.2847753
  48.8012736  64.0936048   3.8401304   6.4193708  67.1185691  23.7750340
   7.3633320  67.0254071  23.9034438   6.1437637  66.2791641  23.4066987
  79.8363784  19.6552479  26.4826012  80.3682813  20.0768638  25.8076572
  79.0875837  19.2952323  26.0072851  30.2313900  28.2349157  30.1740813
  29.7703719  27.6908445  29.5355821  30.3852272  29.0619373  29.7173548
  61.7243687  39.8690672  70.6814208  60.9035222  40.2216759  70.3377492
  62.3553721  39.9975474  69.9732109  49.0266466  11.6148651   1.4666802
  49.1447020  10.6665587   1.5215398  49.4783163  11.8662465   0.6610550
  37.2332978  31.4328790  60.5912304  36.3612390  31.3841224  60.9828568
  37.3492265  30.5869126  60.1586437  22.4117947  26.6954255  42.6324987
  22.1773291  27.4898696  42.1527958  21.6483474  26.5121365  43.1800270
  31.9831991  21.0667896  24.0150046  31.2601852  21.3652229  23.4632611
  32.4774122  21.8622303  24.2131448   6.1088884  11.2017572   6.2379736
   6.8560612  11.1813855   5.6400192   5.4589117  11.7437398   5.7907414
  38.2083845   5.8877736  29.6363902  38.1431794   6.6035414  29.0042067
  38.7555742   6.2381351  30.3392863  26.9964225  63.0272622  30.0344992
  27.5947291  63.5760732  30.5415225  27.0314319  62.1732588  30.4654098
  47.1334124   0.9852815   9.6685654  47.9381657   0.7537316  10.1322341
  46.8102503   1.7630443  10.1234090  54.9531048   3.1812792  32.1833324
  54.9743956   3.5730009  33.0564499  55.3940075   3.8202219  31.6233444
  47.0434427  24.0313458  18.6115444  46.2767076  24.3905282  18.1650805
  46.9756079  24.3617392  19.5073521  23.2629609   4.0004915  28.3796358
  23.9297867   4.5965844  28.0386853  23.1034207   3.3850703  27.6640701
  46.0297489   7.5941855   8.4668177  45.7906389   7.3640478   9.3646449
  45.8146191   8.5239303   8.3924907  39.5363657  47.2115600  67.5984995
  40.1482801  46.4787089  67.5297846  39.6603135  47.5445503  68.4873112
  62.9953432  20.1505995  47.6733446  62.7252293  20.4973435  48.5236645
  63.6671352  20.7604837  47.3684311  25.6540489   5.1268137   7.3767304
  25.1386309   4.5594642   6.8034154  25.0034642   5.6581748   7.8356707
  34.2126822   9.8504966  23.3033347  33.7289929   9.0599531  23.5427475
  33.5775781  10.3846037  22.8262568  20.0243258  28.4459591  58.2999182
  20.7223463  29.0293717  58.5976267  20.0133085  27.7376699  58.9436865
   6.5000660  62.7890463  38.2597089   6.7512137  63.4418507  37.6062536
   5.6226665  63.0528350  38.5368633  25.1942968  34.3210292   9.0312916
  25.2549720  35.0112963   9.6916556  24.6349597  33.6552525   9.4314355
  35.0677347  25.9763479  58.0555105  35.7734895  26.5393758  57.7374840
  35.3728175  25.6688881  58.9091063  29.8100376  75.1692820  45.7475710
  29.3469405  74.5067883  46.2602806  29.5725894  74.9789667  44.8400307
  45.9958315  16.2268007  32.5949717  46.8477488  16.6004956  32.3695374
  45.6297064  15.9427166  31.7574310   7.2252911  19.0064871  39.1042662
   7.1501827  18.4720945  39.8948455   6.4620233  18.7658918  38.5791302
  35.0697827  32.1552181  19.5870435  35.4061222  31.2592149  19.5701575
  35.1663661  32.4301600  20.4988050  77.7157667  22.5689316  37.4779296
  77.3633018  23.1244802  38.1731749  77.0512840  21.8914318  37.3526716
   2.1980549  29.6832395  51.9270086   1.8076503  30.2216411  51.2385750
   1.8133603  28.8160038  51.7999458   7.1085054  61.1059089  48.7856054
   6.6597325  61.7083569  48.1924057   6.4730865  60.9370155  49.4812727
  27.0448327  26.7327094  51.7752743  26.5703392  26.5441871  50.9656191
  26.9437861  25.9400249  52.3022223  71.3075177  59.7291207  69.3717487
  70.8289067  59.2756593  68.6778215  71.0477177  59.2789101  70.1755184
  28.4726930   9.9412555  58.0269909  27.9344845   9.5768660  57.3242903
  28.4082079  10.8892190  57.9110622  46.7507076   5.8669090  47.2922850
  45.8204031   5.6663167  47.1896553  47.1723700   5.4340428  46.5499496
  14.9027193  42.2646570  44.8635006  15.4573739  42.0280647  45.6068850
  15.1610792  41.6583204  44.1693592  85.5745445  44.9184036  15.2492535
  85.0099319  44.1800976  15.4780626  86.1033856  44.5980453  14.5185483
  33.4822512  17.0008409  48.2045698  33.3384871  16.9997787  47.2582245
  32.7051353  17.4284363  48.5644054  55.8965961  67.4261176  62.4260117
  56.0987107  67.5331103  63.3554925  56.2635771  66.5720045  62.1978750
  37.4169469  30.7609296  42.1871805  37.2602463  29.9550152  41.6950607
  36.6641927  31.3160539  41.9836378  85.0412648  50.9625578  27.2475219
  84.9243147  50.1320744  27.7088737  84.2894104  51.4920664  27.5131726
  24.6811604  12.7775681  26.8863153  24.1317534  12.9742563  26.1275673
  25.2438140  13.5462153  26.9803095   9.4139439  25.2500486  41.3978767
   8.5995311  25.4953289  40.9587860  10.0138521  25.0309253  40.6849051
  16.0419691  28.2305598   3.8114852  15.4915261  28.2886171   3.0305412
  16.7974460  28.7840676   3.6137086  14.3502605  12.3940384  54.1660738
  14.2107069  11.5599310  54.6144295  13.5515451  12.5283062  53.6559200
  19.0111268  44.1431046  38.1255722  19.7301972  44.1130924  37.4944854
  18.3709812  44.7355413  37.7312851  41.0333014   0.6527639  25.4311442
  40.0826168   0.5478383  25.4688430  41.2204790   0.8092239  24.5055532
  29.5926404  53.0002975  30.8423948  29.4732189  52.0821905  30.5993843
  28.7196469  53.2948780  31.1018872  49.4564342   4.9401471  63.5639000
  48.9191914   5.6247753  63.9625072  49.5596886   5.2164841  62.6532888
  26.5938950  25.5368996  27.2544909  25.9542727  25.4641962  27.9628897
  26.1219049  25.9814024  26.5503097  34.0048265  27.8099728  62.3826313
  34.9203539  27.6033449  62.1946192  33.5058022  27.2465301  61.7912436
  25.5034995  44.0045500  34.6102858  25.5865479  44.0835714  33.6599731
  24.7606921  43.4144068  34.7375464  34.3587899  26.5681720   0.2133023
  34.4144630  27.4911022   0.4609488  34.1487002  26.1135578   1.0290353
  40.8523798  34.0233541  29.8721886  41.7483425  33.7056780  29.7600985
  40.6673765  33.8949943  30.8025289  37.8413010  36.3703299  16.0087729
  37.0591712  36.0327649  15.5722439  37.6787591  36.2215233  16.9402599
  77.9679188  10.9448469  35.4821515  77.0128527  10.9847915  35.4323101
  78.2375696  11.8496144  35.6400037  64.1077232   2.5397426  23.1585383
  63.8874865   3.2052368  23.8103390  64.9031734   2.8686106  22.7398014
  30.8974051  11.0568798  16.3816905  31.8283486  10.9652233  16.5846133
  30.7648134  10.5050147  15.6109154  11.6860587  60.3726621  15.1025677
  12.2145898  59.7284884  15.5736625  11.1252028  59.8495431  14.5298374
  16.2015271  24.5995092  32.1658444  15.4553306  24.0252495  31.9936562
  16.0905337  25.3266311  31.5533042   5.9275407   3.2272515  12.7131021
   5.7793522   3.9556605  12.1100330   5.2462167   3.3246672  13.3783376
  68.8753144  44.4114202  67.3519586  69.0792910  43.5093322  67.1052547
  68.3235804  44.3281117  68.1297006  17.4509621  18.4149766   4.2025134
  17.9022253  19.1701984   3.8253739  16.5227258  18.6447310   4.1598153
  31.7848015  40.1123667  33.8621664  31.6193867  39.8927498  34.7790289
  30.9174967  40.2899265  33.4981751  18.5907078  18.9464068  43.0503893
  19.5088124  19.0163410  42.7888107  18.1674349  19.7022855  42.6433039
  71.2247911   9.4505453  21.9193983  71.4315119   9.7398752  22.8080964
  71.2750509  10.2467752  21.3905072  39.2188883  30.0756240   7.9297328
  39.2535353  29.9338126   6.9837302  38.2956219  30.2504659   8.1120563
  32.6608706  32.7606392  28.8668633  32.9942060  31.8948531  28.6312127
  32.3310423  32.6555562  29.7592759  68.1459787  15.2405953  36.3521647
  67.3612800  14.7198057  36.5232158  68.3024326  15.7135344  37.1695280
  51.5634251  27.6844501  23.1812072  52.4786425  27.9467416  23.0821347
  51.5971041  26.8992805  23.7276554   7.8859145  80.9765881  13.7461972
   8.1611855  81.8658875  13.9689195   8.4255678  80.7407267  12.9916275
  34.6073103  14.7340000  21.9665623  34.3656850  13.9305305  21.5058160
  34.7127509  14.4644272  22.8789473   4.5013935  79.4291021  25.2767181
   5.2759559  79.4997485  24.7187805   4.8129327  78.9816646  26.0634685
  42.0210695  35.2071214  16.8000197  41.9637108  34.3904614  16.3040268
  41.7066622  35.8780098  16.1939764  10.2420545  11.4724076   8.4053200
   9.4000083  11.8401313   8.6735934  10.4334176  11.8971777   7.5691491
  52.7522135  36.0755610   4.6772394  53.0414295  36.6072536   5.4187840
  52.7543020  35.1782894   5.0106078  37.1844673   9.4988352   9.3988806
  36.8862557   9.1536587  10.2403998  38.1051755   9.7177041   9.5424938
  84.3908057  81.7040516  43.3391714  84.5156846  80.7747441  43.5315895
  83.4508714  81.7916515  43.1807899  39.5083642  23.1220770  56.6638374
  40.3286839  23.5348153  56.3937378  39.5367980  22.2510409  56.2679625
  27.5875354   2.1751302  31.6305280  27.7359295   3.0459529  31.2619114
  27.2153902   2.3418505  32.4965215  39.1620636  48.0253744   6.6506612
  38.3763170  47.7707624   6.1669177  38.8941407  48.0070591   7.5694180
  52.5661204  75.3555967  19.3328452  52.3414353  75.5386640  18.4205759
  51.9330982  74.6919591  19.6068883  38.2383180  63.6174345  18.4073400
  39.1283703  63.9521980  18.2979274  37.7906132  64.2904758  18.9199889
  39.3894625  29.5209193   5.2276039  38.8385749  29.3749976   4.4585389
  40.2488279  29.7414184   4.8682982  48.0721717  64.4113763  18.9391075
  47.6322132  64.7306712  18.1512485  47.9649430  63.4608229  18.9047466
  66.5696582  80.6745685  31.7553163  67.1561089  81.2486268  31.2626052
  66.3607797  81.1688900  32.5479364  31.8049335  38.2936764  36.1502385
  32.0827818  37.4258351  36.4432979  30.9013462  38.3718944  36.4562511
  34.3761158  24.2600369  31.6558456  34.5453620  23.8660455  30.8000660
  34.9594092  23.7930393  32.2541022  22.7749825  25.2948356  36.7836022
  23.7306428  25.3331518  36.7451620  22.5841284  24.4258165  37.1366072
  43.4517336  16.3011754  43.2907629  42.9582787  15.5692279  42.9206467
  43.6557674  16.8571103  42.5387383  15.8482516  19.3693960  53.3867598
  16.2376451  19.1705203  52.5352573  15.2623534  20.1067853  53.2158470
  16.4768207  23.5664296  61.8568945  16.1703873  23.2656527  61.0014009
  17.3953962  23.2992768  61.8897772   5.4357624  13.8785434  57.0934486
   5.5070829  14.4476974  57.8597450   6.1529148  14.1543984  56.5226364
  35.1786590  35.1652741  30.3983688  35.1354790  34.6940637  29.5663071
  35.8479595  34.7016859  30.9017086  33.8754106  29.3564129  22.9986358
  34.7956920  29.5633721  22.8358984  33.4359312  29.5521784  22.1711302
  36.0437441  71.7099619  23.9962101  35.7715821  71.6973162  24.9138165
  35.2584124  71.9743824  23.5170794  29.9916697  38.9206266  26.2084198
  30.3880095  38.0844879  25.9634352  30.0624299  39.4592667  25.4203248
  27.6602752  78.9979438  44.3641090  27.6179130  79.8977677  44.0404510
  27.1993501  79.0230722  45.2026463  37.8081536  28.2597613  23.5408354
  37.4906659  29.1607213  23.6017013  37.2047186  27.8337836  22.9320312
  85.6639216   4.1255271  30.5780959  86.0215069   3.2467625  30.4510641
  85.5290871   4.1949287  31.5232062   0.9423385  45.5045128  49.3748331
   0.0641894  45.4540873  49.7523785   1.5275505  45.5282784  50.1319265
  29.4680572  19.2320788  66.9191885  29.9487162  18.4747136  66.5851259
  28.5703301  19.0993416  66.6147232  14.7891045  16.5545034  30.5609608
  15.4315305  16.8916678  31.1853337  15.1215100  16.8257356  29.7052908
   3.7351844  25.5104733   6.5815341   4.3294156  25.0819039   7.1975297
   4.0905380  25.2977657   5.7185680  42.3535061   4.2353511   5.4284906
  41.7177963   3.9934739   6.1019868  42.7788544   5.0211418   5.7717764
   3.0770627   6.8420988  45.9938574   2.2968027   6.5767187  46.4806843
   2.7370870   7.2060388  45.1764250  86.6820225  61.4919395  47.9888105
  86.7601237  60.6299896  47.5799417  85.8310971  61.4730759  48.4267569
  74.9594355   7.2671032  39.1924191  75.0808191   6.6676563  38.4561038
  75.2514124   6.7700559  39.9565673  28.0258298  19.5827210   1.8776157
  27.4989820  18.7865210   1.8088619  28.8474298  19.3650258   1.4373724
   3.9329600  21.5982509  12.7177680   4.6305451  21.0426331  13.0654705
   3.6791354  22.1535325  13.4549713  17.4538517  24.6022296   7.4284285
  17.1362591  25.3905201   6.9880134  17.8789258  24.0959072   6.7361987
  22.8644252  24.1412234   3.9599863  23.5862589  23.5710335   4.2246914
  23.1775427  24.5699239   3.1634900  30.5281115  50.5480194  21.8192434
  31.2175035  50.1325798  22.3372960  30.9378099  50.7233715  20.9721136
  25.4206204  42.3533869  38.1667781  25.0079560  43.1746244  38.4341884
  26.1652088  42.6233912  37.6292729  15.5375588  27.9055214  21.9843340
  15.8404779  28.2938051  21.1635375  16.1147726  27.1543288  22.1213174
   2.4571194  53.8034927  60.0290014   1.7191948  53.2421648  59.7910787
   2.0531382  54.6269142  60.3028728  18.4287698  62.9563744  49.3033457
  18.7186343  63.1164582  50.2014494  18.8207108  63.6664457  48.7950039
  60.2270079  35.5816555  21.4319849  60.6953716  35.6218791  22.2658014
  59.8173571  34.7165513  21.4288688  45.2625036  20.6627011   4.8554847
  44.7377872  20.6809354   5.6558424  45.2713108  21.5711784   4.5541137
  36.5907598  24.1042304  47.9456329  35.8795714  24.2468119  48.5702229
  36.3368273  23.3133411  47.4699831  35.6830287  26.3450313  16.9764388
  35.4144382  26.7369413  17.8074002  34.9022388  25.8881187  16.6636622
  79.8182734  41.8521357   3.0032367  79.8884126  41.0246038   3.4791628
  79.3739554  42.4418449   3.6123794  15.5553782   9.0474880  26.3365436
  15.2425504   9.3778342  27.1787095  16.2288857   9.6728951  26.0691738
  40.4764938  65.7535839  42.2514248  40.0205946  65.0386524  42.6955652
  41.2214088  65.3326559  41.8222952  48.1343889  19.5909190  61.6700554
  47.7327442  20.4581046  61.7239285  49.0061617  19.7527182  61.3094139
   3.9774889   8.2323492  39.5340776   4.7139096   8.6707598  39.1078019
   4.3843168   7.5759119  40.0995970   6.6080290  29.3202305  37.5672269
   7.3562914  28.9762640  38.0551028   5.9651232  29.5430779  38.2404613
  71.8094542   6.3756073  23.6030507  70.8696690   6.5172547  23.4891510
  71.8697503   5.7010490  24.2794895   9.5980722  58.4389925  13.8885236
   9.6161902  57.6994133  13.2811284   9.5691532  58.0357170  14.7561443
  43.6878208  45.1851895  66.5741401  43.1840293  45.6663358  65.9176924
  44.5564977  45.5865538  66.5508996  25.5882835  24.2489624  62.8601551
  24.8512244  23.6491942  62.9752779  26.3308287  23.7952256  63.2588816
  11.3536441  47.7889967  18.6374414  11.6737437  46.9077253  18.4447646
  12.0323515  48.1745386  19.1914678  20.6048131   9.7799087  12.9735577
  21.1808419  10.1733971  12.3181283  20.1157308  10.5182266  13.3367622
  35.2717972  33.2636094  16.9654417  35.1977253  32.8787422  17.8387237
  34.6879125  32.7357578  16.4207566  46.6225719  17.2294474  62.5398922
  47.2695541  17.8593087  62.2222185  46.3311434  17.5876808  63.3783245
  21.9906068  13.9585745  26.8838763  22.6351619  14.3675339  27.4614000
  22.3525810  14.0690696  26.0046744  23.2398796  37.9779577  32.1900368
  22.3068690  37.9781318  32.4038720  23.3838201  38.8132381  31.7452693
  12.6161087  14.9074328  51.6991901  12.5695622  13.9668143  51.5280056
  12.3922896  14.9936008  52.6258564  13.8334751  19.6710169  32.3278427
  13.5875571  18.7462544  32.3039818  13.5709369  20.0108194  31.4723659
  31.1630917  31.9481230  24.4633389  31.5321565  32.1061492  23.5944009
  31.1099386  30.9948134  24.5312309  23.8557363   6.6134512  32.8875470
  23.9444113   5.9375495  32.2155905  23.3645105   6.1889392  33.5909081
  16.3433301  28.6096382  47.7561283  16.8978298  28.1492090  48.3860207
  16.0096705  27.9202557  47.1819687  76.1574039  80.6291857  11.9315279
  76.5615902  80.9584551  12.7343035  76.6716823  79.8543630  11.7048144
  11.1001813  56.7840147   8.4266609  11.5118015  57.5895119   8.1136495
  11.8079245  56.3054657   8.8583124  16.1385441  38.9526081  64.3814087
  15.3858972  38.3811545  64.5337152  15.7543409  39.7963095  64.1431093
  81.3959679  43.5794778  49.9798632  81.1482534  43.1510301  49.1605330
  81.9347057  42.9324122  50.4351616  52.9757643  10.1861608  58.3727646
  52.3188305  10.8523321  58.5749722  52.8709793  10.0232184  57.4353743
  48.0920029  10.3445053  12.6457715  48.0898476  11.2344909  12.2934186
  47.7410698  10.4367340  13.5315323  23.3591294  47.7167463  35.5229688
  23.6786723  48.5753727  35.2456784  23.2336235  47.8016710  36.4680958
  24.0579844  29.6348667  34.4411826  23.9981437  29.7768259  33.4964609
  23.2300973  29.2140722  34.6730661  18.3316553  27.3969007  31.9050622
  17.5708711  26.8912721  31.6190910  18.3247149  28.1755805  31.3484240
  15.6367731  27.7670813  17.1087742  16.0588777  27.8210187  17.9661834
  14.7768116  27.3871565  17.2886467  55.9647703  19.1357970  10.6829655
  56.1739683  18.2919872  11.0835326  55.2293158  18.9482856  10.0997162
   3.9313189  47.4811637  59.0290274   4.3401233  46.6614425  59.3068172
   3.3128468  47.6896816  59.7292008  85.7520852  74.0980436  22.6842022
  84.8257408  73.9162059  22.5259185  85.8829698  73.8873167  23.6086988
  69.9350986  78.2634462  41.3085651  70.7878933  78.0470054  40.9315681
  69.9746153  77.9221947  42.2019958   7.0951778  52.2781582  62.4671602
   6.2530500  52.5292439  62.0876789   7.2031672  51.3588400  62.2233868
  12.8672743  26.9645143  40.1536751  13.7987185  26.8427205  39.9698019
  12.8368223  27.7114439  40.7515049  30.0047708  27.8321075  44.9054766
  30.0096011  26.8834019  45.0326109  30.8220720  28.1313133  45.3038836
  12.2651839  18.7172282  20.3282619  11.8189061  17.8704476  20.3338027
  13.1805491  18.5043585  20.1465344  35.0482611  56.2739884  64.4792803
  35.9590296  56.1468184  64.7449138  34.8227344  57.1448373  64.8063745
  13.3957207  30.8306003  47.0979166  13.4843981  30.1956463  47.8086948
  13.8380575  31.6154504  47.4213076  79.7216352   8.5985774  37.4231195
  80.6782355   8.6221939  37.3988318  79.4975420   8.8801169  38.3101082
  24.3329597  15.9140706  16.4535320  24.8487329  15.1473391  16.2038660
  24.6823502  16.1701727  17.3070955  21.8119812  54.8755646  14.4719625
  22.2413731  54.3557215  13.7925398  22.3285151  54.7119331  15.2610445
  63.6766958   4.2499101  25.1872802  63.0881405   3.6088344  25.5858517
  64.0846586   4.6948382  25.9301376  24.3797643  55.9370012  19.5235193
  24.4273526  55.1645441  20.0867939  23.4545094  56.1821075  19.5308042
  50.8857791  61.8520987  62.1543952  51.6995327  61.5903842  62.5851430
  51.0273711  61.6471898  61.2301679   0.8576788  49.0592169  50.3690900
   0.0298323  48.7673759  50.7508387   1.2770714  48.2549959  50.0631990
  70.1221475  21.5895907  54.9548258  70.3083250  21.5717189  55.8935751
  70.0598118  20.6675641  54.7054150  53.1200472  62.9077613  66.8585317
  52.2173683  63.2261574  66.8636878  53.6427108  63.6652433  67.1217384
  21.7701125  36.4188051  44.6924114  22.3143125  36.5523338  43.9163637
  22.2648239  36.8242717  45.4045105  12.5245292  80.4460580  32.9970503
  11.8386132  80.9276429  33.4594607  12.2503144  80.4599058  32.0800734
  62.3207548   9.0436000  67.1579742  61.6156533   9.0420985  67.8053236
  62.1774223   8.2477194  66.6458559  25.1089852  39.1393511  25.7167850
  25.8384370  39.5980163  25.2999435  25.1336052  38.2591809  25.3413807
  13.8314581  38.8390493  33.7912607  14.3641853  39.4474077  34.3034458
  12.9474509  39.2041612  33.8294435  40.1637790  58.2382102  30.9960747
  40.2247438  57.9770775  31.9149470  40.4468236  57.4649425  30.5080414
  30.1272440  25.4214621  45.8837271  29.3176794  24.9217558  45.9892368
  30.8175397  24.7585416  45.8677292  31.1953473  35.7728744  12.9857600
  31.9959116  36.2798405  12.8504324  30.5256701  36.2464380  12.4923027
  12.9017401  27.3155403  26.1902881  13.4347892  28.0542779  26.4841533
  13.0905938  26.6188550  26.8189359  28.3331823   9.6095812  27.2616816
  28.4831405   9.4334251  26.3328576  28.1961155  10.5558360  27.3069191
  16.2625790  16.3622224  37.6016307  17.0509839  16.7474949  37.9840112
  15.6484151  17.0930994  37.5319672   6.7859560  59.5655584  31.6445112
   5.9983110  59.0564680  31.4529991   6.6658419  60.3833342  31.1617613
  84.3106168  29.6465135   3.2244796  84.7895470  30.3394222   2.7697992
  84.6534192  29.6650243   4.1179982  84.2528591  59.0917749  54.9608183
  84.1078314  59.8310347  55.5513239  85.1976547  58.9415140  54.9927282
  35.5791318  48.6043252   2.4181018  35.8946877  49.1051288   3.1703315
  36.3738417  48.3515676   1.9482265  22.9878163   2.3729236  32.0254707
  22.8994250   2.2585714  32.9716945  23.6697626   1.7509983  31.7717242
  26.3788754  79.2658986  36.5367556  26.8029363  79.3994178  37.3844433
  26.3477809  80.1384462  36.1444235  73.5908565  80.2618499  41.0709381
  73.5213027  80.7349555  41.9001341  72.8738854  79.6281595  41.0958719
  24.4063067  23.3208394  26.0550523  25.2935863  23.0309391  26.2670016
  24.1803169  22.8385282  25.2597308  42.1354580   9.6577352  53.4062529
  42.5656366  10.0853562  54.1467381  42.1286964   8.7287945  53.6370230
  45.5206823  45.5252504  17.8097928  44.9172831  44.9180031  17.3815513
  45.4056025  45.3575277  18.7451303  25.4699421  45.2113628  37.3638058
  25.5997467  45.0452375  36.4301133  26.2662029  45.6656170  37.6392245
  24.3726826  15.0261128  22.4948764  24.3471289  14.3522525  21.8155432
  24.5898867  15.8314562  22.0253277  82.1810442  12.8281963   0.4179116
  82.1136561  11.8747509   0.3666086  83.0615195  13.0236721   0.0973121
  67.1918791  38.2422035   3.1990610  66.9657367  37.8123517   2.3742471
  66.4663594  38.8450086   3.3617864  25.6757069  27.2616792  65.9825659
  26.2446809  27.8560257  65.4934359  26.2698555  26.6027021  66.3416862
  15.7808936  23.9941049   3.0446288  16.5421617  24.5138597   3.3026192
  15.3019738  23.8494110   3.8606745  37.8473258  19.5776200  45.7709742
  37.9808211  19.8891783  44.8757935  37.4785423  18.7004781  45.6668043
  61.6778663  64.7954495   9.9954504  61.6049984  64.2729099   9.1967791
  60.8258561  64.7017808  10.4215217  40.8415890  16.9069564  20.0138211
  40.4364014  17.4326253  19.3240905  40.3207302  17.0940650  20.7947969
  43.7593031  16.7025161  67.8811216  43.0070400  17.2904515  67.9493952
  43.8699341  16.5633440  66.9405794  24.3519115  36.6155672  28.9031363
  24.7579479  36.2621522  29.6946311  23.8959742  37.4034238  29.1991711
  51.6487997   8.0662088  36.1046743  51.8048113   8.1381350  35.1630139
  52.3741954   8.5456114  36.5049338  45.5854464  53.8165331  11.3289213
  46.1739397  53.3106899  11.8893039  46.0125256  54.6685934  11.2404346
  24.2383647  54.6112490  24.7326422  24.6619153  55.4695940  24.7237039
  24.9452710  53.9974022  24.9319077  17.4204099  24.9458957  14.3739927
  18.3294225  24.8981738  14.0779352  17.3169124  25.8449936  14.6856701
  16.7790592  41.7989397  18.5115790  16.2423468  41.0753775  18.1881177
  17.6787281  41.5340281  18.3201373  26.1693168  43.9876556   1.2532751
  25.2387547  43.9553976   1.4751902  26.4697623  44.8268986   1.6020428
  45.9541273  19.7682703  23.7920785  45.8381271  19.5968151  22.8575301
  46.5379381  20.5260658  23.8259029  20.1681161  25.9875655  24.2096758
  19.9215031  26.4742684  24.9961448  21.1118197  25.8533835  24.2971206
  12.0871449  29.7912812   2.8926459  11.9293225  29.1056132   2.2436589
  11.2164295  30.1318502   3.0978307  53.4472799  19.6713662  19.5412219
  52.6665545  19.7029424  20.0941253  54.0654802  19.1285312  20.0305009
  21.0964060  55.4754162  23.4021068  21.7250180  55.9345961  22.8451204
  21.6219211  55.1348209  24.1260290  15.2272081  18.5163128  20.2687454
  15.6652367  19.0462959  20.9346890  15.6327593  18.7845612  19.4442451
  39.2797852  31.5070963  34.1664886  39.5881414  31.4685416  35.0718403
  38.3292580  31.5921497  34.2406249  38.6561418  42.6806498  11.1593246
  38.0880237  43.3664703  10.8084357  38.7406325  42.8920364  12.0890605
  35.5324340   3.4116840  45.3558159  35.0320292   2.5957146  45.3605556
  36.3456893   3.1912747  44.9016523  32.2397828  12.7820361  31.2538958
  32.3997235  11.9038606  30.9082675  33.0532980  13.2575190  31.0855603
   3.9221585  31.4390063  32.6136541   4.7922492  31.4308476  33.0125380
   3.6306542  32.3472500  32.6933360  86.7451653   9.9228637  69.7971489
  87.2782931   9.2287938  70.1847975  86.0267958   9.4603459  69.3655780
  35.2041268  23.5775733  40.8321571  34.8868513  24.0075946  40.0380230
  34.8983240  22.6739359  40.7537079  37.7195406  44.3224287  40.5282259
  37.4860716  45.1557398  40.1191807  37.4731326  43.6609364  39.8817372
  20.2973080  31.9912815  32.5626373  20.8044243  31.5101409  33.2165265
  20.9471893  32.2851586  31.9242597  32.0246243  51.3860559  19.5316052
  32.7389884  51.8462038  19.0909481  32.3073173  50.4718637  19.5555341
  37.2876668  14.6625125  13.8196754  36.9340611  13.8101363  14.0739369
  36.5160465  15.2168024  13.7030745  63.8566637  22.6944971  11.2721765
  62.9994154  22.2780347  11.1832011  63.6635113  23.6302209  11.3300049
  35.5390096  39.5808363  29.8714805  34.6181941  39.3456984  29.9856782
  36.0150862  38.7639284  30.0206232   1.2415344  30.3777671  26.5823364
   0.4205032  30.2277160  26.1136961   1.8464205  29.7310448  26.2188840
  30.1233673  14.5271587  21.7850351  30.5297112  13.9824438  21.1109424
  30.8607721  14.9056649  22.2637844  30.7976222  59.4076252   2.0869856
  29.8492432  59.4939995   1.9902925  31.1592722  59.8972511   1.3482657
  42.7084208  48.4267473  17.7022219  42.0507002  47.7378988  17.6067293
  42.3753500  49.1510344  17.1724045  27.6034880  34.9864984  22.6364088
  27.2375178  34.7658682  23.4929252  27.8599501  34.1440248  22.2613096
  40.4759169  29.2849898  32.3112512  40.9586954  29.6998382  31.5963674
  40.0066996  30.0049305  32.7328563  49.7770929  17.6600111  19.7034192
  50.4713535  17.2732806  19.1698706  50.2274609  18.2985187  20.2563262
  51.3446132   0.0089185  69.0306026  52.1330610   0.5341069  68.8936414
  50.6218401   0.6166713  68.8741723  10.1905882  19.3869448  18.6149728
  10.9739327  19.3680894  19.1647434   9.6818650  20.1261425  18.9481711
  40.9852743  31.5641952  27.7576113  41.3347101  31.9455743  28.5630178
  40.4133034  30.8570457  28.0559683   3.3258213  75.9420573  59.1894295
   3.1621326  75.1773893  59.7414448   4.2041267  76.2318837  59.4360330
  38.7705874  54.4987249  28.2529807  38.5202193  54.5885897  29.1724753
  37.9733324  54.7075701  27.7661514  18.7151051  30.8664894  39.3249321
  18.3599102  31.7487073  39.4333625  18.3354616  30.3650832  40.0465250
  78.4505400  40.7617728  58.9007511  78.0079589  41.5082900  58.4969344
  78.1258592  40.7492129  59.8011150  72.3742458  11.0086171  67.5016366
  71.5904579  11.3870971  67.8999596  72.9008624  10.7121961  68.2439588
  55.0557891  78.4089601  70.7035239  54.4104878  79.0866673  70.5022008
  55.8278433  78.6543524  70.1936765   3.3072454   4.5574157  64.4658961
   3.5912950   5.4585902  64.3128421   3.3433372   4.1450564  63.6028262
  30.4152346  30.8794761  19.4432104  30.5883741  30.2453876  18.7473750
  30.6393647  31.7261147  19.0569448  41.8664694  43.7771130  13.0447721
  42.5499725  44.3783951  13.3405936  42.3327208  42.9666710  12.8397846
  18.9331651  32.1824503  36.9061303  19.1367829  31.4627838  37.5035000
  18.2938921  32.7139449  37.3805523  34.6642208  52.2777033  33.1066227
  33.8021779  52.3843098  33.5088015  34.4875407  51.8400192  32.2738886
  27.1966100  28.5431552   5.4960811  27.9273534  27.9589987   5.6985837
  27.5510335  29.1554809   4.8513544  32.9645061  41.0190153  21.8561339
  32.9895687  40.1755333  22.3079586  33.6784434  41.5219545  22.2480249
  13.4643102  48.9857292  19.9280167  14.2320728  48.4147930  19.8996186
  13.6079383  49.6155596  19.2216790  13.2791078  34.8636603  35.7747221
  13.2798123  35.3286719  36.6113806  13.2145107  33.9392447  36.0145450
   9.7859377  32.2716737  37.6974416  10.1465535  33.0580044  37.2877192
  10.5428326  31.8387413  38.0922985  25.4754216  74.4539036  11.5792322
  25.4865558  74.1967173  12.5011671  24.5592696  74.3646015  11.3167095
  12.7288270  45.1125050  11.5048754  12.7011955  45.2064705  10.5526996
  13.0212772  44.2124367  11.6483438  38.2469368  33.5435247  28.4102845
  37.3784184  33.8554287  28.6644983  38.8420439  34.2405343  28.6864257
  10.8840823   1.4210856   5.0672472  10.8326793   1.9527194   5.8615738
  11.8166029   1.2298164   4.9669850  24.2135811  16.9488251  25.0365949
  24.9971414  17.2841835  24.6009374  23.9525342  16.1925268  24.5111442
  33.9273834   1.5258144  36.0495400  33.4910512   2.1872187  36.5865612
  34.6683908   1.2359926  36.5816498  66.0775140   2.2320239  41.0084237
  65.9128526   2.3457019  40.0723709  66.1630413   1.2856071  41.1233677
  43.0441999  30.2944517  21.9792414  43.3178759  29.7038651  22.6810527
  42.3402357  29.8248267  21.5318918  69.6999333   1.5396516  70.1829225
  69.7186169   2.4210422  70.5557937  69.7517178   0.9576861  70.9411219
   8.7234634   9.6740055   5.4935604   9.5091259   9.2082864   5.7800418
   8.9619988  10.5996406   5.5438864  13.3066327   9.7682111  64.7974499
  12.9431397   9.2810361  64.0580149  14.1644151   9.3708579  64.9476286
  40.7141352  32.8502131  32.2772408  41.2748861  32.1240687  32.0042849
  40.0011110  32.4334311  32.7611041  28.9027143  81.6080189   6.6019994
  28.0321765  81.8893623   6.3205016  29.2518783  81.1244678   5.8533359
  27.1116400  28.4851241  44.0112352  27.9393911  28.3179045  43.5605717
  27.0814681  27.8293490  44.7078562  36.9318492   2.7892892  65.8258166
  36.8218762   1.8602531  66.0283788  37.8799397   2.9158275  65.7891085
  37.2293067  15.8612990  21.4702010  36.4166856  15.5363202  21.8578458
  37.3726654  15.2996635  20.7084608  30.1032598   2.9362981  69.1444084
  30.6855542   2.9444997  69.9040775  30.4348952   3.6353557  68.5808723
  31.7515452  57.3126578  66.1481138  32.0093797  56.5194463  65.6784667
  30.8076919  57.3802781  66.0038890  79.5383158  13.2072151  35.8486414
  79.2406109  13.9487469  35.3216362  80.4436793  13.4214628  36.0736895
  31.2823987   1.1588322  28.9714456  30.3361487   1.1999273  28.8330436
  31.6001725   0.5756368  28.2821441  38.4126472  39.4777155  36.5457034
  38.1004047  40.3690100  36.7016912  38.7090659  39.4836211  35.6355739
  41.3459396  30.9451151  12.4317932  42.2537756  31.0087609  12.7284718
  40.8381653  30.8371234  13.2359910  19.9655557  20.8093810  40.0683975
  19.6577871  20.5704045  39.1940975  19.6785176  21.7151737  40.1840782
   7.0189846  50.3837442  25.5789995   6.5631437  49.5425940  25.6090569
   7.9357576  50.1540613  25.4273319  42.4358050  63.3092081  65.6495203
  41.9442014  62.6084649  66.0779076  43.1334964  62.8569710  65.1752414
  41.3065624  24.3954897   6.5749174  40.4792547  24.3056560   7.0479143
  41.1546373  23.9521480   5.7402921  68.7758725   4.2976217  36.1310363
  69.6999496   4.0678530  36.2286186  68.7584656   4.9147444  35.3995419
  42.9448462  14.2717469   3.0230975  42.5703144  14.1927612   3.9004344
  42.2506475  13.9682519   2.4381098  41.2597418  78.6144829  47.4685812
  41.3929510  79.5021439  47.1360970  40.8513641  78.1450462  46.7411995
  72.4934196  65.3776979  47.4781609  73.2167435  66.0044861  47.4912977
  71.7443609  65.8829784  47.1621895  80.8249474  67.9976320  15.5501020
  80.0020599  68.4071350  15.2828777  81.0948849  67.4836111  14.7890842
  16.1979210  51.8095970  15.6997740  16.6538596  50.9848976  15.5317712
  16.5738988  52.4238920  15.0692856  74.6182356   4.6826856  49.8669471
  74.5551798   5.6060330  50.1112594  74.5493374   4.2101829  50.6965412
  49.8493671  76.5182447  34.7257543  49.3857908  77.0838881  34.1081977
  49.3044758  76.5255165  35.5126905  55.2214050  50.6049824  16.2045133
  54.4482470  51.1303425  15.9984601  55.6489325  50.4663038  15.3593969
  66.5862036  52.7559996  36.4527464  66.3713789  52.4178028  35.5834317
  67.0750856  52.0474577  36.8713069  59.6856451  60.7165432  37.3675990
  60.1532125  60.0429869  36.8737054  59.2768908  61.2644672  36.6975784
  36.5791130  61.7870378  11.3619161  36.6682744  62.5685596  10.8164728
  37.0031214  61.0930204  10.8571494  45.0125837  48.1354189  18.9585316
  45.1429129  47.2046089  18.7773097  44.2490625  48.3769035  18.4341693
  67.6144331   8.0910997   8.1896806  67.8250711   8.5105829   7.3554778
  67.8672903   8.7344007   8.8518435  33.2893968  63.5100460  21.7492151
  34.1091275  63.5446835  22.2422385  33.3778095  62.7371454  21.1915064
  36.3852620  66.9852781  27.1260571  36.2772703  66.5647745  27.9791379
  35.9918976  67.8511715  27.2343349  60.2147818  43.0921507  19.3307626
  60.6989145  43.6659288  18.7369359  59.2941856  43.2787895  19.1466343
  70.6762218  75.3043175   8.5405982  70.1660919  74.9177217   9.2523164
  70.8008528  74.5876026   7.9184932  39.9910069  71.7122030   3.8891229
  39.1130304  71.3737345   3.7135392  39.8511672  72.6286411   4.1274929
  47.5706100  60.8899975  28.4352756  47.7892160  61.6640759  28.9541602
  46.6204023  60.8077860  28.5164070  72.3832648   3.0055456  62.4390507
  72.9854577   2.3568945  62.8035307  72.6898282   3.1396704  61.5422440
  44.6165323  38.6528993  12.5790739  44.7126579  37.8323460  13.0624819
  44.2993832  38.3867216  11.7160571  43.9481640  50.8615351  29.6540308
  43.9009428  50.2540350  28.9158273  44.7901440  51.3039923  29.5466185
  42.2760534  79.1339159  25.2124619  42.7035284  79.8222637  24.7028828
  42.9981709  78.6384058  25.5987906  42.0796824  52.6328564  20.6936073
  42.2305393  51.7938662  21.1289978  42.1006918  53.2771063  21.4012313
  64.3783712  53.9623165  14.3913448  65.0043535  53.8770771  13.6722422
  64.7642040  53.4558296  15.1060712   3.1875703  51.1125326  54.9956179
   2.7536676  51.8638802  54.5913458   2.8122709  51.0637236  55.8748198
   2.7874651   0.5751448  24.9161053   3.6052409   0.6182890  24.4205165
   2.8326979   1.3180284  25.5180216  66.2935162  59.0353012  41.9576216
  66.0498333  59.4737720  41.1423969  67.1204138  58.5972881  41.7560863
  67.6442385  79.8522854  51.3001871  67.6942968  80.7692909  51.0303354
  67.4033451  79.8878384  52.2258949  73.6407512   2.3139029  16.0800195
  73.3025878   1.4384584  16.2683952  73.5946887   2.7739267  16.9181645
  13.3038607   4.3625383  37.6519847  13.0635014   5.1155405  37.1121335
  12.6973954   3.6722307  37.3838115  58.9776945  48.7162113   1.1589915
  58.0531359  48.4819174   1.0781804  59.4166231  47.8911972   1.3661817
  32.7998581  -0.0566072  23.0406690  32.0335999   0.0288229  22.4734020
  32.7381077   0.6870108  23.6402106  78.1067514  53.2427692  52.8647995
  77.8322649  53.0828905  53.7677526  78.9769650  52.8484869  52.8056192
  19.9473092  70.8357000  41.4288855  20.8851049  70.6656504  41.5174580
  19.7606656  70.6729984  40.5042648  69.9127340  52.6239777  27.8505111
  70.1345444  53.4576559  27.4357653  69.3617201  52.1762085  27.2085452
  45.7299280  77.2344160   2.6840341  46.5022850  77.7735615   2.8543818
  45.8442831  76.9297886   1.7838357  73.0156422  63.1051683  57.0903683
  73.1537867  63.4920835  56.2258196  73.2044077  62.1746159  56.9692564
  53.0286360  71.7662096  48.1409454  52.3202848  71.1752701  47.8854895
  53.4941912  71.2968588  48.8331890  57.4638891  57.7665520  22.8278208
  57.4711800  57.5933266  21.8864536  58.3850193  57.7290535  23.0853939
  82.9673592  80.0171506  46.6913380  82.1775834  79.9978792  46.1508669
  82.8921763  80.8267009  47.1965184  27.7815380   1.9841795  35.1337695
  28.6895600   2.0433836  34.8367381  27.3181572   2.6464777  34.6210623
  59.2608356  80.3905582  56.3676405  58.9272642  80.0164700  57.1831274
  60.1479197  80.0397778  56.2884521   8.2047713  54.0263891  11.5534818
   7.5422263  54.5257521  11.0760939   7.7983063  53.1731892  11.7053568
  53.8461065  52.9702997  12.8506684  53.3326578  52.4259186  13.4475362
  54.7232199  52.5876236  12.8720701  82.3198318  70.7163000  39.0635967
  81.4617729  70.3192997  38.9140582  82.9434490  70.0723124  38.7280226
  18.7594691  22.0855455  23.0648446  18.6266413  22.6996355  23.7869811
  19.7050228  21.9377546  23.0469728   9.2233172  13.2427721  14.8107827
   9.3684140  13.7407427  15.6152678   8.3896771  13.5704737  14.4733083
  80.9245650  73.1829178  46.5230169  81.3243119  73.3670675  47.3730292
  80.0107161  73.4486401  46.6255035  55.9395170  58.4605455  33.1077838
  55.6887674  58.0421257  32.2842050  55.8632231  57.7661514  33.7621713
  53.5063601  80.5283737  36.2752748  53.4930420  81.4517498  36.0234070
  53.5698795  80.0547791  35.4458785   3.5978928   1.9362001  11.2057912
   4.0440598   2.2782164  11.9805110   3.1853524   1.1259871  11.5051341
  57.9709387  19.5939136  17.0072103  58.8369036  19.2114615  17.1488512
  57.3662663  18.8572657  17.0963943  68.8763762  60.5342150  44.7708130
  69.5686293  60.5217314  45.4317665  69.2946100  60.1949024  43.9795017
  61.8734455  51.2072086  32.2124529  62.6176071  51.3416433  32.7992940
  61.4489460  50.4149246  32.5415778  67.2966290  57.4736023  19.6718180
  66.3546562  57.4428511  19.5045722  67.5875282  58.2847309  19.2550683
   5.4210183  69.3283224  21.8520546   5.9300229  68.5769129  22.1562529
   5.1040265  69.7434330  22.6541948  71.6482585   1.6240435  34.2080855
  72.2531598   1.5119867  33.4747601  71.8088239   0.8652906  34.7691083
  74.2625325  26.0036879  19.3241978  73.8486093  25.3451376  18.7663317
  73.5384267  26.3889341  19.8176479  75.3382015  56.8629217  15.2764571
  74.5462275  56.5962410  15.7432413  75.8062172  57.4205399  15.8979511
  29.1761246  22.9209356  54.3324280  29.0979424  22.7904062  55.2774620
  30.0527706  23.2861834  54.2127991  74.5515299  66.7443848  37.0907688
  73.7822628  66.4029646  36.6348124  74.3805647  67.6819611  37.1799636
  55.5373096  72.7312374  37.2759581  55.9639120  73.5652065  37.4727750
  55.6335545  72.2178078  38.0780554  20.5104548  55.3914420  68.5668214
  20.8408792  56.0905902  69.1309528  20.0448949  55.8486430  67.8664963
  53.8069480   0.8568411   8.2749099  54.4528621   1.4066915   8.7184101
  53.7101620   0.0939112   8.8448185  78.5149997  28.5508280  13.8638151
  78.5306161  27.9492979  13.1194031  77.5853913  28.6596041  14.0643919
  28.6785736   3.2260160  16.7957747  28.5126725   3.2422571  17.7383471
  28.7279358   2.2954016  16.5772641  63.7018538  64.1189814  29.5126700
  64.5478439  64.3467808  29.8982072  63.5450363  64.8007154  28.8593149
  41.1728859  51.8497229  10.9875584  41.6234255  52.6933289  10.9478712
  40.5181694  51.9600582  11.6770566  82.7393436  62.2583675  53.6322498
  83.1052208  61.8378496  54.4104052  82.4800301  63.1301165  53.9306545
  77.9392195  64.5887613  55.0509501  77.3680830  63.9955997  55.5389929
  77.4251795  64.8384047  54.2830467   2.6630869  29.1536074  38.0003715
   2.7633086  28.2973700  37.5843692   2.2514048  28.9635973  38.8433719
  20.0591562  78.0965710   6.5123177  19.3919847  77.5910139   6.0480654
  19.7397039  78.9984226   6.4831293  46.8366582   4.0862481  60.4741539
  46.7203147   4.3852441  61.3759823  46.0183150   4.3208949  60.0365641
   3.8757522  55.7787292  61.6450389   3.6675794  55.7696883  62.5792839
   3.1818730  56.3067691  61.2501391  86.8155384  75.1964426  10.8945692
  85.8960247  74.9377441  10.8329690  86.7884064  76.1167097  11.1564934
  49.4481945  68.6472940  21.6189575  49.6132755  67.7359438  21.3772631
  48.5570192  68.6447859  21.9682837  37.6768970  68.1801176  31.5219307
  37.3608947  67.3993778  31.9767070  38.1621408  67.8395987  30.7703900
  55.3438282  72.9846907  18.1643426  54.6040487  72.5677013  18.6060202
  55.3421497  72.6062155  17.2851467  67.2197056  57.3897505  36.7518115
  66.3067770  57.6564789  36.8597364  67.2409773  56.4813089  37.0526648
  25.5756450  60.0712872   3.8465425  25.1440072  59.8635149   4.6752465
  26.4379406  59.6616411   3.9163220  83.4261990  57.3953533  20.9585142
  82.8227425  57.7853394  20.3260732  84.0679741  58.0837345  21.1331320
  86.5144151  10.8827810  52.4841309  86.5919631  11.7985086  52.2164488
  85.8414548  10.8883791  53.1648111   3.1055918   2.6678305  26.6156769
   3.9129439   2.3453169  27.0161796   3.1339207   3.6152678  26.7490649
  51.6485929  74.2804956  32.5254917  51.1903524  73.6843300  31.9331789
  52.5704098  74.1998339  32.2805858  70.2645540  34.6329355  17.7648652
  70.4944563  33.9813709  17.1024132  70.1878071  34.1320658  18.5769439
  26.0998001   6.1556845  45.2285576  26.9887486   6.4791136  45.3748131
  26.1837330   5.5487089  44.4931889  36.2198663  44.3130732  16.5678251
  37.1604776  44.3445492  16.7424345  35.8128023  44.4941807  17.4150157
  77.2243261  73.9451504  52.7669907  77.8256321  73.4313107  52.2278881
  77.6988697  74.0873432  53.5860300  70.9566730  13.6469870  60.9177971
  71.3865130  12.9372911  60.4405260  71.6652387  14.2524176  61.1360264
  36.1750340  77.5916529   5.6431395  35.5898428  77.6609468   6.3974488
  35.7829213  76.9098043   5.0976467  74.4742537  70.8259916  70.0123167
  74.7223091  70.7913589  70.9361696  75.2815628  71.0637760  69.5563078
  75.6926107  17.9381585   7.3689896  75.3968763  17.1021187   7.0086986
  75.9459877  17.7347434   8.2693529   8.3505907  10.2378969  46.7418671
   9.0123978  10.8894186  46.5099955   8.6361161   9.4385271  46.2994766
  84.0443611  75.0043726  40.7965946  83.8017273  74.1062546  41.0218477
  84.3113327  74.9572754  39.8785853  22.2951579  70.7493639  13.2260466
  22.5077748  71.3549757  13.9361596  22.8922391  70.0121021  13.3531904
   5.2336881  49.7851467   8.8502449   5.0424287  49.3949080   7.9973894
   4.3922517  50.1286697   9.1505802  17.2904789  50.4414225  18.2196188
  18.0492568  51.0225582  18.1669605  16.5803099  50.9372568  17.8121364
  86.5019458  15.0562887  59.0555000  86.4098781  15.9597998  59.3578720
  85.6032174  14.7344046  58.9854670  78.4646177  69.7714520   3.6789671
  78.7462902  69.1258764   4.3271357  78.4573650  69.2917824   2.8506589
   6.5699479  63.8202667  35.2349997   6.0558412  64.3853617  34.6583009
   6.6344163  64.3099642  36.0549212  74.9213266  76.7186403  66.0065985
  74.2863560  76.7140055  66.7228556  75.6952572  76.2881374  66.3698244
  27.1838608  12.6825075  17.9847944  27.3020497  11.8287592  17.5684106
  27.9781285  13.1688147  17.7637267  77.5095177  71.8089199  38.7510586
  76.8716192  72.4365377  39.0907884  77.0378971  70.9762621  38.7289310
  46.7283869  68.8308191  22.5585675  46.3135433  67.9971933  22.3367500
  46.5031004  68.9733219  23.4779000   9.7922291  74.7413647  56.3559713
   9.1642727  74.0430581  56.5410973  10.1708473  74.9552619  57.2086884
  86.8752480  68.7868500  45.6785059  86.9998074  69.4874001  46.3187742
  85.9856033  68.4717941  45.8382273  70.1371282  12.7225428  10.1703107
  69.9821990  12.2719889  11.0005093  71.0576289  12.9824667  10.2070034
  39.4365263  76.5645027  56.9179583  38.7193847  76.7693853  57.5179243
  39.5393848  77.3554087  56.3886976  39.7599649  76.0174179  13.2050347
  38.9503789  75.8956432  12.7090788  39.4919157  75.9498358  14.1214478
  84.5050233  15.3320913  42.1241570  84.5226329  15.0402575  43.0356169
  84.4822782  16.2874536  42.1789598  55.8177853  60.1173449  20.9725952
  56.2577438  59.2676592  20.9460092  54.8951197  59.9050093  21.1134148
  35.0273736  28.0000556   4.4228206  35.8470281  28.3240760   4.0494428
  34.4020017  28.0407536   3.6993013  69.0464640  49.3159246  23.4074330
  69.3882275  49.6643353  22.5840020  69.6162605  49.6888161  24.0801263
  55.9641974   6.5862207  31.9994378  56.4166420   5.9382944  31.4593220
  56.5660494   6.7562704  32.7240682  42.4832773  64.9254847  15.8367026
  42.9669094  64.3232536  16.4020801  42.1173429  64.3677950  15.1501858
  61.3993216  68.1380749   5.5586439  61.8039370  68.1709528   6.4254993
  61.7061138  67.3131847   5.1822567  50.9788942  47.4623299   6.7724520
  50.7532930  48.3694363   6.5662992  50.1347589  47.0200253   6.8620896
  78.7131112   8.8931971  16.3496017  78.6766093   9.8053102  16.0615957
  79.6377652   8.7402945  16.5441871  44.5905247   6.6800814  40.7067490
  44.8715725   6.4737158  41.5981817  43.7666264   6.2048082  40.5992937
   1.5010443  15.0514917  40.9433651   1.2651720  15.7584410  40.3426838
   2.2937193  15.3629141  41.3802958  68.0309343  79.1315937  10.8895278
  68.9620018  79.3029499  11.0308862  67.5835848  79.8292780  11.3684309
  42.4658442  58.6023951  21.6481400  42.7042198  59.0339279  22.4686193
  42.4703646  57.6686144  21.8585253  86.1675167  77.2444153  53.5320997
  86.6646290  78.0618000  53.5004425  86.7025089  76.6593456  54.0684843
  74.3355608  80.6945992  66.7677498  75.0709963  80.8459187  66.1740589
  74.7402382  80.3720474  67.5729990   5.9884110  13.8303213  46.6789293
   6.9375649  13.9476995  46.6394901   5.8707943  12.9289656  46.9788361
  50.4771900  60.0575829  24.1200423  51.3473940  59.9168062  24.4930816
  50.0375462  60.6313133  24.7475624  14.1324794  41.9788122   3.0103737
  14.2372060  41.4141035   3.7761211  13.8291895  42.8133392   3.3678868
  10.2123639  56.7946053   5.7582575  10.3225133  56.6192627   6.6927922
  10.6293866  57.6455784   5.6234503  34.6628666  60.2052593   8.7221873
  35.1318002  59.4373560   9.0487671  34.5109773  60.0171757   7.7960211
   8.3956621  57.5595808  33.3692026   7.9348562  58.2690811  32.9214311
   8.6551854  56.9622803  32.6676941  66.9324350  36.1641836  48.3146334
  66.5126419  35.5358076  47.7271414  66.5447140  37.0073295  48.0801010
  36.0181236  61.9305372  38.9645195  36.5747905  62.0122433  39.7389102
  35.2187419  62.4048758  39.1930509  68.7537146  61.1326599  49.3800735
  68.7912607  61.3172483  50.3185558  69.0135574  60.2143860  49.3059969
  83.8317960  14.9655657  44.8513746  84.3775170  15.0748949  45.6301355
  83.2490819  14.2375879  45.0675201  72.4042702  73.7376833  34.8852015
  73.3390665  73.5432577  34.9529624  72.1318054  73.3217812  34.0672636
  57.7376270  78.9043999  50.0318623  56.8046999  78.9870548  49.8342466
  57.8579283  79.4101667  50.8355761  43.6981392  76.0949898  46.7049885
  44.0180397  76.8739557  46.2498951  42.8760624  75.8806419  46.2639952
  63.7603903  41.3473701   5.5090106  62.9221964  41.1603689   5.9317350
  64.4156933  40.9879780   6.1070418  85.5758190  70.3744984  24.7768927
  84.9259567  69.9021626  25.2972960  85.1910400  70.4252243  23.9019012
  60.4741001  53.0760860  30.6135416  61.0864449  52.4517965  31.0028076
  59.9773788  53.4192562  31.3563275  45.2195358  44.3508625   8.5400963
  45.7063818  43.6936998   8.0427587  44.9473476  44.9937057   7.8851932
  33.3830395   3.4510069  51.7130423  34.2448845   3.0388861  51.6530561
  33.3117524   3.9744215  50.9147978  52.7877045  74.9526262  39.5653367
  52.4812937  74.7549725  38.6803079  52.1451521  75.5738020  39.9081159
  73.8974660   4.8057680  29.4380140  72.9935067   5.1063089  29.5316601
  74.3093818   5.0211649  30.2747703  51.2368155  69.2239857  17.6243043
  52.0316744  68.7059832  17.7511990  50.5314350  68.5775137  17.5970674
  78.1606524   6.2852316  17.2411966  78.7327521   6.3982992  18.0002415
  78.1305497   7.1504908  16.8329597  70.8557940  64.6760416  54.5803738
  71.0296774  63.9398432  53.9938450  71.3050270  65.4172325  54.1740990
  71.4898825  76.5364742  18.0453527  72.1291113  75.8267403  17.9829252
  71.9250154  77.2869873  17.6408601  47.3761559  50.1942396  30.2930999
  46.8728781  50.8026743  29.7520328  46.7161751  49.7270203  30.8053136
  13.1208649  14.8652964  18.0704796  13.4511843  14.5793657  17.2187960
  12.3954478  15.4535513  17.8608251  60.5571556  39.6925998  57.5928402
  60.8794975  38.8248897  57.3491049  59.7082520  39.5263410  58.0026627
  65.0135844   9.3449526  50.7670021  64.6197837  10.1842432  50.5287743
  65.2817863   8.9607172  49.9323368   3.3247945  58.9441967  19.1241682
   3.5543740  59.8196030  19.4359195   3.7260488  58.8858604  18.2570899
  75.7195085   9.5908480  11.8152487  75.6115096   9.7769384  12.7479529
  76.6390460   9.3404512  11.7258823  59.5259493   2.9815321  21.5821290
  59.7827404   2.6102285  20.7380772  58.7578886   3.5174398  21.3843322
  65.2456372   9.9226408  64.1065693  65.4492252  10.8508425  64.2215824
  64.7995179   9.8782854  63.2608509  -0.0765612  51.1117363  30.9137034
  -0.2364352  50.1741791  31.0216665   0.5772970  51.3215590  31.5805483
  41.4371300  72.0593357  12.9389930  41.4330244  71.2173700  13.3943081
  42.3603916  72.3099566  12.9072487  36.0834241  68.0648136  36.1953092
  36.4592719  68.1778193  35.3222704  35.1558590  68.2741880  36.0856915
  55.0741243  77.4426699  18.0534077  54.4280529  77.9546928  17.5669324
  54.7268438  77.4033689  18.9445221  83.6058426  77.6817083  41.9361305
  83.6613369  76.7261791  41.9255924  84.4958115  77.9711103  42.1371889
  78.4379721  16.2494016  59.0244150  77.5853014  15.9479010  59.3379211
  78.3588362  17.2028673  58.9948654  52.3425762  79.2339837  29.8435082
  53.0434839  78.9073574  30.4076685  52.7476899  79.3136131  28.9799275
   2.7711144   9.3642836  41.9924259   2.7455511   8.8043909  41.2164783
   2.3249665  10.1672296  41.7232132  65.6048012  52.6709700   8.3648205
  64.6512032  52.6091003   8.4200531  65.9091949  52.4761963   9.2511845
  18.8290174   9.0155665  61.0912873  19.7830445   8.9517610  61.0466124
  18.6504180   9.9556272  61.0664012  73.7453318  62.2701645  53.3176088
  74.5510674  62.3236132  52.8036356  73.0588675  62.1076584  52.6706266
  40.5396605  61.2194872  41.3685417  40.9142590  61.6185427  42.1538210
  40.9741974  61.6664648  40.6421661  20.4250397  76.9630181  63.1315752
  21.1622395  76.9101011  63.7398257  19.7757877  77.4980843  63.5880949
  39.0614390  55.7273769  13.0556381  38.9372373  56.2021542  13.8774574
  39.7798562  56.1861706  12.6201892  68.1015539  61.8824339  37.7471161
  67.5117874  61.6381264  37.0338678  68.9381170  62.0584488  37.3165226
  60.8091736  60.4224491  22.7884889  59.9672318  60.7623434  22.4854302
  60.7845688  60.5343294  23.7388110  83.6523914  79.4865179  50.2701616
  83.6896610  79.4694138  51.2264824  84.0711594  80.3127480  50.0288868
   3.1785486  60.3992748  32.5777149   2.8924749  60.8116674  31.7626500
   3.7177846  59.6603489  32.2958612  41.6515493  80.2548981   9.9737203
  42.2461891  79.6672106  10.4398298  41.0497713  80.5707169  10.6477749
  46.6774273  76.4704180  25.0436020  47.2296953  76.1760664  25.7678866
  45.8074188  76.1300850  25.2521396  62.6386929  65.5565882  41.2808990
  62.6027107  66.2093115  41.9801092  63.1712818  64.8479223  41.6419697
  26.4752204   0.6459825  58.8900091  27.2885425   0.2005307  59.1273083
  26.6885764   1.1229770  58.0880203  64.1568565  56.0161781  16.4411640
  63.7664509  56.5688324  15.7641220  64.2353058  55.1547050  16.0313511
  63.1034136  68.1729650  23.0953145  63.9943171  68.5033751  22.9797935
  63.1807661  67.5106144  23.7819982  52.7534580  48.9196491  23.0102253
  53.2324982  48.4636164  23.7021685  51.8404484  48.6646318  23.1429124
  68.0575180  49.9595499  52.9035282  68.5977316  50.4281378  53.5397863
  68.1104326  49.0427303  53.1734896  71.8258476  32.0035601  38.8596225
  71.4429951  31.8844271  39.7287965  72.6176023  32.5184965  39.0151834
  32.2609282  69.4188929  18.9666402  33.0706501  69.1176701  18.5545158
  31.5737462  68.8934898  18.5568070  80.4168606  63.4734678  32.6106334
  80.7228279  62.6159763  32.9061460  80.2200794  63.3505726  31.6819739
   2.3680487   9.0213518  50.7032251   2.1595373   8.6655836  51.5670395
   2.6375380   9.9237184  50.8745193  79.1572428  39.9068546  49.4609165
  79.1730404  39.2648959  50.1707554  78.5315514  40.5702639  49.7518349
  83.2681274  59.5550442  41.9514036  83.9403629  59.3992805  41.2880182
  83.5037994  58.9716816  42.6727772  67.2748995  43.0586290  43.5477781
  67.8270054  42.6265526  44.1994858  67.0165205  43.8824415  43.9610672
  30.6792393   5.7268839  29.3607998  30.4384270   6.1760931  28.5505795
  30.7268467   6.4233236  30.0157356  70.3854418  63.3810711  41.0069323
  70.5693197  63.7706995  40.1521778  70.4275846  62.4371195  40.8539343
   3.1584254   7.1389418  15.4108202   2.3197117   6.6852217  15.4940224
   3.7507954   6.6547041  15.9860170  33.1512458   7.7411572  59.8093273
  33.9557225   7.7462785  59.2906477  32.5180680   8.2194202  59.2739989
  63.6043739  70.6099319  42.7111053  64.1659164  69.9342346  42.3311901
  63.8344193  71.4079666  42.2352362  73.4807062  47.1000719   4.6836689
  74.2780638  46.6594172   4.9773923  73.0306625  47.3449373   5.4922074
  81.9398594  61.2538195  33.7447238  82.3819351  60.4094744  33.8335419
  82.6026058  61.8327141  33.3680534  20.5260370  55.9709597  56.7421103
  20.4893396  56.5125036  55.9536839  20.5964181  56.5990210  57.4610090
  56.9245052  67.2186899  30.7965255  57.0016050  66.7832470  31.6454530
  57.1400785  66.5388060  30.1581550  20.9488399  14.9493901  65.0808175
  20.4251725  14.7020833  65.8429493  21.8415744  14.6905486  65.3094180
   8.4730854   2.4499350  48.7993813   7.7405539   3.0468874  48.9519405
   8.3531180   2.1488409  47.8987217  78.6302614  79.0045881  24.8230362
  78.6184835  78.0477762  24.7985983  77.7066374  79.2557669  24.8153019
  23.4297941  79.4824409  47.0986271  22.4942586  79.6845388  47.1110249
  23.8525960  80.2868271  47.3993587  79.5043659  63.6892319  52.4620867
  78.7480354  63.9031029  53.0083942  79.2177296  62.9409027  51.9385624
  84.6501487  24.4658117  40.0399351  84.4847053  24.4839029  39.0973115
  84.9218696  23.5654669  40.2181768   6.0882798  18.1373816  46.5970898
   6.7375698  18.0107717  47.2889137   5.4734173  18.7752275  46.9594955
  11.6411867   7.5548105  52.9746437  11.3118067   8.3141165  53.4554625
  11.1323967   6.8179636  53.3129168  58.1219578  72.2010612  41.9660330
  57.5663471  71.4390802  41.8019819  58.6436701  72.2931576  41.1688089
  22.4349537  34.0240507  46.2127590  21.8550864  34.3464212  45.5227900
  23.1782570  34.6270685  46.2020969  82.8674691   4.3143110  33.4343100
  82.8043836   4.9441748  34.1523170  83.7953609   4.0816908  33.4006000
   0.9987822   5.8685045  63.0625534   0.5631628   5.0396185  63.2611036
   0.3476229   6.3697081  62.5716209  76.7029333  76.2020159  13.3501494
  77.1864462  75.8657598  14.1047204  75.9637642  75.6017542  13.2524705
  33.0893905  32.4725835  63.7825467  33.3996016  33.3287017  63.4874811
  33.1037433  32.5288837  64.7379817  41.1590052  65.7627583  36.7603469
  41.1598110  66.6386843  36.3743663  41.9849586  65.3736162  36.4729476
  57.7707720  64.4780779   3.2525399  58.7058687  64.2814636   3.1961903
  57.5129461  64.1689920   4.1209990  80.1276582  23.6368685  28.6255383
  80.0095504  22.9418116  29.2729759  79.2522567  24.0056543  28.5076499
  10.9477988  17.5611811  12.8834665  10.7615748  16.8500738  13.4965539
  11.6184178  17.2053366  12.3004794  18.3675089  12.3456697  43.4148693
  18.0016461  11.7774706  42.7369881  18.3544197  13.2205706  43.0267859
  28.9902535  26.6079264  38.6834955  29.1811886  26.5445452  37.7476764
  29.8499241  26.6005926  39.1043782  14.8292866   0.1462488  31.7788076
  15.2759066   0.0211172  32.6161265  15.3189984   0.8471708  31.3485479
  34.9166616  23.9479936  13.1842552  34.5874294  23.1023229  12.8798233
  34.1759809  24.3413508  13.6456524  12.2250595   2.1991091  36.1457133
  12.4512043   1.2706881  36.0897374  11.5298500   2.3157434  35.4981685
  37.3541570  78.1509161  28.7582660  37.0236230  78.2471991  29.6514106
  37.8184533  78.9698696  28.5851192  65.8168238   3.5525637  15.7273769
  65.2881687   2.9007368  15.2670741  66.5563934   3.0565577  16.0784364
  58.5248327  74.0491772  37.1463299  59.0378284  73.9742279  37.9509711
  58.5666180  73.1772757  36.7535520  81.5197277  74.8972654  21.4019918
  81.5815163  74.7908831  22.3512530  80.6571198  75.2872229  21.2603259
  82.7681582  13.6233931   3.9603743  82.5493377  13.5955744   4.8918119
  82.5656598  14.5200376   3.6934403  65.4117489  67.6284599  55.4374313
  65.7178020  66.7309713  55.3067398  65.8814526  67.9308939  56.2146997
  61.1649609  69.5200968  39.3261623  61.8648815  69.0108013  38.9175510
  60.5129194  68.8680887  39.5829892  15.8790872  59.5931530  33.0145907
  15.7598111  59.2662382  33.9062929  14.9897668  59.6904755  32.6742029
  35.2980652  52.4295359  25.7328677  34.7746601  53.0565481  26.2319875
  34.6531811  51.8680792  25.3025937  61.9601154  47.8961277  45.6270838
  61.4537954  47.5678825  46.3701391  62.7374887  48.2905579  46.0224915
  86.2866061   2.9802065  19.9231434  86.9778483   2.7102976  20.5277586
  86.1221402   3.8975363  20.1414990  80.0783103  12.5554781  21.6938877
  80.0516122  12.6820021  22.6423120  79.7187131  11.6787081  21.5590000
  32.3994732  67.7532911  22.0236802  32.6032877  68.0062485  21.1232877
  31.8257356  66.9922876  21.9346309  11.0366621   8.5019045  70.8217144
  11.6585293   8.6061602  70.1015472  10.7892075   9.3964224  71.0558748
  64.6826649  68.8168097   6.5885562  64.4819880  68.3112526   7.3761934
  65.5053091  68.4460640   6.2691122  11.2548437   5.9975462  28.1542468
  10.3636923   5.9294825  28.4969544  11.2280789   5.5255442  27.3219419
  52.4268501   7.5866251  52.3324251  51.5776437   7.6839571  52.7632475
  52.8768175   6.9111280  52.8398228  76.4014524  17.6075869  10.7471275
  76.8084233  17.5848417  11.6132033  76.8068975  16.8817072  10.2728331
   9.2570875  58.8213158  24.7939706   9.6304605  58.1069422  25.3102040
   9.1147039  59.5251703  25.4268575  40.0148296  76.8198347  20.6115460
  40.5170965  76.1589146  20.1349568  39.6692896  76.3547182  21.3734508
  19.6986142  24.2014914  33.4795284  19.0445891  24.7110014  33.9579439
  19.3900624  23.2974939  33.5412669  20.6270066  27.4893217  26.6575170
  20.7723465  26.6196756  27.0301270  21.4808503  27.9186277  26.7111540
  83.7386363   1.8126230  39.5215702  84.1083806   2.1160631  40.3506947
  83.7726253   0.8577661  39.5793629   3.1278512  74.0848637  32.5906897
   2.8952024  74.8373604  33.1346154   3.8386533  73.6557055  33.0669427
  75.9062576  76.1005926  51.5363693  76.6420841  76.3963366  51.0003471
  76.2375498  75.3266191  51.9918299  65.7254457  60.1177883  23.8176298
  66.2490559  60.1596069  24.6178293  64.9782991  60.6907320  23.9900756
  75.4677677  77.1600103  16.6643608  75.6490564  77.1787119  17.6040506
  74.8722553  76.4193916  16.5500128  19.5582524   8.9657717  45.3308678
  19.8669424   8.8879042  44.4281626  20.0435629   9.7102003  45.6865788
  58.6089468  67.8013659  51.4960575  59.4674683  68.0668926  51.1664104
  58.0596972  67.7432537  50.7142830  20.6947270  26.7131357  48.5548830
  19.8355141  26.8297319  48.9603376  20.5045548  26.5689115  47.6279163
  77.1814401  38.4509770  64.9434080  78.0610902  38.1751458  65.2010174
  76.7309720  37.6365821  64.7196539  26.2735746  57.2610617  20.8995748
  26.1397359  58.1414127  20.5484271  25.5834100  56.7347383  20.4959798
  85.5297559  13.9117651  48.7660646  86.2555449  13.3647470  49.0664482
  85.0010388  14.0599184  49.5501184   7.2046277  64.2854691   9.4843084
   7.5002954  63.3860111   9.3436068   7.0878217  64.3537283  10.4319000
  35.2734223  11.9727068  53.6425495  35.7799569  12.7264147  53.3399248
  35.3048077  12.0308428  54.5974636  47.7437878  72.4052238  33.6314750
  48.5399580  72.9289484  33.7212181  47.3375034  72.4366951  34.4976020
  73.6780643  61.3463068  47.2338295  73.1672049  61.4755440  48.0329227
  73.3506870  62.0128298  46.6298389  30.0918045   6.4512186  26.7922902
  29.9238053   7.1974115  26.2167764  29.2687550   5.9625559  26.7973208
  63.1835842  66.9399595  28.7061262  62.3406219  67.3056316  28.4379172
  63.8299656  67.4310923  28.1989670   1.2191851  16.9066588  67.4572785
   0.7629401  16.9142549  66.6158425   1.4782245  15.9935252  67.5810410
  71.1776304  69.5099640  36.0167885  71.0342979  70.2803612  36.5664935
  70.7819414  69.7388363  35.1757908   6.6262045  11.3214426  17.9920828
   6.0249033  10.6192141  18.2401419   7.4974909  10.9564428  18.1465816
  10.3155794  32.5387697  33.3618999   9.7597876  33.2181482  33.7436986
  10.8710661  33.0062895  32.7381301  62.3146477  17.2342997  64.6558189
  62.8966942  17.8485517  65.1031971  62.9046669  16.6325693  64.2019081
  83.3562565  65.5553961  35.7110190  83.3452797  65.7303905  36.6520238
  83.4796619  64.6084929  35.6449127  70.0658935  11.1278849  54.3569231
  70.3742450  10.2241068  54.4227695  69.1972440  11.0563593  53.9612484
  54.2148447  60.6651831  33.3053303  53.4618521  60.1680040  33.6247754
  54.8921394  60.0052452  33.1570530  33.9550471  65.0680780  41.3495159
  33.5379314  64.2065763  41.3414097  33.7385726  65.4470205  40.4975939
  69.7957087  74.1765165  41.1365318  68.9180899  74.0000200  41.4754438
  69.6848536  74.9408245  40.5710411  28.1375542   9.7313910  51.3722801
  29.0038338  10.1258306  51.2712336  28.1361904   9.3813829  52.2631931
  24.9992409  32.0873384  27.6566792  24.3771115  32.2238378  28.3712077
  25.2771225  32.9692774  27.4092865  70.3712940  67.3266649  37.2558117
  70.7391500  67.8421402  36.5380406  69.9615908  67.9737568  37.8299618
   7.7555933   8.0606298  51.4350557   7.8663435   8.3781271  50.5388641
   6.9294968   7.5774221  51.4175940  82.0546096   7.0365553  46.8364573
  81.1793321   6.7096643  47.0444584  82.3008769   7.5626020  47.5972843
   6.3030615  11.2754087  14.7101331   6.0218325  10.3946619  14.9579835
   6.7511788  11.6110926  15.4864931  79.3552917  24.8534899  50.1225138
  80.0438779  25.5024080  49.9776506  79.8170608  24.0850859  50.4580116
  81.0689640  55.5278587  54.3107367  81.8129635  55.2390146  54.8391867
  81.2456799  55.1786375  53.4372139  84.4301414  80.4570198  38.4208679
  85.1949501  80.3301430  38.9822936  83.6817455  80.2984619  38.9961910
   1.7326648  25.7851569  67.7789797   1.9898207  25.6720035  68.6940202
   2.5362045  26.0584418  67.3364057  10.6080189  10.8828573  37.0039010
  11.0812178  11.6241865  36.6260982   9.7847405  11.2582521  37.3161793
  85.5716133  68.6395741  70.6194592  86.3655949  68.1760788  70.3529978
  84.9389362  67.9450512  70.8027363  52.2699881  63.4771872  38.8992000
  51.9929934  63.2652378  39.7905970  51.6153097  63.0598307  38.3393383
  76.7100525  75.2817011  34.2655325  76.2148571  74.4891357  34.0585303
  76.0411692  75.9502268  34.4135284  70.9257603  70.2599812  20.0789118
  71.7225695  69.7295761  20.0790429  70.2486706  69.6751308  20.4190969
  35.3210217   9.0545575  64.3940939  34.7596271   8.3214395  64.1418930
  34.7204072   9.6975581  64.7709777  75.7945013  69.8354101  25.1364732
  75.8813429  69.1247225  24.5011711  74.9536133  69.6730709  25.5640054
  43.3475542  66.1347914  25.9542680  43.2374191  67.0396376  25.6621122
  44.2248344  65.8924770  25.6577969  11.3702813  17.9255037  26.5734911
  10.6986895  17.2651701  26.4027357  10.8902970  18.7531214  26.6034341
   8.8758269   3.1964426  42.2243690   9.3605032   2.8640680  42.9799128
   8.2077875   3.7690191  42.6013565  18.9734471  74.0832186  44.1877127
  19.0262377  74.9248409  44.6406174  19.4065154  74.2356396  43.3478022
  62.4039030  61.7929745  38.7307191  62.2964191  62.7440453  38.7187195
  61.5396595  61.4572525  38.9686489  28.8693276  10.4226904  40.6139851
  29.7090187  10.6785898  40.9956455  28.9979782   9.5149450  40.3388739
  10.0846186  23.8684778  47.6460361  10.3927889  23.0600100  48.0554676
   9.7505274  24.3931513  48.3735847  69.5770972   3.9911013  56.2600183
  69.7901576   4.2150526  57.1659374  69.4128268   3.0482893  56.2786579
  51.1850221  36.0197942  70.8176557  51.0492761  35.2650182  71.3904757
  50.3821809  36.5337579  70.9043909  75.5294609  75.1710176  42.1358919
  75.1291370  74.3044710  42.0647001  76.1161757  75.2265072  41.3816214
  34.1689530   1.9382696  17.8190219  33.5789338   1.2276773  18.0703461
  35.0013962   1.7174559  18.2367706  82.8616619  56.3870478  28.0846953
  83.2385445  55.6120777  28.5013628  83.5731983  56.7426205  27.5522256
  69.7299083  26.4447368  11.0313354  70.5549034  26.0050118  11.2368904
  69.1133388  26.1148799  11.6849933  83.9353371  72.2428513   8.9138407
  83.1236458  71.7661428   8.7402362  84.6125793  71.5665102   8.9251500
  71.5678930  62.2699165   9.3081188  70.7770634  62.3340797   8.7726653
  71.8618345  63.1750822   9.4106174  33.2831040  14.9090033  60.9590912
  32.5866833  15.3263693  60.4520988  33.9494362  15.5893259  61.0560322
  49.6738434  68.6728382  11.8804872  49.4751358  68.5373020  12.8069735
  48.9202452  68.3064413  11.4178073  25.8206248  82.1557713  26.6363430
  26.5056014  82.6379490  26.1731601  25.8389997  81.2811089  26.2479424
  79.6134942   4.4472723  66.5549231  79.7397321   4.3673067  67.5003862
  79.0961545   5.2456312  66.4490318  54.9295282  78.6854124  37.5860095
  55.1599979  78.0985880  36.8657637  54.4578648  79.4052267  37.1669245
  13.5786531  60.9246826  23.8353252  14.2607591  60.5246687  24.3747282
  13.9102743  60.8560419  22.9400349  20.6176987  29.4942217  34.0341735
  21.4657441  29.1612940  34.3277788  20.2709332  28.8025694  33.4706211
  49.7260434  21.6336696  63.0944301  50.3825385  22.3230474  63.1944646
  49.2239863  21.8914096  62.3212923  10.7190695   8.9109545  29.9615145
  11.5898409   8.9505129  30.3570151  10.2193156   9.5903330  30.4141998
  85.3230095  79.7219467  45.3296661  85.1243687  78.8704920  45.7192850
  84.5588875  80.2618980  45.5316591  27.0394173  18.8213091  36.0697556
  26.6998902  18.5387545  36.9189405  27.8292694  18.2961874  35.9408569
  38.7296865  78.9149523  11.8811858  38.5441873  78.8147116  10.9474981
  38.2816121  78.1772137  12.2949541  70.9059000  64.9005938   8.2612979
  71.2106752  65.7506132   7.9437959  70.2529526  64.6247244   7.6180345
  53.3205366  59.0828848   6.0676658  53.9847326  59.6089315   5.6222957
  52.4880648  59.4075871   5.7244599   5.5499211   6.7125349  35.4539037
   5.7368269   7.4449472  36.0411525   6.1298218   6.8518190  34.7052097
  62.7605009  58.7208843  33.0554891  62.5664043  58.4365225  33.9486289
  63.7067795  58.6063194  32.9679680  63.9318752  65.9825754  11.2070525
  63.1572437  65.4891872  10.9373331  63.6206293  66.8824673  11.3048005
  11.8041062  81.3621807  22.7607942  10.8475888  81.3456917  22.7929449
  12.0420575  80.5590534  22.2975397  71.8064833  69.6572304  65.3816462
  71.3499832  69.1164875  64.7370958  72.1308613  70.4051971  64.8800898
  64.3015235   0.2023249  29.2405224  63.5570853   0.7138472  29.5573711
  63.9400213  -0.6679220  29.0725255  50.2302551  47.2978973  13.1023335
  50.1996279  48.1484842  12.6643932  50.1353121  46.6605234  12.3945379
   9.0086171  77.5022507  22.3247862   9.7125814  76.8537140  22.3328543
   8.4237287  77.2121668  21.6247988  68.9002705  80.5823421  29.5413423
  69.7859716  80.2817726  29.7448683  68.8464069  81.4530754  29.9352336
   5.3898993  15.9367685  20.5604124   4.5470133  15.9787016  20.1087332
   5.6273117  15.0097303  20.5388784  65.8221149  81.7023373  33.9340329
  65.1868916  82.1969318  34.4518256  66.3841581  81.2803555  34.5838499
  78.0259752  57.6731300  30.8197975  78.0901527  57.6598215  31.7747521
  77.1394920  57.3629522  30.6349730   7.8199098  55.2989101  25.8962178
   7.9439542  54.6275043  26.5670824   7.1436307  55.8736610  26.2547374
  82.5732613  70.4265022  13.5612726  82.5164223  70.1627302  12.6428902
  82.9059696  69.6509838  14.0130544  66.8886614  61.9458532  64.2203188
  66.2854528  61.2896919  64.5693541  66.9978571  62.5744390  64.9338913
  72.5424957  37.4763632   9.6295744  72.7419853  36.9848466  10.4263461
  71.7659950  37.0465136   9.2710847  50.1664352  56.1011171  24.4390869
  50.3297901  55.4045963  25.0750160  49.2208719  56.2445879  24.4786143
   0.7545946  68.1956577   1.3305393   0.5840299  68.8988018   1.9572206
   1.7079351  68.1751394   1.2471894  73.2641356  13.3624964  49.6388340
  72.4913257  13.9179163  49.7413015  73.2064288  12.7362947  50.3604794
  70.4455798   7.8952150  60.9120560  71.2811273   8.3566790  60.9838057
  70.0831931   8.1847410  60.0747490  42.6274681  72.8258848  42.4267864
  41.7080021  72.8339672  42.1608019  42.7999687  71.9149160  42.6647282
  31.3599720  33.8764505  26.7682576  31.6426316  33.2823973  27.4635482
  31.5977040  33.4265738  25.9575009  31.5203810  65.6652689  58.6490822
  31.4122081  65.1025581  59.4158173  32.2636366  65.2882767  58.1782532
  47.7662420  81.9483852  50.7066154  47.6436710  82.5010395  49.9347448
  46.8856335  81.6433811  50.9250879  16.8490115  17.3759203  32.0718932
  16.7468205  18.0679350  32.7252650  17.3811999  16.7108755  32.5086188
  45.0602284   4.1176538  25.3306556  44.4919052   4.0624933  26.0988927
  44.8785630   4.9812155  24.9598432  74.2661524  71.5538263  27.9936051
  73.7749052  72.3751831  27.9769659  73.8412714  71.0071945  27.3326206
  75.4260015  25.7024837  15.9989977  75.6354713  26.4731789  16.5266180
  75.8115292  24.9705601  16.4805412  31.6476956   0.1068716  35.7118988
  31.0467759   0.6872873  35.2447343  32.4533310   0.6163244  35.7993102
  76.5729570  52.3820639  50.1302671  76.5915155  53.0945158  50.7692528
  77.1817207  51.7311716  50.4795313  55.1491451  79.3227720  45.8425903
  54.7502422  78.4715939  46.0231590  54.5966625  79.7065830  45.1616478
  20.7838717  29.9234800  29.7351503  20.7931080  29.8007994  28.7858891
  21.4995852  29.3740110  30.0546384  59.5507574  57.2711515  30.7131982
  59.2484617  57.7553511  31.4815712  60.4933929  57.4346590  30.6826448
  74.6404457  36.1226916  55.5075502  74.8947716  36.8620896  54.9554253
  73.8678169  35.7568383  55.0769377  36.4517760  18.1581378  42.2282124
  36.9285727  18.9403594  42.5057507  37.0655823  17.6924264  41.6602421
  34.1117714  51.0172414  68.6893750  34.3179993  51.7321705  68.0872308
  34.4599132  50.2352821  68.2609256  60.2071914  77.2839249  10.6067348
  60.4389490  78.2067166  10.7115018  60.9964854  76.8779380  10.2483761
   3.0312235  81.6857032  26.9242620   3.4481341  82.3252201  26.3468242
   3.5819728  80.9058660  26.8552589  50.7491032  65.9832465  64.9298396
  51.4180152  66.6487562  65.0907304  50.0793449  66.1517107  65.5926188
   9.6124632  62.0808811   6.3587683  10.2391631  62.6863940   6.7547899
   8.9748413  62.6468153   5.9235823  70.3725121  68.6679585  12.1151757
  71.1580763  68.1224580  12.0758176  69.9222932  68.4996076  11.2874126
  16.7866611   1.6602933   2.6891482  16.9980156   0.8567899   2.2138134
  17.0779765   1.4921068   3.5852957  32.7592754   6.6072595  16.9107890
  33.4071970   5.9368670  16.6939807  32.0803595   6.1366844  17.3943841
  64.5051429  62.5305421  21.0262108  64.8004249  63.0649896  21.7633724
  64.0686855  63.1497366  20.4411173  60.5587673   0.5678676  39.4622946
  60.8203411   0.3154511  38.5768008  60.0136614   1.3449197  39.3386769
  50.9158230  20.4924870  43.5203075  51.1439896  19.8627400  44.2041159
  51.5254307  21.2188745  43.6505938  31.9224763  25.2573872  13.0057585
  31.9266820  26.1369514  12.6281643  32.0276093  24.6736932  12.2544384
  80.9081230  72.6838459   1.7484495  81.5800962  72.0079620   1.8371296
  80.2902493  72.3251660   1.1114153  59.6170950   9.9414414  14.6909976
  60.5428839   9.8850310  14.9275768  59.1779232   9.3463284  15.2986145
  48.1061963  10.1236426  68.3014383  47.3272089  10.6798112  68.3107128
  48.1587378   9.8000156  67.4021404  37.8412048  23.8659620  70.4130178
  38.2306168  22.9983925  70.3038709  38.5126213  24.3743515  70.8679595
  60.0163889  30.1349020  18.2851613  60.7745409  29.7318029  17.8621316
  59.8132515  30.8944774  17.7392578   1.3225133  45.7253284  10.4546285
   0.6993730  46.4246912  10.2575958   1.3248689  45.1783128   9.6691358
  63.3404598  70.7250423  34.3040586  63.7896720  70.5563040  33.4758258
  63.4198275  69.9048002  34.7910237  68.9710650   1.4063136  55.2082493
  68.6118111   0.6107871  55.6010701  69.5454404   1.0906379  54.5106282
  43.2955694   8.3982331  42.9412460  44.0033293   8.3917677  43.5856533
  43.5092449   9.1265988  42.3581028  20.6079394  74.7549821  27.3712754
  19.7452456  75.0098319  27.6984477  21.0087211  75.5765654  27.0873618
  25.5005240  14.8440230  30.9277964  25.0634003  14.0668225  30.5797839
  26.2845778  14.5047200  31.3594985  17.6718903  37.4961424  17.1695912
  18.2339990  38.0876923  16.6692579  17.8725982  36.6261077  16.8246412
  44.2994554  58.1552072  27.2774720  44.3461473  59.0801544  27.0355511
  45.1968247  57.8366108  27.1802330  37.5393939  23.6565971  14.4764042
  36.6875672  23.8727140  14.0970373  37.5923967  22.7026343  14.4182646
  38.2060933  28.5165286  16.7365015  38.2539845  27.6556182  16.3208473
  37.2840166  28.7643123  16.6686165  86.7867972  13.8300395   4.4152835
  86.0863126  13.1781077   4.3920681  87.2106774  13.7567043   3.5601932
  14.1780622  66.9255168  23.4875298  14.6154077  66.1507900  23.8407397
  13.4886701  66.5750988  22.9234552  49.1031504  13.9728487  25.2230906
  48.9565992  13.9205313  26.1675572  48.3187771  14.4029272  24.8824644
  73.8403474   8.8954223  15.1845108  74.3152832   8.1177533  14.8914180
  74.4939314   9.5946134  15.1706348  49.6855450   7.4203360  10.2328801
  49.3164158   6.5681630  10.4647791  49.9539518   7.8007013  11.0692477
  37.8303916  51.9815393  25.6005812  38.2014615  52.8635473  25.6250644
  36.9666106  52.0738502  26.0025668  51.8711424  17.3405480   5.5444175
  51.3048410  16.5699971   5.5021638  51.2758636  18.0650091   5.7368648
  80.2431831  80.7517080  48.6308336  81.0908351  81.1798221  48.5106850
  79.7448835  80.9828081  47.8469181   3.9007291  11.9417226  10.2247465
   3.8931587  10.9849668  10.1966226   4.8135078  12.1689105  10.4020965
  39.7697949  13.4610927  18.0088365  39.0834188  13.9463592  18.4666979
  39.3042779  12.9667866  17.3341596  30.5070472   5.9440130  18.0928886
  30.8469009   5.2098775  18.6045289  29.7955298   5.5664921  17.5757301
  11.2309415  65.9455938  38.9239764  10.9102232  65.0495918  39.0266895
  11.7484529  66.1066682  39.7129416   7.8363759  80.3316067   9.7943544
   8.5724146  80.5988395   9.2438400   8.2122666  80.2425641  10.6701458
   1.7558438  79.0023140  22.1943736   1.6202313  79.4369255  23.0363679
   1.4618499  79.6411459  21.5449953  19.5843846  73.8909258  24.0933323
  19.1812427  73.0376203  24.2532682  18.9033753  74.5239652  24.3207479
  22.7193744  81.9207885  11.7951179  22.8113801  81.2086943  12.4281168
  23.0789525  81.5663273  10.9819186  18.1353939   1.9955869  10.0105464
  18.7262559   2.7426672   9.9157608  18.6904180   1.2305478   9.8592347
  27.4888730  48.5756254  11.0744643  26.7567563  49.1730738  10.9218383
  27.2078466  48.0363655  11.8136895  57.1228838  15.8504641  33.2414126
  56.4198256  15.3897035  33.6992717  56.9704914  16.7749810  33.4370542
  21.4290047  53.0797625  18.8881838  22.3069930  52.7453661  18.7050211
  21.2753296  52.8587341  19.8067498  80.8634433  78.2078911   6.4157259
  81.4001450  77.4518998   6.6537619  80.0085339  77.8359486   6.1988884
  84.0254609  24.7215116  66.9805597  83.7438361  23.8654625  66.6579120
  84.6893946  24.5221269  67.6406111  14.3215145  64.1141402  67.1406813
  13.7953438  64.5386207  66.4630466  14.6380247  63.3098328  66.7294108
  64.2847196  78.5151136  55.8140649  64.5191614  77.8499758  55.1668705
  63.9818517  78.0153691  56.5721919   5.7441336  28.2285976  32.0959401
   6.4867884  28.7431598  32.4120450   5.8033067  27.4026680  32.5761175
  21.8471575  30.7593703  20.3757930  21.8096805  31.0001588  21.3014531
  20.9327698  30.6271553  20.1254940  36.2076280  65.0811708  62.9674824
  35.5408941  65.1921165  63.6452647  37.0342223  65.0428140  63.4486302
  22.6484752  20.7521939  18.0054653  21.7255020  20.5160308  18.0980825
  23.1188965  19.9249959  18.1088161  77.3226738   9.5289725  21.2601089
  76.5062284   9.1538042  21.5901041  77.9117012   9.5218396  22.0145798
  49.5389175  16.9583476   8.1789070  50.1731825  17.6601553   8.3251971
  49.4396925  16.5427995   9.0354741   7.6011617  34.6807785   8.2745814
   8.4949285  34.3718262   8.1263798   7.3027546  34.1917343   9.0414077
  23.0632186  19.7746515  31.2455440  22.6742077  19.1596091  30.6237507
  22.3642731  19.9535251  31.8745995  86.3874874  79.8926769  33.0411863
  86.6817078  78.9977793  33.2109618  85.6955490  80.0435415  33.6851525
  17.4872691  71.1072524  35.4032326  17.1838099  70.2099819  35.5412507
  17.2534472  71.3022537  34.4957447  21.7300248  45.2609825  33.4876084
  22.4934149  45.8201075  33.6319780  22.0956326  44.4303799  33.1832004
  51.8727104  63.8059270  69.4049812  52.6664058  63.7272226  68.8757511
  51.6446678  64.7343838  69.3581051  20.2635867  71.8112357  20.4963374
  19.8407847  72.6679928  20.5549765  21.1853559  72.0098038  20.3315949
  10.9910423  66.4824684  13.0334282  11.8455750  66.3464017  13.4426880
  10.3725535  66.4804609  13.7639773  81.6820812  14.2958939  24.7826624
  81.9962788  14.5551097  23.9164519  82.3970222  13.7771392  25.1514220
  29.4880533  56.3681555  14.0391445  30.0114250  56.9652843  13.5045874
  28.6374044  56.3378286  13.6013007  11.7714715  21.4016223  16.6250539
  12.1549797  20.6164861  16.2342644  12.1116889  21.4145303  17.5196588
  17.1998572  35.0575876  26.2965226  16.8628204  34.9453306  27.1853638
  18.0479383  35.4855323  26.4142179  35.2939892  14.0890396  16.6924536
  34.9443221  13.7392294  15.8729422  35.3994107  15.0259709  16.5272951
  60.3603411  10.8295667   5.4125082  60.4260159  11.2493682   4.5547873
  60.9286642  10.0620782   5.3476733  37.2034025  18.9998448  19.0416515
  38.1554699  19.0941978  19.0116596  36.9540620  19.3569374  19.8940277
   3.3280438  10.1489139  15.7477057   3.0917975   9.2224962  15.7011247
   2.7822095  10.5689991  15.0830066  26.0730130  72.2638716  19.5437992
  26.7874200  72.7194704  19.0985024  26.4321620  71.4015014  19.7525167
  41.4999199   9.0447038   4.2729399  41.5052128   9.6230507   5.0356448
  40.8441687   8.3793145   4.4814569  28.0581665  21.6224313   6.8450028
  27.7391291  21.1412716   6.0815030  28.2367015  22.5032473   6.5155816
  25.4671741  40.4204845  35.3532815  26.2944031  40.8968687  35.4238796
  25.7028222  39.5918632  34.9360490  75.1624438  67.7745683  12.1070600
  75.9057328  67.2031648  11.9140518  74.5176229  67.5652535  11.4313197
   3.3001465  35.2032018  49.1338301   2.7193385  35.3154874  48.3813095
   2.8633335  34.5478559  49.6778393   7.3696429  29.2702842  17.1377635
   6.5279996  29.3925834  17.5769794   7.4187827  28.3288097  16.9721067
  64.2225544  80.5621445  64.0702905  64.1073839  81.3698566  64.5708610
  64.5105139  80.8551609  63.2057376  13.8510013  18.3756745   6.7395627
  13.5586631  17.5690484   7.1639735  14.4223487  18.7922835   7.3847234
  13.6149764  16.2777758  22.9980469  13.4386981  16.3147342  22.0579457
  14.3514609  15.6718814  23.0799961   8.5811517  13.3319497   2.5921896
   7.9115579  13.0967259   1.9498920   9.0428636  14.0714407   2.1969685
   9.2906094  16.0485840  37.9838538   8.8472658  16.3726747  38.7678480
   9.4197595  16.8273711  37.4425220  27.1750314  55.2954741   7.7473336
  26.3558490  55.7867928   7.8087759  27.7230651  55.6553860   8.4447229
  27.5200868  20.8639503  50.6138611  26.7379713  20.6683493  51.1298656
  27.4430966  21.7950940  50.4058313  60.2990103  16.3603485  27.3958206
  59.7021389  16.8328726  26.8155646  61.1643410  16.7126667  27.1877241
  25.9536028  16.8802822  19.0023565  25.7834291  16.1407876  19.5858121
  26.9021940  17.0024359  19.0409124  34.9194501  79.4619691  48.8609065
  34.3911115  80.2209174  49.1080679  35.6767611  79.4967806  49.4452848
  84.3691751  40.2963734  33.2599521  85.1418992  40.5664587  32.7637839
  84.2272210  41.0055447  33.8869715  29.7318697  16.7205262  35.9734631
  30.4438114  17.1309519  35.4826260  29.7047448  17.1995389  36.8017387
  17.9216290   9.6060908  22.1622562  17.5483215  10.0082898  21.3779688
  17.3986888   8.8159925  22.2983074  37.0112777  19.7456670  26.4083457
  37.1540570  19.8903775  27.3437071  36.1894798  20.1983261  26.2186527
  31.5176446  71.4348681  20.5382633  30.8091790  70.9258897  20.9322786
  31.9332559  70.8306129  19.9231398  40.7586098  35.4414678  27.3859429
  40.9996891  34.8433733  26.6785574  41.0620975  35.0053978  28.1821656
  83.5335175  37.0662203  61.2226983  84.3855969  37.4647575  61.3997962
  83.0019776  37.7821093  60.8745636  26.6261125   7.9224849   6.3333827
  27.5651717   7.7840900   6.2099141  26.3121104   7.1045351   6.7188597
  17.6782233  62.7769775  15.6699991  18.3807189  63.1090302  15.1110113
  16.9812924  62.5345690  15.0602818  33.5246522  79.4782807  37.9932523
  33.6956985  80.4104997  38.1272054  33.0179889  79.2149253  38.7614775
   7.8085007  63.0633366  45.0466670   6.8726601  63.1440031  45.2308692
   7.9776539  62.1215951  45.0738515  70.2126376  75.4290521  53.6971368
  70.1366870  74.4889295  53.8603355  71.1524502  75.5792605  53.5950138
  82.3356120   9.5178115  61.7133339  81.5607134   9.1865527  62.1672406
  82.8048007  10.0225961  62.3776277  19.3717885  19.6521890   1.9562033
  19.9708128  18.9159739   2.0802587  19.0462303  19.5480442   1.0621130
  84.7932477  22.1942043  33.3784246  85.0444404  22.9827952  33.8593173
  84.0392106  22.4635291  32.8539014  64.2597882  64.7126758  67.1780451
  65.1252071  64.8501312  67.5632577  63.6474887  64.9898874  67.8595676
   8.5633673  62.3445046  42.1033992   8.5189070  61.3902819  42.0424594
   8.3576311  62.5359118  43.0184235  82.1972772   9.3848968   0.6273334
  81.2883058   9.3403506   0.9240131  82.1367698   9.6458209  -0.2916275
  30.6668329  24.2867351  28.8021207  30.9118104  24.1283274  29.7137809
  29.9590230  24.9291539  28.8524699  20.0656986  20.5133295  54.0394163
  19.7448051  19.7502196  54.5199633  20.3336024  20.1654816  53.1888485
  27.6460767   6.8357891   3.4258211  27.2703743   7.7158415   3.4500495
  26.8878579   6.2515503   3.4272826  76.7963330  36.9184234  43.6196794
  77.6354853  37.2803297  43.9044227  76.7789284  37.0689132  42.6745428
  27.0408773   9.5693761  18.0852437  26.7776394   8.6789888  18.3179414
  27.1599817   9.5435250  17.1358347  20.9384322  21.6077018   4.0044510
  21.5589905  22.0318460   3.4117961  20.2335858  21.3012314   3.4339246
  59.8430439  67.9705949  18.5856247  60.6044558  67.4573345  18.3153522
  59.2073025  67.8451378  17.8811216   4.4885442  33.9816761  16.0784101
   4.6250623  33.1710672  16.5688252   5.1596296  33.9647079  15.3960693
  31.7186236  38.5523200  19.0595317  31.5625548  39.4023061  18.6479533
  31.4155030  37.9141974  18.4136605  67.6903764  46.8737477  58.9615108
  68.3717720  46.5896487  59.5707883  67.1223179  47.4395775  59.4843664
  53.2775497  19.8277581   3.7529430  53.4025335  19.3952644   4.5976686
  52.5964594  19.3137789   3.3191580  38.4572029  19.6650767  28.8115883
  38.6669135  19.1648948  29.6003032  39.2468119  19.6063554  28.2737207
  16.8745429  65.7147880  37.6358867  16.7389400  65.4385312  36.7295074
  15.9949119  65.9030254  37.9630566  66.9278757  66.1052095  67.4942799
  67.4553076  65.3183567  67.3567631  66.9678370  66.2583744  68.4383007
  75.9723425   5.6876141  22.4596262  75.5114889   6.5129769  22.3092151
  76.0951376   5.6512785  23.4082198  86.7473516  68.6218781   4.4018412
  85.7905564  68.6007447   4.3837488  86.9730267  69.5044680   4.1080105
  41.2011433  16.4615774  30.3585100  40.5387306  17.1478415  30.4390359
  41.7569637  16.5735185  31.1297202  57.3581600  19.6874893  30.9825206
  58.2823992  19.5519054  31.1913991  57.1633291  20.5634594  31.3156080
  51.4341181  53.3566196   6.5651594  51.2848347  54.0998371   5.9807144
  51.6665357  52.6351555   5.9806047  14.7457845  70.0288637  10.0090420
  14.7936112  70.7164271  10.6732714  14.6236474  69.2214580  10.5084527
  39.1137385  40.0692177  21.7434239  38.1581855  40.0968599  21.6945767
  39.3583298  40.9107828  22.1283507  59.8554448   1.2689988  34.5251026
  60.2850726   2.0925967  34.2941512  59.7351307   1.3193099  35.4733767
  45.3394222  21.2025642  29.3622351  45.2652884  22.1479249  29.2317271
  46.2552071  21.0047960  29.1661358  80.9473476  60.2890749  26.0459805
  81.7834339  60.6335540  26.3598609  80.9041485  60.5631323  25.1298690
  15.4306912  21.5582132   4.8630801  15.8559763  21.3328075   5.6904596
  14.6639407  22.0705414   5.1196837  40.4556131  18.7844980   1.7563941
  40.6094790  17.8679967   1.5270898  40.5447149  18.8112521   2.7090624
  34.0026069   3.9401248   0.4391556  33.9695787   3.3156544  -0.2855357
  34.0937543   3.3952734   1.2208594  43.6446826  80.7180583  63.5072841
  43.2191769  81.4739549  63.9120074  44.4938056  81.0493028  63.2148828
  42.4732355  61.3206732  62.0360776  42.2744207  61.7787516  61.2194570
  43.1073467  61.8846881  62.4788203  37.5161815  36.3890743  18.5855544
  36.9032168  36.5791059  19.2957616  38.2455397  36.9916630  18.7310028
  11.6227300  56.8784447  56.7382336  11.6862256  57.4340148  57.5151110
  10.9215505  56.2598057  56.9428396  44.0044212  39.9214053   4.4055229
  44.0452337  39.3541312   5.1754349  44.8281956  39.7603559   3.9454195
  69.5772505  31.3367796  13.7114942  70.0906372  31.7714691  13.0305278
  68.8570261  30.9195304  13.2388341  38.3040619   9.8360324   4.1323891
  37.9284453   8.9639431   4.2532334  38.8246036   9.9841183   4.9219072
  34.4143987  25.9318876  22.0457983  34.0844989  25.0422168  21.9197631
  34.5290279  26.0129356  22.9926467  32.3470879  25.7467413  27.0729804
  31.8180323  26.5165973  26.8640471  31.8026376  25.2378035  27.6736331
  72.7264151  16.9557826  57.6982607  73.6179635  17.1448342  57.4056317
  72.1689186  17.2711532  56.9869449  46.9592810  24.6776295  21.2283468
  47.7567577  24.3591666  21.6512489  46.2481260  24.2486691  21.7042494
  11.2648923  62.1572120  44.0588093  12.0649583  62.4762411  44.4763517
  10.5617434  62.4314029  44.6475649   4.7410852   2.4650018  45.8873762
   3.8610060   2.4422376  45.5116453   4.7186071   3.1951158  46.5059699
  29.0019679  13.2209694  29.6480083  29.3921709  13.6973238  30.3808522
  29.1269159  12.2979546  29.8686099  75.0758998  53.5422170  69.5168974
  75.3568856  54.3539011  69.0944666  75.6771533  52.8771424  69.1816330
  23.4333379  65.4740722  38.7921929  22.9816873  65.9048946  38.0664945
  22.9069335  64.6954412  38.9734769  36.0054064  12.1182227  14.0333676
  35.1515007  12.1243286  13.6008883  36.1510754  11.2004399  14.2629039
  25.0197387  36.2552452  23.8208675  25.7817554  36.6236472  23.3738303
  25.2085495  35.3189754  23.8839746  86.9834487  23.9722848  17.4789488
  86.2330602  23.6878395  16.9571817  87.4036034  23.1586361  17.7576542
  28.3968234   8.3638662  36.6848588  28.7380528   9.2459869  36.8320251
  27.4456358   8.4707636  36.6917562   8.7136298  14.2348671  20.1041913
   7.7920252  14.0179622  19.9633765   9.1222298  13.4021962  20.3407001
  53.4618342  64.9508162  17.3704422  53.3548755  65.7929857  16.9282401
  53.7500975  65.1792212  18.2541656  41.2065458  33.5934043  10.2899241
  40.9564304  32.8557444  10.8462775  41.5193272  34.2596817  10.9018683
  50.2599716  11.8158650  33.8821721  51.1003637  12.2650504  33.9727640
  49.8208380  11.9579363  34.7207475  58.8334084  24.0985608  14.3020415
  58.5302973  23.1924295  14.3593347  59.7774792  24.0268707  14.1612566
  80.2317724  76.8448849  13.3617425  80.6810722  77.6617385  13.1446934
  80.8433184  76.3794769  13.9323902  58.6026335  14.2091727  22.1114707
  57.9056215  14.7735763  22.4459171  58.3814764  13.3367479  22.4373460
  67.7816788  79.5103372   1.7663720  68.1051061  79.7552457   2.6333475
  67.5733719  78.5791994   1.8426773   4.2261631  75.1115115   7.9668444
   4.9109752  74.7339864   7.4148095   3.5667760  74.4211389   8.0362916
  25.4694915  12.3786271  13.2628989  24.8311090  12.9183316  12.7966189
  25.5590153  12.7987564  14.1182983  56.0060263  34.4825387   1.7579250
  56.6028500  33.7345934   1.7332193  56.4889669  35.1886129   1.3284381
  50.9375286   4.8878628  11.5401828  50.6729937   4.5348746  12.3896849
  50.9569502   4.1267204  10.9600818  34.0601812  54.7597503  69.5505356
  34.7038905  54.1672086  69.1622517  33.2149054  54.3524253  69.3612579
   4.9515690  29.8116660  68.4809874   4.2571653  30.4215204  68.2317625
   5.7056011  30.3708016  68.6681588  44.5668737  57.6789546  69.9620290
  44.1326324  57.9515278  70.7703423  43.9124064  57.1508014  69.5049081
  24.7915339   5.0327528  18.4542549  25.4114246   5.5481178  18.9703631
  24.2541194   5.6847537  18.0044627  26.4751482  30.8167958  14.5732117
  25.7027102  31.3505578  14.3870127  27.0948172  31.0419631  13.8792801
  56.0194063  20.2711535   3.2765365  55.1020908  20.4561973   3.0752340
  56.0482407  19.3242550   3.4135899  14.4733036  17.1578503   1.4258930
  14.8445666  17.4733448   2.2498222  13.7322271  16.6127539   1.6902941
  27.5424337  31.9071245  12.1998847  27.6389647  32.6786423  11.6416061
  27.6448369  31.1655354  11.6034019  49.4028950   9.6150535  22.8052115
  50.0421333   9.2154056  23.3950329  49.0937233  10.3890049  23.2760024
  52.9878807   7.3519641  59.1723108  52.7412510   6.9097549  58.3599949
  52.4580431   8.1490964  59.1814613   9.9148506  23.3981514  11.6903651
  10.3271222  24.2591619  11.6201937  10.3340089  22.9930568  12.4495971
  59.9202029  48.6814832  66.8962355  60.8756844  48.6496067  66.9438727
  59.6265475  48.3234441  67.7339746  26.9901657  18.6708307  27.9112363
  26.1012983  18.9993668  27.7762961  26.8718743  17.8475714  28.3850336
  67.5278608  29.4121039  66.7980780  67.7064530  28.9997172  65.9529306
  68.1172244  30.1658260  66.8261110  21.1016750  25.1778078  19.7716987
  21.2209845  24.2323923  19.6812201  20.2320504  25.2733898  20.1600933
  10.3964693  77.7743499  13.5290551  10.8756859  78.4082071  14.0627277
  10.3350670  78.1851567  12.6666749  22.7791667  30.7460690  25.9635139
  22.7948761  31.5392709  25.4279613  23.2813931  30.9750915  26.7455316
  29.7367675  66.4858134  10.8122337  29.2281491  66.1647232  10.0676274
  29.6949584  65.7771213  11.4542913  11.0411394  16.2397611  15.1772571
  11.6335511  15.5101037  15.3585887  10.3494346  16.1554563  15.8335114
  45.5541897  11.2519491  30.4336071  45.0781918  11.5001106  31.2261152
  46.1134958  10.5251706  30.7078362   9.3873007  73.4597446   8.0690771
   9.4850952  72.6410950   8.5553694  10.2596647  73.6341585   7.7158147
  16.8712103   9.3971711  19.3677390  16.9140756  10.2075768  18.8601613
  17.3327434   8.7533355  18.8304353  46.3126612  18.3372021  43.6066532
  47.0251465  18.9670801  43.4978056  45.5461359  18.7766552  43.2384729
  61.8793583   1.4541417  30.1457214  61.5690660   1.0527623  30.9574127
  61.3305092   1.0686117  29.4628143  77.3851744  69.1000282  53.2608058
  78.2307879  69.4391763  52.9672982  77.2732321  69.4633877  54.1392543
  57.8241825  25.9451127  22.4097252  58.4789944  25.2861214  22.1791101
  58.2433939  26.7810392  22.2054625  41.8875831  53.3124311   7.6572691
  41.8085282  53.2060011   8.6052404  41.0092240  53.1326826   7.3219953
  54.3319082   6.1997825   6.7565668  54.5565128   7.1143460   6.5852201
  53.3870173   6.2097597   6.9092554   5.1986868  58.2008286  16.9821763
   5.2926976  58.6994762  16.1705458   6.0180981  58.3529086  17.4529934
  44.4943205  62.9240810  63.6653503  45.3646258  62.5538385  63.8127317
  44.6364681  63.6235606  63.0275770  27.2138309   1.2730359   6.8041241
  28.0567908   1.7216277   6.7376727  27.0268798   0.9811035   5.9119040
  71.9586849   4.0874359  24.8484874  71.2653351   3.9397541  24.2053032
  71.8723679   3.3602756  25.4649448  23.4691215  13.5911727  24.5922065
  23.4454465  12.7651942  24.1090608  23.9059520  14.2028761  23.9995623
  26.0378718   9.6452707  59.9782705  25.4102373   9.2466664  59.3754292
  26.8318152   9.7600853  59.4560623  26.0019207  33.6603665  24.2743516
  25.6237674  32.8406024  23.9562058  25.4842949  33.8779545  25.0495625
  17.7954316   1.8626177  31.1419845  18.3336127   2.6489979  31.2325382
  17.3927188   1.7475715  32.0026922  23.5883236  16.1556649  27.8111458
  24.3298149  16.5710449  28.2514691  23.7285781  16.3382542  26.8820500
  43.1668806  50.8420849   0.4407563  42.9698467  50.5506086  -0.4494412
  42.8525257  50.1319885   1.0003789  56.0670471  38.5948539  22.8742790
  55.1724100  38.7308860  23.1862831  56.3410425  37.7738500  23.2830715
  81.8511250  14.8764682  18.2886147  82.5118044  14.6043086  17.6516962
  81.7005881  15.8021080  18.0968821  42.0030594  20.8130455   1.0605799
  41.4425611  21.5313125   0.7670344  41.3934326  20.1531482   1.3909231
  62.9783249  55.2526422   9.2818326  62.7685309  54.3329949   9.1191500
  62.8627420  55.6785555   8.4324384  21.9157267  42.8669596  30.7504702
  22.7817369  42.6144218  30.4303384  21.6196156  42.1129465  31.2603879
   8.5190637  76.9218154  15.3268230   9.0164430  76.4076997  15.9628510
   9.1293461  77.0626734  14.6029818  44.2688302  49.4217830  67.7877726
  44.4878153  49.8624223  66.9667273  44.5810107  48.5247689  67.6688557
  71.0027456  21.3695383  18.9569020  71.1880112  21.2147260  18.0306518
  70.8662653  22.3149133  19.0191102  34.3939495   9.9942684   0.6304262
  34.6609378  10.3081465   1.4943883  34.4168234  10.7734489   0.0749211
  85.3081293   9.4912362  46.7395544  84.9323540  10.3703809  46.6934252
  85.2659586   9.1652626  45.8405590  31.5845060   5.3985381  34.9822307
  31.1343741   5.9129864  35.6522727  30.9857535   5.4016703  34.2354250
  38.9308238  16.5566170  43.9230442  39.1543961  17.4731708  43.7612534
  38.1312084  16.5941727  44.4478607  22.4367911  80.9264199  20.7558441
  21.9645078  81.3700200  21.4603996  22.8866965  80.2009205  21.1888194
  29.1856980   5.7306516  36.8527079  28.5919094   6.4790338  36.9124651
  28.6303258   4.9700126  37.0236588  15.2327478  13.7927270  37.7375698
  14.3299913  14.0848434  37.8637862  15.7364035  14.6020317  37.6504683
  20.8253217  32.5410795  15.8151019  20.1178479  32.6374292  16.4526176
  20.5664492  31.7895532  15.2817869  12.4166059  26.8729782   0.5887057
  11.6052902  27.1885467   0.9867211  12.2066343  25.9899116   0.2848342
  82.5136765  52.5364685  17.7982879  82.8846529  52.5080967  18.6802185
  81.6970959  52.0416403  17.8659046   1.3017715  10.7149827  67.3697971
   1.5105356   9.7973406  67.5446697   0.9272684  11.0359490  68.1901394
  78.4992266   4.5576009   8.5576868  79.1107273   4.3784386   9.2719662
  78.7928581   5.3933299   8.1949621  71.4386288  37.7892971  54.2322089
  72.0964972  37.3799389  53.6701872  71.9080464  37.9931870  55.0411000
  71.3297367  49.3519115  32.6943660  71.5578127  48.8660860  31.9017863
  70.4922009  49.7669601  32.4881959  25.6274366   6.9745332  36.5977049
  26.1261702   6.1677355  36.7264462  24.7721076   6.6800308  36.2847996
  81.4990584  45.8917746  56.6394891  80.9896723  45.2081725  57.0747401
  82.3722664  45.8221578  57.0253589  38.7342906  27.4017644   9.4207573
  39.2749691  28.1795812   9.2832774  38.1010723  27.4203467   8.7031782
  38.1196952  20.1568270   6.2407768  37.3286223  20.2302122   6.7746788
  38.8342571  20.3705096   6.8407542  14.2357594  75.9887810  33.8538051
  15.0045259  76.5392901  33.7049246  13.5686500  76.5923489  34.1807675
  86.7979328   9.0875751  29.7550750  85.9450645   9.5101929  29.6538734
  86.6147631   8.1528264  29.6605992  38.5026360   7.9973328  27.4668574
  38.2067347   8.5559410  26.7480874  39.2018819   8.4980309  27.8870845
  20.7594013  34.7812867  18.8522005  21.5809274  34.8624635  18.3677006
  20.2662683  34.1124177  18.3771598  16.7028213  35.6672359   5.5978459
  16.7112577  34.7149682   5.6945205  16.4214313  35.9923172   6.4530504
  26.7834496   6.6765213  13.8628733  26.1292005   5.9945327  13.7109518
  27.1328330   6.4836991  14.7329211  23.0261803  11.0738194  23.2908440
  22.1119404  10.7921255  23.2585478  23.4953499  10.4251456  22.7661180
  59.9393940  46.1174965   2.8236020  59.3034363  45.4129267   2.6996401
  59.6819496  46.5302134   3.6479926  30.3649051   5.0573508  62.3056151
  30.3999288   5.2919261  63.2329656  30.7101781   4.1652648  62.2710105
  28.5785079  19.6801651  30.4762459  28.2410121  20.5381775  30.2190638
  28.0585480  19.0565085  29.9693680  56.5294218  12.8150284  44.4082403
  55.8972931  12.2660542  44.8722172  56.0577917  13.6299098  44.2357254
  55.8095694  17.9365671  38.2835603  55.9054804  18.2995117  39.1640735
  56.4201307  17.1997452  38.2603979  33.4161091  19.9414587  21.5765691
  34.3627524  20.0815582  21.5548062  33.1380773  20.3136969  22.4134493
  18.7001216  66.5387154   4.6275300  17.9320168  66.6535425   5.1870483
  19.0327919  65.6699085   4.8527732  20.2269387  22.8733563   9.5467037
  20.3922772  23.3540750   8.7356526  19.3442190  23.1375432   9.8060143
  61.5196768  63.5942423  63.1190177  62.1250097  63.1404554  62.5326039
  61.0018007  64.1550028  62.5414510  30.7483983  46.3652325  13.5443652
  30.8018637  46.9474411  12.7864695  31.4585590  46.6530085  14.1180265
  65.2095747  20.6616688  21.9089317  64.6941423  21.4680743  21.9254351
  65.9024048  20.8332586  21.2711406  61.5898466  40.8075333   7.0227158
  60.8706999  40.6019497   6.4253902  61.6638041  40.0351954   7.5833011
  54.6045113  20.8306074  38.9962626  55.1360083  20.6738257  39.7767496
  53.7038946  20.6870651  39.2869878  60.7667255  18.7295055  18.0021548
  60.7744646  19.6808732  18.1073773  60.6968021  18.3903956  18.8945377
  66.1800978  58.2447405  13.1328511  66.6739580  57.8098960  13.8280082
  66.7412403  58.9698620  12.8579903  54.8891592  15.2948546  35.0708365
  54.5619106  15.7550120  35.8437514  55.0077343  14.3909395  35.3625727
  67.1552992   8.9990371   3.4344247  66.9656610   9.7010714   2.8119966
  67.4112797   9.4533074   4.2371351  62.7929354  27.1132207  29.1037393
  62.0889759  26.6790295  28.6219168  62.3709822  27.8662109  29.5174932
  34.0035939  44.3619919   3.4364539  34.9408579  44.5187473   3.5513160
  33.9527392  43.4893799   3.0463329  55.1058435  29.3494511  30.8732915
  54.6772861  30.0443649  30.3736281  54.7946596  28.5384774  30.4711485
  48.9139986  22.6023746  12.9525900  49.0786266  23.0844474  12.1421969
  49.3709850  23.1047273  13.6271548  22.3031092  32.2002411  30.2683616
  21.6178703  31.5365410  30.1897478  22.1631861  32.7789140  29.5188332
  47.6987771  77.7226984  64.3821879  47.7629654  78.4276831  65.0264748
  46.8350963  77.8381931  63.9860209  36.1422934  69.6629226  28.6956133
  35.4935278  70.1012218  28.1449522  35.7189287  69.5876014  29.5507874
  65.4171864  69.0585124  41.2825622  65.1891343  68.2239306  40.8730521
  66.1434714  68.8469708  41.8690695   0.5568422  67.3950421  69.4595024
   0.2119793  67.3346412  68.5686286   0.7499660  66.4898240  69.7034607
  55.3425121  19.8287439  24.1742659  55.4945803  19.4714332  23.2993746
  55.2508211  19.0584064  24.7349834  56.2330770  10.7933497   9.1114700
  56.2958193  11.6513777   8.6918479  55.6667376  10.9382451   9.8694229
  62.5405804  71.3355314  48.5761728  63.1422798  71.9649589  48.1786646
  62.7312557  71.3807237  49.5130982  12.9851498  61.8752253  53.3815815
  12.7351345  61.7253267  52.4698510  12.3040594  62.4536860  53.7247040
  66.1065960  22.2766972  31.4137936  66.8820000  22.8342032  31.4783454
  65.4586458  22.7015972  31.9758058  59.9669981   7.2918141   4.5832038
  59.2586231   7.6706648   5.1036918  60.7637548   7.6805735   4.9441385
  11.7950780  51.9678373  44.0770340  12.4140031  52.2820206  43.4179020
  11.9898755  51.0346122  44.1629314   2.7977051  58.5652005  50.2656998
   2.4724020  59.1526675  50.9478225   2.0111765  58.1492436  49.9127402
  17.8345544  77.7418612   1.7472620  18.3918721  77.5238867   2.4943358
  16.9419486  77.6198093   2.0706567  41.4791352   0.2981965  70.3535917
  42.1159894   0.7646672  70.8949336  40.6308324   0.6466548  70.6278002
  34.5104749  12.0434110  56.9743683  34.5831973  12.2123067  57.9137387
  34.9573237  11.2066810  56.8461563  81.1633015  38.7851501   2.8332451
  81.0369492  39.1255856   1.9475983  80.3907013  38.2434535   2.9941139
  34.3011737  20.9088850   4.1433915  33.5242867  20.5195594   3.7420142
  34.4715810  20.3649330   4.9123588  67.8149748  32.1245265   3.2118353
  68.4665203  32.7949977   3.4172264  67.6049042  31.7277527   4.0572196
  70.7340142  65.0375361  34.0302920  69.8363564  64.9424047  34.3487167
  70.6412491  65.4527493  33.1728411  54.8072974  36.5888401  63.7079914
  55.0426308  37.0146936  64.5323088  54.2074172  37.2025686  63.2840683
  84.1016022  75.0846374  63.4171172  84.0945737  76.0313212  63.5584404
  83.3557812  74.9231898  62.8392650  46.4988184  16.9205570   6.4689076
  46.9812250  17.0958126   7.2768688  46.4960289  15.9663117   6.3938057
  53.1502628   6.5746516  28.7570500  53.2136488   5.9465444  29.4765592
  53.9745235   6.4767641  28.2803464  52.2756290   6.7547566  22.6705837
  52.8951454   7.2199976  22.1084619  51.5023088   6.6276801  22.1209788
  12.8728783  30.8635783   7.6014179  12.5127506  30.4852176   8.4035301
  12.8467607  30.1479220   6.9662917  45.3179121  20.7359052  14.9034834
  46.0918999  20.1727223  14.9036586  45.5583763  21.4732885  14.3425250
  60.6190920  26.2070894   6.3071591  61.4947081  25.9278560   6.5746522
  60.0865173  26.1148763   7.0971566  49.7342062  22.0148730   0.3128622
  49.1376448  21.2933731   0.1134056  49.5215845  22.2594404   1.2135349
  49.8025799  43.3890724   9.3783820  50.4765224  43.7829018   8.8243741
  50.2758074  42.7550220   9.9171495  38.4843731  27.4803662   0.5375908
  38.4827232  26.8436289   1.2522894  39.4101071  27.6770258   0.3941556
  19.9862885  17.6720524  20.6502056  20.1719570  16.7675042  20.9023023
  19.3712938  17.9842532  21.3139415  58.4852552  33.1567764  30.7436705
  58.5093927  33.8414049  31.4122009  59.3712091  33.1443167  30.3815079
  75.0759840   0.4466004  39.5412946  75.7742453  -0.0138461  40.0067472
  75.1317453   0.1209368  38.6429262  60.2050344  80.8304417  63.6701615
  60.9116689  81.3689982  64.0263279  60.2043692  81.0253799  62.7330222
  43.7495367  71.4906942  66.6538643  43.6415843  72.3627197  66.2741922
  43.7617389  71.6408622  67.5991328  28.9698900  73.7693250  64.8183222
  29.6187319  73.4237873  64.2052682  29.2802633  74.6512019  65.0237282
  36.7364175   5.0231330  67.7465113  35.8736569   5.4250447  67.6447960
  36.8852431   4.5631139  66.9203987  22.5178242  25.0681543  24.9096823
  22.9428458  25.9203815  25.0060987  23.0744720  24.4657111  25.4030800
  37.8164911  78.5744286  16.3398218  37.1623158  78.2295752  16.9475734
  38.0836391  77.8163671  15.8200049  82.0714855   6.8508238   3.6376059
  81.9126892   6.8958420   4.5804682  81.5711784   7.5820237   3.2752812
  48.0746631  76.1595976  60.9534814  48.7213842  76.7215979  61.3802584
  47.3010008  76.2160909  61.5142723  79.9882952  35.8823520  61.9282712
  79.9592082  36.8230530  61.7537232  80.7791154  35.5802047  61.4815660
  26.9254231  64.4338989  11.0564053  26.9719028  64.0049028  10.2019835
  26.0417604  64.8000240  11.0928309  50.0407076  42.9125118  14.5257103
  49.5380831  42.5188780  15.2389121  49.5047998  43.6498499  14.2335355
  31.8846011  19.5509923   6.0291433  32.8237104  19.3657899   6.0265642
  31.8258548  20.4932022   5.8709627  78.8815022  52.6907587  12.6985002
  79.3285370  53.2618666  12.0738220  79.5136023  52.5695133  13.4070063
  19.4948566   7.8709525   3.6915556  19.7022104   6.9814581   3.4051356
  18.9797139   7.7516836   4.4894493  44.4869375  32.8889632  27.4386048
  44.0528631  32.8917360  28.2917190  44.0291739  32.2127724  26.9391537
  61.0649899  28.0838792  65.8782973  61.8813440  28.3740489  66.2852367
  60.4116120  28.7180965  66.1734177  82.6806927  21.4267111  13.7643063
  83.2746983  22.1344495  13.5143256  82.2504520  21.1752176  12.9470670
  43.3321571  22.0715427  10.7884800  43.0184078  22.3347330  11.6536510
  42.7869081  21.3205051  10.5542266  32.6591945  10.2696645  13.2158315
  32.9287839  10.8513749  12.5050807  31.7178011  10.1541269  13.0867577
  58.4022045   3.3951280   8.2541096  58.6932039   2.8852615   7.4980760
  58.3232021   2.7532715   8.9598078  41.8239784  33.0386662  15.4012811
  41.6087914  32.3210287  15.9970367  42.3509932  32.6300526  14.7146058
  40.9483290  25.7493854  15.3415549  40.6830215  25.6721115  14.4251084
  40.9997368  24.8457432  15.6530285  52.5138242   3.9287726  68.4111633
  52.6809175   4.7593371  67.9656561  52.4354989   4.1643636  69.3356066
  31.2557513  73.2083584  24.2006636  31.9796187  72.7150346  23.8148141
  31.4311702  74.1182191  23.9606357  10.0484753  20.9214735  21.3402462
  10.9170055  20.7294011  20.9866977  10.1586342  20.8659863  22.2894669
  61.9034052  29.7058749  30.1014900  62.0664549  29.6043921  31.0392261
  61.1535025  30.2986526  30.0515509  46.4332485  34.7434759  26.9329500
  46.0413265  34.0038943  27.3973298  46.9916153  35.1669645  27.5849581
  40.0167288  67.3283302  68.8858129  40.5717100  67.8638684  68.3188652
  39.5137896  66.7820155  68.2818128  59.2173481  41.6168594  11.8769825
  60.0025558  42.0166397  11.5030015  59.0687752  40.8361340  11.3434792
   4.0284593  53.1874795  18.0799508   4.0619595  54.1396613  17.9879761
   3.1116731  52.9635162  17.9200387  82.4974999  76.2745996  51.2870502
  82.0490560  76.8363042  50.6548977  83.4228525  76.3395096  51.0509586
  24.0170002  13.3109248  33.7700081  24.4027400  12.5345349  33.3642292
  24.7389245  13.9372253  33.8229513   0.6422390  36.8089556  64.2192294
   1.2282099  36.5952971  64.9453296   1.1140074  37.4745914  63.7186326
  68.9467684  63.8278806  71.3425829  68.0910055  63.8301551  70.9137512
  69.5760218  63.8142764  70.6214118  33.5717750  30.3346038   9.5280993
  32.7027774  30.3753734   9.1288328  33.8086247  31.2494779   9.6802217
  74.4443417  34.7354507  23.7769794  73.5289145  34.8797321  24.0165710
  74.8524141  34.4059253  24.5776820  39.1314513  80.0052263  18.3616352
  38.4725339  79.5285482  17.8568184  39.7132976  80.3813469  17.7011669
  48.3671808  16.6944051  22.7689552  48.0989456  16.3009501  23.5993004
  47.5954485  16.6188478  22.2077513  74.8631144   3.0598214   0.3090451
  74.1379309   3.6701328   0.4426818  74.4445133   2.2517562   0.0123347
  86.7888364  76.3492329  21.1454439  86.4568743  75.5990655  21.6386819
  87.4451170  75.9770955  20.5563426   7.6492316  62.5864990  23.3113956
   7.1949584  63.0722184  22.6229596   7.5767261  63.1443543  24.0858459
  60.2571297   4.3696287  14.0060937  60.1112032   3.4288198  14.1051710
  61.1955643   4.4497779  13.8353705  74.3260860  29.5411873   6.7249763
  74.5959997  29.2339587   5.8595347  73.5368156  30.0571799   6.5605485
  44.8386724   1.7465035  57.3029830  45.6518752   2.2267978  57.4587156
  44.2789466   1.9763772  58.0446662  53.1511752  36.9353851  69.2668145
  52.4926893  36.7281064  69.9298850  52.7679578  37.6551419  68.7654890
  60.8887474  75.4480779  67.4464788  60.1339332  75.9930884  67.6688583
  61.6436521  75.9430086  67.7649008   7.1403927   0.2956375  10.1052272
   8.0786377   0.2525031   9.9206549   6.9202304   1.2224559  10.0115883
  78.6057186  32.0668149  24.5864177  77.7892494  32.4484396  24.2639685
  79.2411089  32.2381544  23.8913298  57.0082712  17.6981747  43.7718391
  57.8835201  17.6754034  43.3850002  56.6215086  18.5091245  43.4416771
  14.3650389  38.4940171   9.4170892  13.5971177  39.0629077   9.3632972
  14.2299676  37.9842257  10.2159011  28.4200835  78.0152750  16.4589679
  27.9743552  78.4986115  17.1546292  28.6174464  78.6770058  15.7961023
  11.1474717  42.9254198  19.0649450  10.9013522  43.6841488  19.5940781
  11.9446290  42.5936842  19.4781327  16.8348372  20.2342725  22.0745993
  17.4081135  19.5744920  22.4648261  17.2479236  21.0697269  22.2927904
  64.0401316  19.1002667  24.1213846  64.6583366  19.4891143  23.5026312
  63.9786148  19.7388685  24.8317623  71.8851328  29.1564560  17.6937747
  72.0769644  28.7706566  18.5485196  71.2546301  28.5560322  17.2960496
  44.6472625  81.6345250  59.4467403  44.7391907  82.5749766  59.5994665
  45.1914302  81.2280309  60.1211848  64.7483015  34.0676808  28.9321852
  64.8592567  33.3711982  28.2850122  64.4829321  34.8311019  28.4193516
  65.1225519  33.4780955  44.2876148  65.5981493  32.6491022  44.2346191
  64.5574522  33.4798384  43.5150242  69.1451216   8.2864189  40.2359724
  68.3382034   8.0276674  40.6811285  68.8660622   8.9406472  39.5953941
  68.9621870  37.4612468  51.7196502  69.5781199  37.6494792  52.4277653
  69.3369261  37.8968870  50.9541311  62.6131169  71.2319028  69.5412571
  62.6292364  71.3680327  68.5939238  61.6835705  71.2448823  69.7693101
  86.6862456  72.9572069  58.6740162  87.6145331  72.8845393  58.4521295
  86.6712729  73.4869659  59.4711127  48.5166740   6.6225505  32.8795767
  48.4993839   7.5786865  32.9212642  49.4369984   6.3937479  33.0095148
  28.4362555   0.4427112  16.0681736  28.9257574  -0.3779898  16.0127687
  27.9313445   0.4757615  15.2556443  14.0591825  51.6471493  67.2079702
  14.1234220  52.5236833  67.5871717  13.6137308  51.7802178  66.3712536
  84.8296086  50.3428590  70.1043774  84.3022267  51.0075473  69.6613331
  84.2654912  50.0181597  70.8062120  59.7244358   2.8857034  18.6053848
  58.8328409   2.9702315  18.2675219  60.2688789   3.3365893  17.9600060
  25.9547240   9.0307061  62.5655677  26.1001021   9.2935149  61.6567077
  25.4788167   8.2026116  62.5022365  54.2551756  51.2135315   0.5826703
  54.5836449  50.4864550   1.1115346  54.5325756  51.0052490  -0.3094609
  80.0556294  46.0981643  47.8156962  80.0339142  47.0441246  47.9603328
  80.4195515  45.7403433  48.6254849  49.1410542  65.3336906  13.7676513
  49.8428392  65.2265406  13.1255829  49.5176888  65.0180006  14.5890641
  37.1745545  80.8020936  21.0428834  36.2421758  80.9825182  20.9231043
  37.5737388  81.6654524  21.1501098  79.5036411  31.8064427  27.1318626
  79.5634794  32.2639632  26.2932181  78.6743164  32.1021533  27.5073814
  46.4636469  10.6948686  27.5461245  45.9776068  11.0660410  28.2824850
  45.8079243  10.2070022  27.0478797  71.9907824  74.6973884  67.4405386
  71.2035386  74.8567497  67.9611944  72.6823107  75.1737296  67.9000156
  28.8465476   6.1623460   0.7990444  28.1647015   5.9327197   0.1677039
  28.3720541   6.3323551   1.6127926  73.1444597   4.3475756  21.2630391
  72.6560211   4.7011071  20.5196190  72.7429867   4.7565755  22.0297003
  31.6640902  33.9788723   6.0514939  31.2279058  34.7930050   6.3028103
  32.4279881  34.2617178   5.5488074  19.9457741  23.4750056  25.1713538
  20.2170730  24.3138242  24.7985125  20.7435679  22.9461122  25.1768684
  32.6151395   1.1418929  42.8591013  32.7211547   0.6808546  42.0269775
  32.5258112   2.0626202  42.6131058  27.7936656  78.5874499   6.0003728
  28.5639722  78.7726839   5.4632080  27.0561749  78.9041532   5.4788005
  53.2419960  75.9342396  27.6804270  53.0117051  75.4607951  28.4798350
  54.1207091  75.6233298  27.4626412   8.4654058  68.4339225  59.0908374
   8.4470238  67.7674591  58.4040202   7.5479378  68.5474622  59.3390204
  64.8845450  31.9465816  64.3672009  64.1952626  32.4087232  64.8442187
  65.6334941  31.9523221  64.9632480  10.9119286  54.7050559  66.5738498
  10.0874628  55.1375877  66.3515778  11.2017263  54.3058621  65.7535483
  35.1573873  52.1899748   8.0780190  35.1348782  52.2835732   9.0303659
  36.0232472  52.5110722   7.8261948   9.2396766  25.0897789   5.5847776
   8.7090230  24.3419266   5.8592921   9.1958207  25.6982207   6.3224119
  63.1478786  20.5900931   6.5378749  63.8078403  20.8191633   7.1922505
  62.3439932  21.0025787   6.8538773  83.1649113  21.0443330  20.1144409
  84.0000153  20.9911656  19.6496665  83.3441544  21.6107273  20.8649755
  65.7153845  41.7090321  18.9109921  65.3016043  41.2339020  19.6315980
  65.6901407  41.0974360  18.1750941  31.8956161  18.0779386  13.1752181
  31.6245365  18.8630438  13.6509883  31.2492275  17.9870033  12.4751151
  81.1741892  74.9478733  60.7585539  82.0686690  74.6948421  60.5302741
  81.2537400  75.8465015  61.0785057  37.3009419  57.8223276  20.1793361
  37.7893758  57.0067549  20.0675273  37.8463101  58.4875917  19.7595394
  28.4013380  68.3151018  56.2547399  29.2183031  68.4126913  56.7438926
  28.5639872  67.5824964  55.6605472  21.4815378  48.2177639  25.5020070
  21.8091249  47.9130650  26.3482213  20.5291533  48.2120514  25.5977106
  70.9054248  63.7559783  69.2870523  70.5099217  63.2511437  68.5764544
  71.6763226  64.1628468  68.8915631  42.0870304  12.5577211  11.0940242
  42.1071291  13.0224955  11.9305730  42.2857428  13.2296336  10.4418910
  41.6132402  22.1550035  31.5212560  41.5459776  21.9726229  32.4585104
  41.0070658  22.8811049  31.3744330  82.8577725  46.9029468  59.7863664
  82.0902650  46.4675861  60.1573433  82.4967209  47.6067513  59.2473544
  72.3102245  51.4694042  27.5076675  71.4148721  51.7624230  27.6771188
  72.7780888  51.6444154  28.3241892  46.7789316  18.8191724   3.2998851
  46.3203478  19.2716944   4.0078074  46.1251688  18.2240307   2.9329616
  55.0556946  26.8625188  19.6716714  54.8780870  26.1234450  20.2534413
  55.9994841  27.0040727  19.7455549  25.7859969  53.9180756   1.9082440
  25.1159167  53.2909441   2.1801424  25.3012490  54.5999575   1.4431788
  34.9768448  55.4986572   7.4986720  34.7646546  55.0252199   8.3030772
  35.2880168  54.8219347   6.8974626  61.2868786  38.8960433  21.8201065
  60.3301096  38.8676023  21.8244100  61.5192652  38.9996600  20.8973455
  78.4909773   1.6062072  37.3856544  78.8692474   0.9286720  36.8252182
  79.0901470   1.6634540  38.1299329  44.1473634  27.6342122  56.8024327
  43.8082749  27.4334638  55.9301068  44.7072227  26.8886869  57.0191874
  17.8247990  65.8708417  68.8253042  17.1010174  66.4755141  68.6617708
  18.0247892  65.9824335  69.7547032  79.2082310  42.9046869  55.0625706
  78.4901810  42.3047161  54.8608923  79.8748922  42.7104044  54.4037485
  71.0444752  52.2630441  51.8352761  71.7668740  51.9166624  51.3114538
  70.4156558  52.5879716  51.1908831  30.8827312  68.0306239  57.4390650
  31.7259891  68.1609757  57.0052958  31.0393102  67.3170538  58.0575562
  17.5992305  20.0652091  59.5580139  17.2512633  19.4596545  60.2125778
  17.3699862  19.6675746  58.7180342  25.1435102  69.7164905  49.9084820
  25.1870646  69.5470392  48.9674081  24.4786467  70.3992068  49.9983992
  48.8955028   6.0972182  67.7703147  48.3189589   6.3730208  67.0577397
  48.3005626   5.7927386  68.4555658   0.9233763  65.1903582   2.8826225
   1.6551045  65.7708597   2.6732910   0.5658009  65.5403948   3.6986148
   0.0595376  24.4626188   9.9416476   0.8611581  24.1745090   9.5050275
  -0.3076842  25.1245189   9.3557566  78.8108921  21.0438204   2.1629299
  79.7608852  20.9969950   2.0554633  78.6318398  20.5180860   2.9425281
  17.7741945  30.0969338  11.3817668  17.2000027  29.6557283  12.0077658
  18.0020297  29.4183660  10.7462597   6.6883085  53.0744886  17.0892358
   5.8361146  53.3457470  17.4304271   6.4818094  52.5711489  16.3016868
  78.2352495  40.1744890  14.5027709  78.1100702  40.2964067  13.5616553
  78.5206461  41.0315228  14.8194385  52.8152466  76.2680960  24.8824000
  52.6173592  77.2023010  24.9482155  53.1674528  76.0367441  25.7418513
  31.7969758  28.1573216  70.4385480  32.6099927  28.6077563  70.6673421
  31.1669690  28.8620250  70.2878420  67.0596409  31.6346931  19.9573183
  67.0124197  30.9036970  20.5734730  67.2594833  31.2256742  19.1152978
  49.3504953  58.8829851   5.7072979  49.0162230  59.7487164   5.9418243
  49.7787094  59.0127373   4.8611143  16.9227607  14.5419089  34.8087611
  17.0070607  13.7559239  35.3485288  17.8031880  14.6913831  34.4641699
  65.3390741  27.7918196  31.9994307  65.1154375  28.6878371  31.7476964
  66.0985184  27.5737143  31.4591455  79.9333906  30.7364273  14.7333956
  79.3129826  30.3472614  14.1170526  79.8263597  30.2254868  15.5357146
  78.7651984  56.1861813  65.7019140  79.1726462  55.9803903  64.8605635
  79.0800587  55.5031144  66.2939583  35.1145506  62.1477032  25.0125074
  35.6453776  62.3491001  24.2418623  34.5107508  61.4666653  24.7161198
  80.1520920  17.8573740  35.5873418  80.3024769  17.4625731  34.7284198
  79.4649506  18.5062718  35.4356837  72.6313877  36.5747666  17.3090827
  72.1366596  35.9419823  17.8297150  71.9623423  37.0812345  16.8485403
  61.1055231  38.5861659   5.3420466  60.6151628  39.2112637   4.8081633
  60.4336548  38.1042552   5.8243185  69.6816397  58.4668398  14.5563817
  68.9405727  58.0441904  14.9904585  69.8559141  57.9182434  13.7915921
  40.9002168   5.1337592  70.7468465  40.4621036   4.4373672  71.2360535
  40.4116399   5.9263532  70.9689375  53.1311560  35.4144430  17.2004008
  53.8702250  35.1841378  17.7633953  52.3957062  35.5235171  17.8032684
  71.0687017  26.5506744  29.5111036  70.7909727  27.2524047  30.0998950
  71.4842224  27.0039320  28.7775302  23.2501139  80.5544602  59.6400751
  22.6249613  80.5582606  58.9152266  22.7777971  80.9623658  60.3658571
  19.2656047   2.7739970  64.7718086  19.8917443   2.3357884  65.3481348
  19.2222936   3.6709945  65.1031007  85.1943588  51.5128708  13.0053532
  84.6654224  51.2720871  13.7659383  85.1300907  52.4668932  12.9612541
  35.0005889   9.9308711   3.6191231  35.9192467  10.1592445   3.7610540
  35.0245142   9.0283334   3.3011854  60.4739952  39.1388607   9.1956234
  59.8179483  39.1936970   9.8904824  60.0191736  38.7112284   8.4700185
  70.7823515  37.8826451  32.9330397  70.5488396  38.0180120  33.8513970
  71.6379499  38.3014297  32.8392220  46.6853142  53.4649372   1.0071553
  47.1683407  52.6856232   1.2820823  46.7058372  54.0413380   1.7710745
  80.2188778  40.7792616   6.4714789  81.0897446  40.4979038   6.7519450
  79.9153423  40.0788689   5.8939415  15.3750131  46.6638613   5.2793205
  14.8185632  47.2671318   4.7867104  16.2098882  47.1241093   5.3652930
  42.9100568  10.6243722  67.8268273  42.8900439  10.4935853  68.7748386
  43.7414033  10.2394692  67.5494431  51.3759851  27.4213958  13.6014283
  51.0334778  26.6484261  13.1526101  52.1619654  27.1093416  14.0498614
  19.7029079  68.1034004  64.8323109  20.3736223  68.4586989  65.4155268
  19.6057476  67.1914732  65.1065018  44.4082982  23.0160157  56.6909458
  44.3493087  23.9450948  56.4683308  44.4877870  22.5720088  55.8466865
  75.3961522   8.7285344  54.1854383  76.0461576   9.4311301  54.1945614
  75.1820237   8.5883538  55.1077892  71.2271500  48.5670090  37.1969843
  70.9090948  49.4665718  37.2735167  71.9432831  48.6191988  36.5640068
  71.0378790  41.4822674  36.9812489  71.0119534  42.2045088  37.6088810
  71.2019777  41.9037962  36.1376762  48.9424849  43.2389593   0.7291408
  48.6444807  43.9196444   0.1257377  48.7010098  43.5649729   1.5961111
  72.7349138  60.1157331  16.9714808  71.8172741  60.3794241  16.9034052
  72.8567648  59.4867420  16.2603176  54.3712473  27.5394917  12.0288765
  54.1437340  27.0348310  12.8097653  53.6366701  27.4001431  11.4312088
  57.5860500  32.3172259  18.8305759  57.6033592  31.3669825  18.7166893
  57.5447369  32.6645255  17.9395616   1.6958234  48.8992310  35.3800869
   1.0776136  49.5258045  35.7561994   2.5019452  49.0287828  35.8797026
  64.5262289  29.2723703  35.0079918  63.7731647  28.6847925  34.9457240
  64.2271757  30.0883484  34.6067691  29.2778975  13.8689582  51.6124822
  29.8599298  13.4334819  50.9897246  28.9438540  13.1610744  52.1634306
  20.8328247  49.6199846   5.3255957  21.1300349  50.3554440   5.8613199
  20.5753469  50.0180387   4.4940364  28.4086997   1.1179177  44.4006457
  27.5555093   0.8412616  44.0663447  28.2246978   1.4542453  45.2777185
  14.0123460  17.1688461  64.9797249  14.2905996  17.5735974  64.1581535
  14.0391252  17.8810370  65.6187105  74.3808937  29.7573423  34.2968225
  73.5725784  29.6503186  34.7982264  74.4885063  30.7049775  34.2153382
  12.9246416  21.0858755  21.4299917  12.7804890  20.1650839  21.2118316
  13.3153811  21.0666971  22.3035979  61.4851713  44.7700977  58.8762665
  61.1422014  43.9115953  59.1244221  61.0435438  44.9753761  58.0522156
  56.2732506  35.9358644  15.3356326  55.8995962  36.8019295  15.4985583
  56.2051392  35.4835796  16.1764836  26.7360217  17.9580800  66.9904788
  26.7258842  17.1551148  66.4695402  27.1223504  17.6964824  67.8262721
  44.5558786  34.4680762  17.7240646  44.5535469  33.8266635  18.4345675
  43.6370945  34.7166991  17.6228201  34.4966817  78.2450628  10.5375707
  34.9308419  78.9353943  11.0387504  34.3411398  77.5480604  11.1749303
  84.2921988  65.4917442  53.9830377  83.4594361  65.0629651  54.1802289
  84.0447156  66.3032782  53.5398723  37.9950309  62.6217699  37.2397923
  37.3744369  62.4089622  37.9367900  38.7768292  62.1115351  37.4511790
  81.0482257   1.0546808  18.6072576  80.9040778   0.6076174  19.4412756
  80.9870856   1.9857340  18.8208818  59.3194532  50.1924658   8.2279199
  60.2321100  49.9303961   8.3487844  59.0765810  49.8287916   7.3764604
  20.0977046  13.9010779  56.2233045  19.6535403  13.1322639  55.8657088
  19.4130761  14.3753783  56.6950633  51.9443369  64.7876501   6.5508038
  51.0234308  64.6617460   6.7795235  52.4275446  64.3909502   7.2756308
  80.7937717  60.4022455  52.9199934  80.4709053  60.5347776  52.0286894
  81.4995098  61.0416365  53.0166435  43.8428456  81.7751205  35.9123826
  44.3475778  81.1033571  35.4538965  43.0603463  81.3180682  36.2206531
  65.9582186  57.5743675   6.6006023  65.7052708  56.6625500   6.7449325
  65.7041025  57.7529812   5.6952000  19.5620359  53.2412910  66.1673402
  18.8294567  52.7142965  66.4864622  19.2937721  54.1461014  66.3272997
  76.4775372  20.5477786  33.4887338  75.7580519  20.6202602  32.8615808
  76.8677711  21.4216161  33.5075951  76.3488729  29.8428838  70.4662786
  75.4903371  29.6816270  70.0749341  76.4110906  30.7963912  70.5227031
  39.9013907   5.4654805  52.9552986  39.9532468   5.1095073  52.0682659
  39.0183885   5.8299892  53.0158557  17.9088247  64.6886301  19.2556071
  17.6836491  65.5997896  19.4435227  18.8199580  64.7222900  18.9641714
  31.5488482  29.0730214  24.2202401  32.3908925  29.2288876  23.7925744
  31.3243890  28.1724358  23.9861465  24.0799379  40.8780622  31.5542889
  23.5676098  41.0982466  32.3322821  24.9089909  41.3411570  31.6744971
  58.7811136  79.2477703  24.6603703  58.8472223  78.6016989  23.9571977
  59.5964336  79.1505814  25.1523495  30.2048969  32.3047876  30.9974909
  30.1109529  32.6636124  31.8799043  30.1715636  33.0697465  30.4230690
  49.2935038  37.0448399   5.0640267  49.6018839  36.1484957   5.1970655
  48.7903214  37.0067739   4.2506456  81.6587830  20.5050063  24.4945312
  81.1713886  21.3270521  24.4404745  82.5313759  20.7218862  24.1662335
  66.4759064  49.6312666  19.2812157  66.2286091  50.5556011  19.2551339
  65.7245636  49.1935158  19.6813238  73.7240601  72.1767950  13.1412780
  72.9392385  71.6300631  13.1782603  74.4508839  71.5569067  13.2020688
  63.0477667  68.7802172  11.2563956  63.3845949  68.7595606  12.1521366
  62.2177792  69.2522955  11.3234401  72.0151377  24.2670107   9.3404740
  72.5957489  24.7223067   9.9502468  71.3702583  23.8353348   9.9008536
  80.0043074  37.2322240  70.6717291  80.1727358  36.5053516  71.2713298
  79.4766633  37.8464415  71.1821791  34.7034168  73.8100672   5.8942324
  33.9578342  73.8068104   6.4945054  34.3750525  73.3846188   5.1021451
  72.6936340  39.2557335  38.0084538  72.4047947  39.5210338  37.1352887
  71.9579411  39.4738412  38.5806537  33.7690678  57.6620670   4.5312677
  33.2575646  58.1699462   3.9014612  33.8062516  56.7824014   4.1557203
  47.8565127  23.0157821  66.1465548  47.0246846  23.1786792  65.7018514
  48.0181081  22.0811908  66.0174741  60.4394579  32.2510076  25.1303935
  61.0636854  32.4395680  25.8311176  60.8669329  31.5752268  24.6042585
  15.4879481   1.2979714  58.0557277  16.4199359   1.0947721  57.9760982
  15.3924520   2.1527926  57.6357355  42.7015638  41.1062956  21.8695855
  42.2154999  40.3907251  22.2793889  42.9839134  41.6542673  22.6018667
  10.2901974   2.4400930   9.0453434   9.9950829   1.6555815   8.5830891
  10.8718243   2.1100168   9.7301722  69.9527121  49.0568876  28.5253096
  69.2073917  49.5600986  28.8531947  69.7458506  48.8946152  27.6049256
  62.9478693  62.9801512  35.4791546  62.6495504  62.5307322  34.6884203
  62.8640413  62.3257351  36.1726546  62.8644562  25.7764363  35.8853459
  61.9446707  25.5127835  35.9119344  62.9364252  26.3154960  35.0976491
   8.2835872   4.8533456  55.8960118   7.6316125   5.1011960  55.2404739
   7.7811987   4.7412841  56.7030312  13.3988569  37.6108146  15.9760737
  12.8369329  37.3545313  16.7073667  13.9305780  36.8347836  15.7991815
  76.5157208   6.6936891  59.6607305  77.2571454   7.1790759  60.0225605
  76.3756964   7.0797746  58.7961139   0.5464361  40.3237486  17.8431976
   0.0338647  39.5600653  18.1083167   0.6796548  40.2079439  16.9024146
  15.4316035  17.5927477  10.9354019  16.1364069  17.0806723  11.3319683
  15.7963744  17.8997259  10.1053786  51.1777544  70.8886194  11.1884439
  51.7952442  70.4122925  10.6334174  50.5790520  70.2158737  11.5127861
  68.2200623  64.0344667  16.5258098  68.4760141  63.6947203  15.6683171
  69.0450001  64.1286755  17.0020795   8.9055790  55.4411995  69.9186100
   9.6693911  55.8196437  70.3540483   8.8080706  54.5756089  70.3154435
  38.8097239  67.6763391   8.9279920  39.3185639  68.4546185   8.7008381
  38.2978845  67.4868965   8.1416315  44.3251085  47.0814896  21.6644168
  43.6448479  46.9400597  21.0060334  44.9628830  47.6491642  21.2317181
  58.9267206  34.5360732  49.4803715  59.7014904  34.0105247  49.2809629
  58.6750937  34.2662239  50.3636026  57.2404734  34.9803453  70.1100652
  57.0663802  34.5170110  69.2907705  58.1320373  35.3144556  70.0114916
  63.8828516  30.9811139  12.4056220  63.8503885  30.2485585  13.0208778
  63.1741238  31.5604734  12.6854181  30.5729768  58.5873032  30.1194096
  31.4631078  58.2372952  30.0821161  30.3138730  58.6810207  29.2027259
  59.7551632  36.1774206  32.8359365  58.8869667  35.8734822  32.5711966
  60.0566673  35.5222774  33.4653139  68.5228586  44.6200752   1.5044910
  68.9344072  44.0938759   2.1900389  67.7847576  44.0889835   1.2055223
  80.8734417  44.0426540  40.5715322  80.7770061  44.6697998  39.8548579
  80.3424835  43.2918358  40.3058529  37.4709320  42.8214693  23.5532570
  38.2250190  43.3009434  23.2101965  36.7545104  43.4559631  23.5335517
  62.6456356  56.9086695  21.0498905  62.7959681  57.2747707  20.1783395
  61.8371916  57.3252106  21.3484645  47.2351265  26.6284895  14.3270886
  46.6294098  26.8381953  15.0379753  48.0236387  26.3138866  14.7692525
  37.4135739   6.4615409  49.5085182  37.4835116   6.8451516  48.6343421
  37.9633862   7.0188252  50.0593128  77.0266533  50.4003286  34.2721772
  76.1830330  50.2430058  33.8481665  76.8121386  50.5116892  35.1983595
  71.8868462  66.8499267  65.8254947  72.2397534  67.6394331  66.2358178
  72.4224869  66.1381089  66.1756875  78.0805699  65.5084145  58.1057479
  78.5313336  65.2762162  57.2938802  77.1770064  65.2242386  57.9677357
  86.5259759  65.9530627  64.1184362  87.3152272  65.4886472  64.3970563
  86.5859048  65.9755885  63.1633796  17.8753294  76.1290800  57.6085104
  17.3971428  75.4746806  57.0992615  18.7572397  76.1245310  57.2364332
  15.4080484  11.5302944   6.0187697  15.1001356  11.2101400   6.8666637
  16.0927865  10.9120262   5.7635891  51.5558100  16.8488538  17.8998864
  51.9629383  17.6309478  17.5273168  52.1168518  16.1277199  17.6145244
  64.7115850  40.4161930  26.3791275  65.2460670  41.0172749  26.8980336
  64.2973852  39.8448133  27.0258045  65.3260517  31.2821651   8.3876139
  64.8823261  32.1185899   8.5280871  64.8600435  30.6659436   8.9527154
  32.5640535  13.5219359   0.8432543  31.8886900  14.1784203   1.0139705
  32.0777869  12.7106011   0.6965814  68.0821419  44.5328760  15.3773391
  67.6915693  44.5654249  16.2506235  68.9690065  44.8719168  15.4988205
  35.3031880  76.1151184  45.5019474  35.2341802  76.2768359  44.5610332
  34.6772105  75.4108555  45.6704712  37.3573548   7.5673263  37.8025736
  37.7331597   8.4285562  37.6201286  37.6890094   7.3404471  38.6713423
  67.9077244  40.2084255   6.7186594  68.6201382  40.7445574   7.0668888
  68.3435631  39.5635200   6.1615461  50.1469564  48.8387442  23.4597754
  49.8135090  48.7029839  24.3466878  49.3634510  48.8632011  22.9104543
  13.4420392  46.4065647  13.7151301  13.4297464  46.0852194  12.8135669
  14.2918203  46.1285830  14.0569258  71.7052364  29.6920133   3.4770682
  72.0985079  29.8155308   4.3409610  72.2068930  28.9769721   3.0855513
  45.5631685  40.3450203  21.8690729  44.6257162  40.5378532  21.8540597
  45.7608700  40.1891279  22.7925682  26.5131474  53.8882923   5.1211715
  26.9500446  54.0302896   4.2814159  26.9869304  54.4489861   5.7354861
  43.6144876  57.7136803  15.3722084  43.6584044  58.5639238  14.9347341
  44.3159676  57.2010899  14.9704492  72.8061771  44.3796825  33.0623293
  72.2859001  43.5903788  32.9121757  72.1839190  45.0997829  32.9599524
  15.2711398  18.0497758  68.0728315  14.8933513  18.7979476  68.5351606
  16.2047679  18.0862920  68.2807745  16.7497744  51.6155803  68.0348330
  15.8555998  51.3180899  67.8669383  17.2057070  50.8363401  68.3528595
  50.7843035   0.7878427  33.5189366  50.9785431   1.7001562  33.3040071
  50.3230565   0.8320742  34.3565083  59.1013861  31.8477774  11.2741923
  59.2864990  30.9781480  10.9196365  59.5418501  31.8587089  12.1239591
  52.4936349   9.0556829  66.3015484  53.3489282   9.0164773  65.8735629
  52.5862939   9.7449510  66.9592406  58.9175740   5.1130133  16.1841297
  59.1760102   5.0702982  15.2634656  59.7452488   5.1356726  16.6644216
  75.1298428  75.0256872  47.4377537  74.2198133  75.1007938  47.1506405
  75.3623152  74.1141272  47.2609806  68.0046463  74.1084909   7.0343411
  67.4362278  73.6455059   7.6497906  68.7690830  73.5401392   6.9402975
  72.5426531  69.7083330   6.7410338  72.9666662  70.4785347   6.3625741
  72.2659969  69.9912500   7.6126134  75.7355165  64.0631008   9.1434342
  75.0501490  63.5828829   9.6080792  76.5500879  63.6388111   9.4130313
   4.7546289  57.1534777   6.4546722   3.9895532  56.5973759   6.6017914
   5.2469823  56.7062616   5.7663321  14.1368291  64.0892601  22.6632476
  14.2699239  64.1234732  23.6105323  15.0125501  63.9486599  22.3032737
  61.5631104  63.6909533  23.6726880  61.7092323  63.9066410  22.7516246
  61.1710835  64.4811153  24.0444350   8.9935396  69.6408176  11.4860368
   8.6552617  68.9686298  12.0776188   9.8689363  69.8357582  11.8205643
  84.5981503  50.0146341   3.2281002  83.8320446  50.1994658   3.7713715
  85.3263378  50.4271650   3.6926311  61.0522897  12.1591298  55.4292931
  61.8306691  11.7855851  55.0159873  60.9395177  13.0089728  55.0035180
   9.7921941  50.8285141  10.7195628   8.8593290  50.9251213  10.9110332
   9.8248956  50.1993895   9.9988919  50.1281404  44.9928808   3.1749624
  50.1498652  44.1013479   3.5227156  50.9869003  45.1128149   2.7695239
  81.0436153  24.3851137  14.0080321  81.4679241  24.4990420  13.1576109
  80.9979057  25.2687430  14.3731904  73.7331390  42.7889633  48.2148695
  73.6092997  43.5281181  47.6194334  74.4103718  42.2563362  47.7978611
  86.6301101  13.8492613  33.1410360  87.0678275  13.2489805  32.5374651
  85.7097810  13.8233595  32.8792024  28.8694134   3.0896978  10.1509154
  28.9167824   3.2719450   9.2124194  29.7133961   2.6894693  10.3600729
  84.4700146  36.9141197  25.1176906  83.8401890  37.3206973  25.7128763
  85.1356697  37.5874162  24.9769592   6.8055055  26.2542963  33.5930014
   6.7177293  25.3200269  33.4041357   7.4454400  26.2959075  34.3036246
  62.1367168  58.7717533  18.5122180  62.3447514  59.3657494  19.2334163
  61.2937784  58.3878422  18.7536788  28.7665024  30.1199942  62.3336458
  29.5737210  30.5750113  62.5735998  28.1666603  30.8184271  62.0716953
  18.6742303  73.4444380   0.0929740  17.8369806  73.8330603   0.3463802
  19.3251703  73.9208841   0.6082573  15.9911725  55.6324005  25.5579829
  15.6879327  56.5241909  25.7282495  16.4075372  55.3607273  26.3759518
  55.3439385  17.2555987  66.2333389  55.4139287  17.6383321  65.3587808
  55.2871377  16.3127486  66.0783200   5.3229234  72.9423332  27.9045892
   5.5933378  72.8194237  28.8145351   4.7510526  73.7096167  27.9262257
  80.6213474  58.0233574  27.8488731  80.9222984  58.7733936  27.3359275
  81.3374043  57.3907852  27.7909827  14.9549355  77.6381433  61.8515732
  15.4676212  76.9107019  61.4991339  15.6079782  78.2892859  62.1080579
  76.1982822  31.5311265   7.5457335  75.6027555  30.8001828   7.3805004
  76.7968988  31.5259051   6.7988318  76.7936087  76.9477320  46.2861395
  76.1588860  76.2531519  46.4619589  76.4155388  77.7266264  46.6943312
  55.6155920  48.0734110   0.0345478  55.2868700  48.6660242  -0.6414558
  55.8538628  48.6483288   0.7618230  55.8214903  58.3662987  27.0991015
  56.7252779  58.5141850  27.3775458  55.6965303  57.4210405  27.1833849
  54.5732498  64.4806433   5.6893593  54.3071795  64.6012449   6.6008937
  54.2177773  65.2433825   5.2331764  18.0667645  39.3009536  66.5278621
  17.3452861  39.5650165  65.9569188  18.8145596  39.8141448  66.2218036
  83.5729694  39.2793822  22.5475836  84.2214775  39.4735098  21.8708348
  83.1809998  38.4504247  22.2729540  18.8235290  14.3514649  66.9942804
  17.9127652  14.0919606  67.1335794  19.2185027  14.3163554  67.8654827
  10.9281149   8.3814650  12.6463389  10.1081601   8.6825781  13.0378056
  10.8280554   8.5626154  11.7117774  71.0777712  68.6139965  27.2559738
  71.4313316  67.7582836  27.4988365  70.4637194  68.4266949  26.5459776
  60.0312764   9.7742145  63.5011675  59.7820813   8.8621966  63.6507084
  60.9884221   9.7646205  63.5045560  24.4117022  44.1237020   3.6854255
  23.7376165  44.3439531   4.3283322  25.1397562  44.7100258   3.8913172
  80.1157093  71.2474203  14.4024849  80.8763599  70.6896877  14.2394650
  80.4720497  72.1352577  14.4340158  80.8663552  27.2599535  10.4090106
  81.4365142  26.7848711   9.8044884  81.4422505  27.8984194  10.8296537
  63.1951380  67.9118872  38.3687925  63.7002182  67.2132397  38.7847471
  63.8505173  68.4481812  37.9225922  10.1482764  20.2599173  27.5254726
  10.7179060  20.5079012  28.2536578   9.2610445  20.3623610  27.8697944
  54.4574881  63.3382988  31.5226746  53.8542986  64.0686417  31.6604614
  54.0707111  62.6125431  32.0124841  74.8190784  38.0633950  53.4688997
  74.5228386  38.0686235  52.5587082  75.2995872  38.8851619  53.5691118
  80.3266907  50.2408743  17.2404075  79.7360182  49.6575356  16.7639041
  81.0539341  49.6789455  17.5079679  87.0033932  37.7162218  17.8869617
  86.5895081  37.3968220  17.0851445  86.3596249  37.5435662  18.5739720
  69.4772870  13.4180610  58.4111835  69.0467507  12.6866881  58.8538577
  70.0814969  13.7711303  59.0642585  10.6462285  11.5068400  45.2112627
  11.3811776  12.1160948  45.2811623  10.9597490  10.8198142  44.6231031
  67.7921438  42.6234341  20.3631759  67.5890112  42.1028280  21.1403084
  67.1517134  42.3398113  19.7107649  73.9603519  38.2313800  12.4848080
  74.7432089  38.2325959  11.9340229  73.7938261  37.3056412  12.6623166
  15.7148549  30.9724522  30.4484820  16.4030835  31.5881634  30.7004356
  15.3516385  30.6660700  31.2794089  51.2477112  63.4710693  26.4493108
  52.1537352  63.6564016  26.2023234  50.9585571  64.2595863  26.9085097
  41.9435880  11.1761594   2.3636074  42.1365926  10.6694078   1.5748195
  41.9492528  10.5306315   3.0703568  66.1355162  33.3599591  14.9826860
  66.8651438  33.0114794  15.4949713  66.3513660  33.1382084  14.0768898
  58.6087281  29.8829858  60.3260412  57.8807313  29.3224780  60.5945398
  58.9246327  29.4915883  59.5116438   1.8300802  19.7352616  42.6055707
   2.7553255  19.4920127  42.6369418   1.7273004  20.3773992  43.3079447
   9.0604407  22.1436135  51.5423848   9.5394737  21.5620248  52.1327366
   8.8958246  22.9301517  52.0624735   6.9321639   1.9050853  68.2297693
   7.0461995   1.0912959  68.7206595   6.2033970   2.3473184  68.6651565
  81.2501335  53.7215996   7.0812726  81.3452244  54.4320250   7.7156901
  82.1247196  53.3376360   7.0187873  69.5580181  17.9879010   3.8283811
  69.4501575  17.0640147   3.6024700  70.4566177  18.0520451   4.1518579
  76.1735535  43.6867905  24.3805671  76.3755751  42.8188133  24.0312290
  76.3636112  43.6185837  25.3162265  82.6352882  23.9103770  27.4586272
  82.6716232  24.6288204  26.8271589  81.7407894  23.9352059  27.7984643
  44.3076515  71.4902925  10.5127382  43.7628269  72.1264458  10.9761012
  45.1616049  71.5492296  10.9411275  54.4846112   5.8933322  47.0676078
  55.1359326   6.4707629  47.4658455  54.2419583   5.2872340  47.7676024
  83.0280320  68.2153785  53.2251658  83.8827531  68.4401404  52.8575196
  82.3973910  68.6262428  52.6337971   4.1543767  31.1076236  42.0731068
   3.2401464  30.8850718  41.8973494   4.2124841  31.1450839  43.0278063
  67.9435444  73.1375933  37.3865795  67.7993393  73.0444336  36.4449000
  67.1965694  73.6514091  37.6935935  74.7178739   8.1344061   8.5439152
  75.1086419   7.5734835   7.8739095  74.0562671   8.6426859   8.0747032
  86.3473320  42.8064537  25.9322095  85.7819176  42.4496984  26.6172409
  86.0645771  42.3622847  25.1328397  68.5006237  33.4158349  34.6301532
  68.4715319  32.5454068  34.2329860  67.7593708  33.8809681  34.2423034
  48.1314564  64.0470648   1.9144811  47.4504614  63.6518097   2.4587725
  48.3203650  63.3853722   1.2491178  15.7460973  66.6209078  13.9311373
  16.4726064  66.0533428  13.6736953  15.8706376  66.7583227  14.8701990
  83.3929062  45.5510044   1.9126914  83.8136292  46.4107847   1.9115455
  84.1002178  44.9385071   2.1146540  50.9785175  55.6156063   5.2775609
  50.2732086  56.2235069   5.4994422  51.7203045  56.1792898   5.0579184
  18.0117128  27.6533270  27.0638680  18.9496610  27.6811576  26.8748784
  17.9026792  28.2292175  27.8206325  15.2724168  47.3258781  40.9330750
  15.3075311  48.1383562  40.4282236  14.4046495  46.9665098  40.7484913
  63.6254215  51.5683603  50.7251835  62.8128767  51.1366653  50.9890842
  64.3178034  51.0339165  51.1140347   3.6082742  33.3176589  18.9975905
   3.9581582  32.5341988  18.5733199   2.6881120  33.1107998  19.1611159
  78.3480978  19.8385429  35.3753304  77.9083347  20.3903532  36.0221267
  77.7069044  19.7364819  34.6719909  49.8464591  34.3218772  62.7912905
  49.6817214  35.2208345  63.0758430  48.9768941  33.9643685  62.6116278
  54.4885118  40.0293223  69.4107367  53.9869077  39.6851127  70.1497543
  53.9627416  39.8100249  68.6415114  65.2317810  38.7392616  28.6492085
  65.8303022  39.4793034  28.7509131  65.7243824  38.1021714  28.1318212
  58.6646175  58.6424255  33.1198478  57.7248573  58.8162518  33.1734133
  58.9951944  58.8407135  33.9959955  11.8202970  79.3356752  10.4982853
  11.7276094  78.4238672  10.2221620  12.6619432  79.3637466  10.9533477
  81.6236877  36.8267870  35.5050325  80.9825993  36.2258744  35.1253653
  81.1166191  37.3655391  36.1123753  34.7639599  23.5260420  28.9393902
  33.9075413  23.5006456  28.5126185  35.2286377  22.7659254  28.5893369
  47.1703339  54.9137354   3.2412291  46.7190790  55.0385809   4.0761030
  47.9586601  54.4197845   3.4665835  12.7474973  33.8267326  14.5467651
  12.9750821  32.9817462  14.9346256  12.6165387  33.6364031  13.6178648
  35.9394789  63.0819654  22.6247764  36.2697482  62.7527142  21.7888641
  36.5435433  63.7861252  22.8603506  34.4152188  18.4183037  15.0277245
  34.3314552  19.0378106  14.3028617  33.5180402  18.2845140  15.3333390
  49.0913868  71.7708158   9.4402218  48.7772989  71.0537148   8.8894516
  49.9753904  71.5071440   9.6956527   7.7881708   0.1804571  18.5102677
   7.5547877  -0.7014246  18.2203484   7.9880467   0.6531553  17.7022827
  36.1039025  15.7931392  47.7965273  36.0948903  14.8361032  47.7811946
  35.1797778  16.0409324  47.8251709  75.2703094  36.1576033  47.0039988
  74.6896124  35.4522943  47.2895956  76.1158991  35.7307005  46.8662977
  56.9589043  66.2401867  22.9325485  57.3446369  66.7568731  23.6399913
  56.9686270  66.8258047  22.1754599  80.7204723  56.1199331  47.6289749
  80.9521484  56.5324116  46.7968559  79.9407721  56.5919447  47.9213810
  65.2171898  34.0234303  25.8699465  66.1091614  34.3694353  25.8999586
  64.6662855  34.7574377  26.1419153  41.7052473  68.8404047  64.5378729
  42.1654238  68.0066406  64.4413729  42.0590605  69.3914520  63.8397332
  44.8654985  36.9930792  20.5808306  44.5702410  36.7355990  21.4541888
  45.7148886  36.5636897  20.4788923  59.9089868  71.8756599  23.2756138
  59.9391801  72.5677187  22.6150274  59.5129640  71.1304624  22.8238702
  68.2741451  29.4919205  38.2110739  69.0835905  29.2524147  38.6623669
  67.5912476  28.9996648  38.6666727  46.2901933  26.4016978  67.0164441
  45.8221919  27.2114770  67.2200655  46.7270905  26.5804641  66.1837425
  47.4786711  55.4120016  24.0215087  47.9545832  54.7872305  23.4743381
  46.5659618  55.3243780  23.7467027  76.6688013  69.7251701  31.9320703
  77.2305155  68.9562130  31.8350506  76.5009785  70.0139046  31.0350180
  43.9053488  73.6808681  37.4075699  44.0282917  73.2554817  38.2561922
  42.9884005  73.9555311  37.4079347  15.1409045  12.6206236  21.3824224
  16.0802355  12.4894648  21.5115881  15.0821581  13.3898382  20.8157802
  81.6246796  40.5051708  32.3778868  81.9634628  41.1901474  31.8014622
  81.9660187  40.7300234  33.2434273  17.9575545  28.3814160  66.9547220
  18.2882459  27.6883904  67.5261988  18.2658584  29.1925351  67.3587869
  51.8981552  43.4954691  12.5779879  51.2800217  44.1109133  12.1838140
  51.4840937  43.2337952  13.4003699  55.9774072  26.6191403  57.5448086
  55.1881082  26.9241635  57.9922451  55.8571107  25.6728618  57.4653079
  66.9568539  44.7437143   8.8436431  66.5234947  44.9600840   9.6692455
  67.8039360  44.3827724   9.1051787  71.1420107  55.4118776  33.4802723
  70.6823874  55.2145576  34.2963839  71.4159441  54.5573950  33.1470323
  68.4353399  50.0110483  11.1270285  68.2436848  50.1704788  10.2028632
  68.5990763  49.0693712  11.1786950  86.9460964  53.2448530  28.3387589
  86.1388016  53.5216475  28.7722182  86.9613647  52.2937584  28.4456253
  51.0360718  41.2639475  10.7779288  51.3985920  40.7237291  11.4800525
  51.7017651  41.9341707  10.6233668  38.1425006   2.3716514  68.9568568
  37.7613885   3.0692260  68.4235852  37.5767095   2.3229425  69.7274012
  77.8121049  34.8040168  46.2592854  78.5918958  34.9862878  45.7349529
  77.6616532  33.8654630  46.1465182  43.5713625  35.4014969  22.6497388
  44.0068722  34.6139169  22.3237348  43.8654518  35.4795527  23.5572910
  67.8741741  59.1699505   7.4090248  68.5349798  58.9905405   6.7401588
  67.0848083  58.7331772   7.0890909  74.8430014  36.7237186  15.7722390
  75.0260115  37.6219487  16.0477841  74.1324902  36.4372063  16.3461006
  71.3075113  56.6162968   1.1878918  71.8538666  56.0644627   0.6282434
  71.5633583  57.5112915   0.9648129  66.7664385  62.7906847   2.9017097
  66.6746426  61.8601990   2.6967669  66.2397337  63.2353210   2.2375450
  44.3215942  43.3505201  16.1431503  43.4473085  42.9687119  16.0651577
  44.9013805  42.5985909  16.2643254  28.4799328  24.3375711   5.9154439
  29.0671292  25.0459986   6.1792082  28.5624733  24.3003302   4.9625367
  69.6194744  49.1423798  43.9888287  69.2624235  48.9783859  44.8616695
  70.4120016  48.6070204  43.9497805  78.9720774  25.1240158  44.2201471
  79.8987722  24.9005342  44.1334295  78.7685013  24.9492002  45.1389647
  26.3572786  10.9979892  25.5847669  27.1987722  11.4540637  25.5959535
  25.7254407  11.6538692  25.8794355  67.3889589  12.3852944  17.3151398
  67.8698301  12.2827852  16.4938688  67.5736666  11.5825140  17.8026426
  68.6324930  48.5999012  49.9827909  67.9150581  48.8800907  49.4144487
  68.5484362  49.1484404  50.7627106  20.0173798  10.7092695  32.3414826
  19.6661225  10.1602011  31.6405010  20.7522097  11.1715059  31.9382572
  28.5177555   8.2572012  53.4681368  28.1628266   7.4009733  53.7071609
  29.4211331   8.0777101  53.2074881  42.7339840  59.6372175  11.9235659
  41.9028473  59.2355871  12.1768141  43.2277346  58.9273834  11.5129852
  21.6183606  20.5465536  37.2051644  22.0699253  20.1497965  37.9500866
  21.6294995  21.4855223  37.3907518   0.7251165  75.2331400  17.1123016
   0.9554384  74.3126249  16.9864821   0.9101102  75.4022169  18.0361092
  84.0080357  35.8548117  36.5322328  84.8422146  36.3215017  36.4814591
  83.3873272  36.4234591  36.0766053  62.7964020  54.3063116  33.5850191
  63.2008028  53.4524155  33.4315443  63.5307789  54.8865366  33.7856555
  20.5913582   4.6217947  28.7032390  21.5239420   4.4192533  28.7774110
  20.1785841   4.1070776  29.3967247  53.7783105  33.3588521  69.9489259
  53.1119210  33.8534896  70.4258853  54.1442258  32.7603499  70.6001821
  25.6667135   8.8425899  39.0916705  25.5368707   9.7831458  38.9703107
  25.1845739   8.4391475  38.3698583  65.5296659  61.4919519   9.5522344
  65.4847240  62.4356079   9.3982041  65.4206610  61.1022234   8.6847895
  52.6282787  80.5279255  44.5537806  51.7908907  80.3123951  44.9643421
  52.7438211  79.8583698  43.8795519   5.0681010   7.6430540   0.5106352
   5.8546152   7.6561289  -0.0347639   4.4993821   8.3105020   0.1268414
   3.5026548  78.7981796  54.0828657   3.4991453  78.8403273  55.0391293
   4.4144819  78.9579773  53.8394213  63.6682320  53.8904285  25.8396339
  62.9727697  53.7614965  25.1946974  63.8116217  53.0213213  26.2142324
  50.0184965  57.6517868  10.1472890  49.8413992  58.5327339  10.4771471
  50.7282448  57.3268032  10.7012546  71.7836332  61.2243557  40.6790447
  72.3188114  61.9245577  41.0525894  72.4041891  60.5176687  40.5008936
  19.1278550  37.2619271   8.0691719  19.6116636  36.9055891   7.3240620
  18.9964769  36.5124893   8.6499596  63.9159489  28.8784504  50.3986931
  64.0186071  29.6225166  50.9920406  63.5193491  28.1946325  50.9384441
  66.5848732  54.3537045   6.5275294  67.1653461  53.7281084   6.0940480
  66.1063051  53.8305473   7.1705776  74.0712881  62.1651793  10.7760775
  73.6357975  61.8334341   9.9908859  73.3802843  62.6170444  11.2603962
  40.8392293  12.6598374  48.4296193  40.0536592  12.1903626  48.7101688
  41.5580995  12.2114722  48.8750638  61.3570976  58.1018591  11.1107612
  62.2121859  57.9418421  11.5100741  60.8796310  58.6132622  11.7640054
  72.0565183  18.0218951  64.8641159  71.5116651  18.7983005  64.7354450
  72.5267846  18.1918876  65.6803187  72.7252913  35.0731730  33.6950016
  72.0285654  35.2894258  34.3147087  72.9303551  35.9037876  33.2657456
  11.7144671  13.4397154  48.7588406  12.2261896  12.6320772  48.8046837
  11.8446389  13.7552958  47.8645849   7.4450013  46.7146349   7.3604518
   8.0664346  46.6846514   6.6330242   6.8372819  47.4165249   7.1275234
  81.1912632  75.3216648  37.6712370  80.3221416  75.0925779  37.3420286
  81.7940712  74.8079586  37.1336865  68.7392330  39.8575807  34.9038815
  67.9199123  39.5391202  35.2827406  69.4074154  39.2620635  35.2431774
  68.3212519  28.7892818   4.4983426  69.0173101  28.1590796   4.6843037
  68.5813236  29.5798492   4.9712092  13.5502145  19.5021474   0.5990914
  13.8855550  18.6091995   0.5189494  12.6093862  19.3931401   0.7375892
  41.6202402  68.4999990   0.3693309  42.2420835  69.0934658  -0.0517861
  41.3935947  67.8674412  -0.3123805  29.3344903  44.4766808  24.5286822
  28.9619040  45.2468014  24.9580145  29.8640943  44.0571928  25.2067518
  62.9734993  10.5842543  16.0862732  63.4721088  11.4010501  16.1078501
  62.5744820  10.5701303  15.2163196  66.8690300  15.4210389  15.5623353
  67.1434355  14.7815406  14.9050879  66.4293766  14.9001861  16.2343824
  61.0423326  71.7248344  18.8154280  60.6255627  71.9557667  17.9852438
  61.8399334  71.2602758  18.5619473  86.3106441  59.8538733  18.5353696
  86.7975140  60.0399113  19.3382215  85.5759525  60.4671764  18.5532379
  72.1644163  34.9458528  27.0135093  72.7289009  35.5404186  27.5075555
  72.1189690  35.3306842  26.1382556  72.6435184  44.3133831  25.0022197
  72.7726221  45.2334642  25.2324700  71.6981459  44.1797924  25.0704145
  33.0631390   3.3221178  21.8031192  33.1326046   3.9607172  22.5127649
  33.9697590   3.1349688  21.5597153   9.5910070  60.7940245  12.3821044
   9.5658491  60.1231384  13.0643880  10.2960965  60.5151558  11.7978787
   7.1780488  18.0819774  52.7018595   7.5113866  18.5656011  51.9460678
   7.8419683  17.4133134  52.8701496  58.4018230  62.0011711  35.2937174
  58.4374142  62.9367685  35.0946474  57.4814367  61.7660952  35.1759958
  65.7438517  67.4153233  33.9410305  64.9623203  67.1028042  33.4852099
  65.7530832  66.9259977  34.7636533  60.5275202  63.8450432   4.1312972
  60.3253698  62.9259109   4.3061173  60.7249069  64.2147446   4.9918726
  36.4879510  73.7978077  21.2204146  36.7000768  74.7311163  21.2333298
  37.1227643  73.3996391  21.8159938  73.9276361  62.7185297  15.2963495
  74.4382143  63.3662415  14.8105431  73.9023542  61.9534683  14.7216547
  68.6334944  56.3617897  46.1041927  67.9336071  56.7404079  46.6362095
  68.3425426  56.4875650  45.2010012  49.2432880  66.4217424   1.2787926
  49.6445513  66.6432381   2.1191245  49.0620232  65.4838419   1.3397400
  42.9455757  61.6152287  32.7500868  42.7076721  62.5422907  32.7636099
  42.4662256  61.2558079  32.0035768   0.2945897  53.8270950   2.0758040
   0.6356428  54.7033978   1.8968654  -0.6163886  53.9721966   2.3313376
  61.0408115  67.9423714  42.4420071  61.0690880  68.8960600  42.5189304
  60.6694508  67.6459694  43.2729483  77.7744668   0.4618769  14.1818321
  78.2990211   1.0920458  14.6757495  77.7471631  -0.3159399  14.7390544
   2.1485231  63.6588430  39.1033554   1.6721628  63.9034939  38.3099699
   2.3109624  64.4892550  39.5508575  78.3959246  59.9489117  14.6065843
  77.9546547  59.8393774  15.4489112  78.0145025  59.2727184  14.0466619
   0.4775331  73.0361748  32.1766353   1.2760064  73.3532667  32.5986981
   0.7669446  72.7270222  31.3182068   7.0792332  22.2031908  25.4621696
   7.1659651  23.0303984  24.9884248   7.3950615  22.3982267  26.3444662
  67.7380123   4.9149256  18.1202781  68.5405102   4.4275694  17.9339492
  67.5435200   5.3768663  17.3047912  63.2856989  70.3782558   3.6633158
  63.1908512  69.4409418   3.4939647  62.9062891  70.5040979   4.5330536
  21.2908552  61.5816116  23.0622339  21.1557386  61.0823917  23.8676834
  20.4333684  61.5866947  22.6368952   7.6886120   2.0130854  46.1584330
   6.7398253   2.0137911  46.0318184   8.0276957   1.4994078  45.4253721
  54.8929253  17.7135878  25.7455039  55.1759282  17.3698454  26.5928435
  54.3671360  17.0099668  25.3651118  19.9821946  48.5257578  30.5850482
  19.8606202  48.7071514  31.5170074  19.4201181  47.7703667  30.4127526
  58.0089147  57.4094455  66.7942278  57.0720250  57.4700801  66.9807293
  58.4283788  57.8653304  67.5239213   3.9960477  39.9044657  30.6001019
   4.8380372  40.0388527  31.0351086   4.0654752  39.0342259  30.2075505
   4.0610883  54.6414900  41.2061691   3.4614656  54.7363091  40.4660988
   3.7864492  53.8307810  41.6345978  81.0590839  70.6146955  23.1542015
  80.3418922  71.2225151  22.9741120  81.5854645  71.0561085  23.8207650
  40.5784327  58.7943809  70.6721599  40.0260694  58.1146113  71.0582151
  40.1102406  59.6109263  70.8461990  64.4628668  61.8282318  13.9559019
  63.6833048  62.0898962  13.4659624  64.2384243  61.9968319  14.8710132
   5.2047482   2.7842646  28.5764861   6.1214056   2.5473814  28.4355640
   4.7881308   1.9707708  28.8608742  55.3177500  58.8338661  24.3023515
  55.4619408  58.3245516  25.0998735  55.9997034  58.5350752  23.7007737
  25.3963509  34.7944384  26.9345832  25.0539055  35.5463438  27.4179101
  26.3167420  35.0076036  26.7807412  23.3310643   5.8662539  36.8559837
  22.9670563   5.3995542  37.6082563  22.8998986   6.7206793  36.8726707
  55.2409458  81.4809132  48.7742138  54.9573278  80.5922699  48.5594702
  55.9127617  81.6819286  48.1226873   3.6730137   0.2714376  21.1658931
   3.5637322  -0.6490583  21.4045644   4.1370001   0.6579809  21.9085479
  55.2516610  36.8712918  70.9957774  54.7896344  36.9481818  70.1609990
  55.9713704  36.2662665  70.8163496   1.4504805   5.3000765  28.5888577
   0.5419865   5.6015329  28.5894918   1.9066325   5.9130602  29.1654062
  81.9165707  77.3340368  18.5862803  82.6255035  76.6923332  18.5431647
  82.0162106  77.7436399  19.4456577  26.5156975  14.5767050  34.5329547
  27.2801819  14.0028315  34.4832993  26.8173256  15.4094439  34.1699147
  39.4289374  65.7715511  31.1442685  40.3348064  65.7525635  30.8356094
  39.4933295  66.0455370  32.0591545  34.5547864  48.6659575   6.6573775
  34.6655557  48.4877253   7.5912923  33.9632509  49.4178247   6.6255403
   5.6564846   7.6291399  14.0824962   4.7712984   7.5973349  13.7196338
   6.2000647   7.9447584  13.3605993  56.0684872  77.4663496  35.0468707
  55.7483006  77.0846605  34.2295432  56.8407202  76.9457674  35.2679586
  24.2607686  78.5191727  30.3495026  24.3622682  78.9332771  31.2065005
  24.1963479  77.5836706  30.5416512  84.2635250  64.1322613  -0.1344848
  83.8380432  64.0072155   0.7137807  84.9797630  64.7415829   0.0443272
  16.5689657  63.4342098  21.3951373  17.2247693  63.8692808  20.8502841
  16.9713399  62.5989723  21.6332769   5.1431599  24.2533712  32.6181197
   5.5028334  23.5805445  32.0400476   4.2250862  24.0068750  32.7304053
  50.7888944  19.7178189  64.6547135  51.0792405  20.1224868  65.4721298
  50.4115207  20.4391305  64.1511967  68.2436371  78.7873077  34.1366196
  68.0809450  78.5981894  33.2124996  69.1901302  78.9192533  34.1910744
  64.8905659  42.0981598  15.5476856  65.2736616  41.3868046  16.0609531
  63.9734936  42.1235895  15.8207536   2.5271795  51.1201525  26.7825770
   2.9379747  51.1567020  27.6463747   2.9808328  50.4080963  26.3315606
  13.6245534  64.1578960  37.5376129  12.9363534  63.9832449  36.8956542
  13.8116929  63.3035326  37.9265571   6.2158432  39.4332819  36.2075114
   6.6645470  38.6051779  36.0368133   6.6359320  40.0593214  35.6177425
  59.8164845  67.1644497  39.8194170  60.4129124  67.3134995  40.5530977
  60.3332710  66.6631317  39.1886735  74.2369979  13.4645205  46.7916107
  74.0606063  14.2150621  46.2243271  73.5542148  13.5047369  47.4612522
  64.7683477  70.7580185   9.9580759  64.2245436  70.1160622  10.4145801
  65.2126122  71.2365341  10.6579971  21.5183401  58.5368299  11.9199145
  21.5705895  57.8892279  11.2169814  21.3936281  58.0181265  12.7146649
  58.2597215   3.2411687  64.8641713  57.8962190   2.5884120  64.2658414
  58.7243421   3.8550298  64.2953654  15.0989046   1.6705446  41.8434429
  14.2511692   2.0545511  42.0673132  15.1315871   0.8545618  42.3427725
  66.7509604  14.1121328  11.4938498  66.5480042  13.3096230  11.0132074
  67.2600412  13.8169181  12.2487783  62.2947168  15.1560807   0.4970092
  62.6547861  14.3478727   0.1317907  62.4803305  15.0988901   1.4342979
  86.6736612  81.4933124  30.8438659  86.9085416  81.0955403  31.6822219
  86.3266859  82.3546080  31.0762691  51.0349614   7.6209371  49.5010175
  51.3258893   7.1462457  50.2796425  50.2918965   8.1434600  49.8027791
   8.8321167  50.7560349   6.0905308   9.4859540  50.0611687   6.1672860
   9.3218213  51.5638304   6.2450761  33.0559325  16.8142140  21.6858912
  33.7757516  16.1844802  21.6467929  33.4820938  17.6550937  21.8518400
  56.5900946  12.9245293   4.8361766  57.1282721  13.3218861   4.1515580
  55.6891060  13.0755949   4.5504627  22.3103101  60.8991690  49.1639566
  22.4174745  60.8793921  48.2129812  23.1953723  61.0357924  49.5019293
  82.2747199  29.4393527  69.9907370  82.9648081  29.6627736  69.3661674
  81.7181317  28.8184475  69.5207174  12.4697030  11.3117349  14.2218649
  12.0968783  11.5557659  13.3747041  11.8195307  10.7261527  14.6099401
  51.4903728  28.2813370  54.5635058  51.6365234  29.1976368  54.3284180
  51.5497319  27.8086602  53.7332739  36.4668281  69.1381021  23.0444169
  35.7619483  68.5575874  23.3314323  36.3587958  69.9269147  23.5757685
  18.8798583  15.9707129   2.8350660  18.4348297  16.6981351   3.2698527
  18.3666861  15.8155608   2.0420881  47.7997963  72.9154241  40.6799473
  48.3057574  73.4506666  41.2912979  48.3527986  72.8539669  39.9010743
  55.6766319  14.1568744  17.4446964  54.8577833  14.3785918  17.0013368
  55.5639219  13.2453108  17.7141035  57.1714878  14.6344090  15.2171445
  56.6148329  14.3798077  15.9530437  57.2943211  13.8263535  14.7189558
  14.6792562  69.9987443  46.1356068  14.4721419  69.1585965  46.5448570
  15.6357867  70.0231202  46.1095285  34.3348241   2.0365241   2.2578299
  34.7248435   1.4168145   1.6413265  33.4192705   1.7650487   2.3233818
  21.5728964  42.3173651  68.2462924  22.5031485  42.5276763  68.3277090
  21.4179148  41.6529024  68.9176347  62.8961611  17.9087234  35.7308078
  63.4119844  18.6987424  35.8921409  63.4622669  17.1909440  36.0146141
   0.4651219  69.9960763   8.8585854   0.9914119  69.5409687   8.2012218
   1.0456879  70.0783963   9.6151561  44.5007760   2.5566070  63.5001083
  44.0716750   2.7082889  64.3421890  44.9161155   3.3927314  63.2888897
  33.9115787   4.1753462  57.7916908  34.3606496   3.3600399  57.5684309
  33.9648676   4.7039294  56.9954538  35.4393911  31.4237785   1.6790029
  35.8518767  31.8388724   2.4364880  34.9354577  32.1252203   1.2663743
  50.2482669  69.0776383  68.5043784  50.1943103  70.0279152  68.4029322
  49.8160831  68.7286269  67.7248656  80.3747949  62.1339459  12.4847007
  80.1604185  61.7968817  11.6148365  80.6152210  61.3573165  12.9899454
  37.5757575  26.3652682  11.7894566  38.0836082  26.8616056  11.1476088
  38.2168078  25.7933855  12.2116339  61.3407278  18.4855998  15.3186750
  61.2623119  18.4552014  16.2721729  62.0543957  19.1025603  15.1565957
  47.0489931  10.6928706   5.9054649  47.1886587   9.9070615   5.3770429
  46.9106579  11.3906908   5.2650422  14.6379532  47.2679638  68.4658502
  15.5939545  47.2347134  68.5003959  14.3844093  47.7131724  69.2743895
  70.9601593  24.4428992  13.4849763  71.3084984  25.1551795  14.0212119
  70.0182676  24.6093917  13.4481359  11.5102066  42.2934785  53.1641628
  10.8230700  42.9134984  53.4083952  11.0902466  41.7056475  52.5362148
   3.6610235  58.5401105  56.7860832   3.1013788  57.8282833  57.0964612
   3.1319059  58.9913892  56.1283507  68.0073635  28.2266199  64.3910410
  68.5318629  27.4948406  64.0660300  68.3240048  28.9848935  63.9001330
  75.0853307  77.4946014  34.6655345  74.4453103  77.7357153  35.3352118
  74.7987611  77.9621319  33.8809800  10.3240354  75.6729890  11.8556130
   9.9656493  76.1848296  11.1304843  10.5918009  76.3270791  12.5011349
  79.8468796  37.9577428  45.4748120  80.0443665  38.8641950  45.2390637
  80.5890195  37.6832139  46.0134138  13.8075168  60.9601183  28.1764436
  13.8910205  60.0476141  28.4532070  13.2827718  61.3716145  28.8631320
  38.7935597  62.8992207  45.0928116  38.4231002  62.7878506  44.2172623
  38.0543525  63.1812842  45.6315565  71.1119897  47.5041695  22.0993757
  71.8797357  48.0456324  22.2827005  70.4023797  48.1323881  21.9650936
  16.0980517  78.5933743  21.4526200  16.5923078  77.8789066  21.8544626
  16.7655236  79.2239259  21.1822248  22.8112752  41.3232965  10.4018497
  22.1948964  41.2060566  11.1247385  22.2934014  41.7345924   9.7098416
  23.6283755  13.2143259  20.4715562  24.0271020  12.3812366  20.2201343
  22.6885843  13.0337012  20.4915214  47.6545954   1.9947366  50.2886772
  47.0659494   2.6649868  49.9415541  48.4073687   2.0076786  49.6975803
  69.1700277  78.9990823  25.1116967  68.4718260  79.6426280  25.2325058
  69.7308740  79.1071199  25.8798170  54.4241182  64.8581779  68.0153726
  55.1314274  65.3616464  67.6123031  54.8184816  64.4767224  68.7997210
  79.9267817   2.4122764  16.4545298  79.2987585   2.8405023  17.0362902
  80.2898502   1.6979840  16.9781697  58.7152004   9.1876531  12.0121670
  59.3757915   9.6208173  12.5527370  57.9558086   9.0979511  12.5879383
  76.2307660  48.5077720  57.4202563  75.7282654  48.2768642  58.2015433
  75.7582060  48.0909794  56.6996993  29.3469071  17.5171232  20.7036114
  29.4150138  16.7336524  21.2492919  30.1218939  17.4864042  20.1426411
  80.5006966  22.3665874  50.7359042  81.0402784  21.5763204  50.7596983
  79.6229014  22.0643680  50.9690823  63.8610697  29.5994425   9.9742156
  63.1470728  30.0325203   9.5063627  63.9883614  30.1297450  10.7608593
  43.3227634   2.0720951  38.3556414  42.8766298   1.2933925  38.0227447
  44.0309191   2.2279280  37.7307725  27.2211099  37.7926135  22.6996493
  27.0630479  38.1134939  21.8117976  27.6583767  36.9502163  22.5755715
  45.1420689  16.9249272  25.7825136  45.2291107  17.6668012  26.3810754
  44.9266481  17.3220360  24.9386358  80.9493224  40.2563183  63.7123432
  80.6192509  39.4868494  64.1762419  81.8374554  40.3760576  64.0486719
  26.9761109  14.4550729   2.4328545  26.2021494  13.9153540   2.2718622
  26.6705418  15.1409626   3.0264997  13.0334581  81.9666373  60.9187831
  13.8447250  81.4732730  60.7976546  12.5141396  81.7687213  60.1394429
  30.3906250   4.1008115   2.0676592  29.5045114   3.8038802   2.2747046
  30.3067970   5.0482810   1.9603923  41.4069707  61.8691177  11.2435889
  40.8000714  61.5717096  10.5657601  42.0236499  61.1444683  11.3476205
  72.3097658  38.5586405  27.5681305  73.1348610  38.0777574  27.5033379
  71.8128252  38.2867098  26.7965484  57.4638033  21.6822076  18.7972808
  57.1317577  20.8981228  18.3600318  58.3118057  21.8456864  18.3844793
  73.2511489  61.6880524  63.3055319  72.9811541  62.3495853  63.9424832
  73.8139264  61.0935509  63.8015981   0.3693673  43.3780384   4.0533206
   0.3957174  44.3011427   4.3051544  -0.2306559  43.3501291   3.3080488
  71.3898087  35.4814529  14.1998911  71.5046930  35.0103188  15.0251591
  71.2901926  36.3975334  14.4589353  65.1224438  66.3668000  20.2330317
  65.7657448  66.0711801  20.8772435  64.7092144  65.5619537  19.9204697
  47.3438644  15.5003250   3.1741875  46.6433764  15.3475392   2.5399905
  46.9350719  16.0283077   3.8600111  72.3392916  38.1281590  20.7342577
  72.3667860  38.9515710  21.2215638  73.2405376  37.9928708  20.4415417
  83.4087245  71.1652696  62.0712824  84.3398682  71.3560259  62.1845021
  83.3904997  70.3402578  61.5862502  86.1393929  36.7917585   2.9695126
  85.7120037  36.8585396   2.1156333  86.4562130  37.6770616   3.1486726
  82.2734229  41.1443092  69.7335853  82.1919314  42.0979281  69.7478169
  81.8681018  40.8570514  70.5517718  48.5597944   7.1832275  16.3197088
  49.3910837   7.2868907  15.8566308  47.8939533   7.2569144  15.6360018
  69.8901326  59.2092962   9.1915870  69.2947824  58.7145968   9.7546703
  69.3696553  59.4153137   8.4151268  52.2362947  21.4507198  23.5789371
  52.6309490  20.9891868  24.3188477  52.1771240  20.7902336  22.8886557
  78.2468653  10.1729643  18.8804626  78.2413387   9.6687073  18.0668736
  77.9604101   9.5512521  19.5495284  84.2212105  23.2107759  29.5716476
  83.6677456  23.3466411  28.8025951  84.5103645  22.3010373  29.5009375
  33.2993317  23.5266566  20.7448506  32.6325846  22.8678966  20.9390545
  33.7631702  23.1804609  19.9824655  -0.1275637  24.1125107  12.4222577
  -0.0643065  24.1618562  11.4684260   0.5952642  23.5408354  12.6809800
  69.8284864  43.5051394  25.0377226  69.1225338  43.6592150  25.6655145
  69.6020269  44.0501499  24.2841244  68.2713032  11.3778722   5.1866460
  69.0910196  11.6171885   5.6191152  67.7486324  12.1795952   5.2035618
  80.3415982  55.8179295  58.6059811  80.5218760  54.9465143  58.9586391
  79.8884455  55.6526732  57.7791943  85.1917092  75.6199348  69.0016792
  85.2864377  76.3420331  69.6228326  85.5436103  75.9628951  68.1802304
  21.3170923  38.3241757  57.8986468  22.0875086  37.7604132  57.9683902
  21.6406406  39.1993883  58.1120755  59.1568906   2.7668111  61.0378374
  58.7353665   1.9119470  61.1258968  59.8756463   2.6173131  60.4236140
  12.3905522  13.5793750  70.1857904  12.4981219  14.5133225  70.3657822
  13.2275826  13.1890266  70.4372715  37.7762866   5.9559268  22.9696655
  38.1554341   5.5576760  22.1861625  37.1306586   6.5776932  22.6338053
  76.7954795  42.8150618  67.9204060  76.8330685  41.8724753  68.0827318
  77.2492282  42.9326568  67.0858307  50.9098291  31.2518644   9.7294635
  51.1047220  30.8862805  10.5923629  51.6083813  30.9200406   9.1654170
   5.1226439  25.7864046  69.7662637   5.3682007  26.6114235  70.1849246
   5.8476318  25.1930677  69.9626684  45.3749323  22.9685569   3.4944138
  45.0313902  22.3505831   2.8491846  45.4334879  23.7994337   3.0227742
  45.4686403  19.6176088  31.6439867  44.5729733  19.3189526  31.8015361
  45.3965759  20.2041268  30.8909702  76.9356251   2.9081598  31.0403895
  76.2479734   2.8052232  31.6982484  77.7320147   2.6059857  31.4770651
  38.7235260  33.0839276   2.5605115  39.1350532  32.4444985   1.9791268
  38.7829399  33.9127350   2.0853488  68.8054562   8.2145661  33.9000082
  68.5298157   7.3026091  33.8073373  68.4141207   8.6605698  33.1488991
  49.4618034  24.1854501  22.1966028  50.3505278  24.1893101  22.5521111
  49.4458866  23.4373832  21.5996337  73.7531201  26.9155871  54.4758775
  73.4617964  27.0322740  55.3801705  74.6770922  27.1653199  54.4877936
  70.7752275  17.3863935  39.6175551  70.8637810  18.2631981  39.2439198
  71.5960407  16.9471490  39.3949199   4.6951005  21.2644815  21.5855932
   4.8697564  22.0602584  22.0880556   3.7759683  21.3399792  21.3292360
  75.4046747  65.8584888   2.0429479  75.7648942  65.3316600   1.3295585
  75.8646140  66.6954656   1.9784620  31.3133921  70.0692212  59.2957010
  30.6163610  70.0332248  58.6406590  31.9093718  69.3615019  59.0504016
  58.9797926  10.0887620   9.5056605  58.0921364  10.3922820   9.3154693
  58.9476013   9.8133594  10.4218209  45.1573896  51.3686419  23.3458567
  45.3937340  50.6675005  22.7385902  44.2430449  51.5645409  23.1413412
  12.4571957  45.1498508  29.6995844  12.8139366  45.0516060  28.8167967
  12.1164526  46.0440665  29.7220721  22.2155339  67.9991467   7.5868499
  21.3268525  68.3022375   7.4007964  22.2680623  67.9833622   8.5424775
  37.6747717  73.2276070  67.1403514  37.2638811  73.5534966  66.3396029
  38.6120333  73.3628714  67.0007704  62.4361849  10.0296104  21.9670916
  61.6773701   9.4462442  21.9561362  63.1808472   9.4574720  21.7817092
  77.9818169  66.5179813  63.5521443  77.1210209  66.7797434  63.8788630
  78.4409968  66.1881077  64.3245216  55.5403280  12.0515418  27.6244187
  55.8592653  12.4443567  26.8118882  54.6358347  12.3558676  27.6986647
  69.2864377  60.2611275  19.1780162  69.7903687  60.5677624  18.4241867
  68.6430509  60.9526248  19.3333256  17.8195299  68.6042487  69.7798431
  18.1535257  69.1247618  69.0492665  18.6035122  68.3217942  70.2508232
  10.6570322  74.9183590  26.7029524  10.6404645  75.4000456  27.5299573
  11.1857373  75.4625393  26.1193681  67.0361280  19.2436194  24.0473890
  67.3039484  19.8952389  24.6953821  66.4698982  19.7246575  23.4438848
  69.3938208  37.0700359  18.0590796  69.4093704  37.2569513  18.9977241
  69.6139288  36.1406064  17.9962671  80.9787464  38.1590319  10.6031430
  80.8567142  38.1023622   9.6554470  80.1317883  38.4554029  10.9363961
  49.6942472  34.3582821   5.5304015  49.7228909  34.2600703   4.5786840
  50.5965376  34.2104912   5.8137006  62.6737840  61.5190239  16.8925238
  61.8439824  61.9341631  17.1277273  62.4758107  61.0200591  16.1000144
   3.9410986  33.2858115  54.4456639   3.1423010  33.4190327  53.9353670
   4.6491016  33.5354518  53.8518264  52.3505265  37.4647395  61.3134326
  52.7589948  38.1575791  60.7944276  51.4201982  37.6897399  61.3233425
  61.3531685  19.2668426  23.0390286  62.2988224  19.2831731  23.1863499
  61.0520792  18.4851265  23.5021663  84.6791077   2.3826703  15.5287206
  84.4719696   2.8070274  16.3613355  83.8461494   2.0147696  15.2336562
   2.6398767  52.9895687  57.6139559   2.6195683  53.1899058  58.5497357
   3.5524906  53.1261026  57.3595359  58.5745613  58.6193645  69.2706959
  58.2636921  59.4903540  69.5176156  58.1981508  58.0351913  69.9289432
  64.9733496  43.4312534   4.1022751  64.4048738  42.7203226   4.3983325
  65.6934881  43.4404659   4.7327891  58.7242699  37.2457051  14.3634331
  57.8358698  36.9082689  14.4779336  58.6458969  38.1860399  14.5242524
   7.4994275  56.0903835  28.8271284   8.0292318  55.2963257  28.7563658
   6.6065023  55.7716084  28.9586592  33.8897800  46.2085485   6.0521710
  33.3346748  46.2212753   5.2724731  34.2076659  47.1076536   6.1345685
  39.7491113  54.9593246  70.6950812  39.4947056  55.6863987  71.2632997
  40.4095618  55.3317093  70.1108158  75.5259816  55.6434011  54.1005923
  75.1812522  54.7504365  54.1032698  75.1529137  56.0465169  54.8845233
  56.9793606   4.7583219  30.3610587  57.7388954   4.2457893  30.0842094
  56.2827682   4.4991517  29.7578812  48.7612438   9.2400968  20.2444148
  49.4169283   8.6697888  19.8430979  49.0255070   9.2998999  21.1624670
  63.7885657  19.0913980  40.6928434  63.6536870  20.0389211  40.6773676
  64.6469727  18.9650313  40.2886166  27.7112222  16.8310153   0.3391188
  27.0028925  17.3451126  -0.0484440  27.2782183  16.2800074   0.9911390
  53.3813810  41.7429066   5.5146849  53.6609125  41.3264132   6.3299328
  53.4837914  41.0615253   4.8502541  44.5354176  58.7422848   0.6671523
  44.3105316  58.7924814   1.5962037  44.6489239  59.6540022   0.3986017
  69.8391008   1.8678950  11.1860299  70.1666546   1.6731814  10.3079474
  69.5978498   1.0145515  11.5463579  27.2238649  59.2717957  58.7952186
  27.3879541  58.8775134  57.9385700  28.0957617  59.4262456  59.1587688
  25.9653963  52.8601276  68.6012404  25.2527441  53.4185254  68.2905226
  26.7612185  53.2941174  68.2937433  25.3231215  68.8111353  23.2531595
  25.9891152  68.1469059  23.4306002  24.9053049  68.5207796  22.4423862
  75.1418082  74.4200217  56.5296831  75.6487338  74.9954998  55.9568991
  74.6153132  73.8898933  55.9313561  40.5495548  10.2488720  12.5394034
  39.6094012  10.0730979  12.5013685  40.6380701  11.1480963  12.2235048
  75.5075312  48.5762358   7.1449780  74.5909262  48.7720346   7.3392099
  75.9572887  48.6788177   7.9836845  16.8276555  62.5906916   5.1087368
  17.2640759  63.1937487   5.7104772  16.3187749  63.1573398   4.5289263
  58.7977505  19.8167658  44.8802423  59.5419455  19.6923327  45.4692411
  59.0568399  19.3766689  44.0706682  86.8767039  24.6632599  53.1745602
  86.5965811  24.7512853  52.2635092  86.2651888  24.0316653  53.5532035
  38.1393153   2.4020927  49.4013204  37.5599343   3.0883328  49.7324170
  38.3643348   2.6855437  48.5151734  78.3257977  76.7563641  50.2591123
  78.8950364  77.2809422  49.6960701  78.1254689  75.9782850  49.7388329
  59.7940976  44.9851005  68.2232361  59.2843110  45.7945029  68.1883307
  59.5449693  44.5807902  69.0543187  46.9906146  34.7894831   7.0791793
  46.9715793  33.8523645   6.8850660  47.7550132  35.1168079   6.6050702
   5.1717581  76.4078009  46.1396303   4.8456062  76.6220152  47.0136823
   4.9681868  75.4790651  46.0289897  35.2358961  13.8015616  38.3339190
  34.3970108  13.8718820  37.8783369  35.7641053  13.2302940  37.7763510
  35.2072096   9.6418488  40.1250267  35.9131169   9.0002823  40.0455379
  35.6563735  10.4784179  40.2459955  13.4330811  20.8592379  58.8613369
  12.9941000  21.3443505  58.1626286  13.2493938  19.9401962  58.6667718
  30.6447989   5.3707616  68.2343330  30.9911639   6.2119357  67.9365285
  29.7432429   5.3557126  67.9130830  66.4058495  23.2933569   0.7159609
  66.0697842  23.4776306   1.5930784  66.3639450  22.3401928   0.6387762
   2.6171643  76.4216245  22.4443316   2.3824508  77.3443393  22.3456454
   2.0549829  76.1058183  23.1517577   9.2590631  71.2747895  59.6692850
   9.5571341  71.1365687  60.5683293   9.1902508  70.3936946  59.3016340
  81.6808033  17.8912854  23.9055347  81.6724205  18.8416600  24.0193319
  80.9278393  17.5830376  24.4097781  62.1851635   1.9793940  42.3079872
  62.2387743   1.3660441  43.0409002  61.9393015   2.8124195  42.7102995
  17.7775778  70.1617109  65.0714024  18.1905474  70.8718717  64.5801176
  17.9890408  69.3717563  64.5739211  52.2844783  58.8378071  62.2844352
  53.2068364  59.0897119  62.3295285  51.8778817  59.2834282  63.0276265
  37.0073897  10.5253617  68.9834628  37.1979577  10.9956090  69.7951187
  37.7510364   9.9336116  68.8692399  60.0046444  10.1452756   1.0614129
  60.7300949   9.6324134   1.4176734  59.9067211   9.8297286   0.1630404
  81.7353408  52.3884666  66.8212064  82.1035973  51.7110240  66.2540283
  82.1158759  52.2131896  67.6818462  52.8745699  12.4696302  27.8979278
  52.2696829  12.0172811  27.3099470  52.4387264  13.2977557  28.0991197
   2.8616903  16.0618997  13.5481119   3.1726930  15.4019380  12.9284680
   2.3354719  15.5696833  14.1782284  74.6112728  24.9455428  33.1779265
  74.8541880  25.8691001  33.1126404  75.2816868  24.4852805  32.6730132
  52.0974445  39.0304136   8.4884036  52.2472382  38.6019659   7.6456547
  51.1806965  38.8448739   8.6918259  70.7852427  81.3171231  68.2524289
  71.1454360  80.6181418  67.7066125  71.4431016  81.4513814  68.9346554
  69.8400450  24.9532294   0.0325062  69.2509460  24.8714781   0.7825118
  69.3671703  25.5127025  -0.5836163  48.4332091  41.5912600  16.3287425
  47.5515277  41.3631411  16.6234255  48.7730081  42.1674247  17.0134330
  32.4527372  79.9871623  59.1091205  33.3104338  80.3583896  59.3159427
  32.1650328  79.5792758  59.9258735  61.6949598  58.0516326  63.7901219
  61.2808172  58.8968205  63.9644058  61.0074011  57.4081230  63.9615621
  42.2221190  75.2135993   3.1951445  42.9256494  75.5908598   3.7233034
  42.6626927  74.8761899   2.4152187  77.7332783  14.7140384  21.1435151
  78.3700418  15.4213357  21.2459517  77.2980928  14.9021196  20.3119683
  84.3892479   6.6063643  22.9460382  83.4998894   6.3154596  23.1476545
  84.7818184   6.7863476  23.8002825  29.8183686  80.6176661  28.2180810
  29.1405160  80.5977581  27.5425410  29.3380887  80.5341220  29.0418410
  78.5286919  81.2531173  69.2203380  77.5931231  81.4553153  69.2129095
  78.5695378  80.3039562  69.1034773  67.4695110  12.1219027  31.1149740
  66.5462923  12.3742390  31.0999918  67.9410791  12.9256845  30.8963656
  27.2814519  69.9101288  20.0878000  27.5595719  69.8470492  19.1740716
  28.0892570  70.0783117  20.5729795  64.3826866  40.3821516   0.8421598
  64.9819660  40.1574945   0.1303825  63.8614368  41.1068344   0.4966655
  72.9788844  78.5289180  47.9237975  72.5452153  78.4507858  47.0740570
  72.3902623  78.0856645  48.5347618  70.6274128   3.5674590   3.7552395
  71.1363125   2.8733402   3.3363685  71.2550211   4.0158230   4.3220794
  58.5356379   9.0747613  26.3725352  58.2083035   9.8551625  26.8198133
  59.2657185   8.7763590  26.9149137  29.6752889  23.8880746  67.8511177
  30.5163581  24.0940778  67.4432026  29.4500215  23.0220382  67.5113182
  86.1559772  30.0520515  11.9673491  87.0939445  30.2429295  11.9696927
  86.0382748  29.4206047  12.6770365  37.7170539  14.9895358  11.1156476
  36.8897963  15.2338982  10.7007194  37.6068282  15.2370393  12.0337021
  20.2912630  63.9471829  61.5444668  21.1268820  63.6762487  61.9246860
  20.0671543  63.2450568  60.9337093  83.3261871  40.9787416   5.4527807
  83.0836296  40.5416489   6.2690818  84.0549850  41.5502787   5.6945139
  76.5980864  69.3685675  16.2758482  76.0820675  68.5635376  16.2324810
  77.0825291  69.3872929  15.4505026  67.8031015  16.2974405  32.7929759
  68.3044815  15.4932880  32.6581049  67.0399523  16.0215759  33.3006501
  43.0365801  33.9761162   0.8615268  43.7688017  33.3598614   0.8438905
  43.4399557  34.8316336   0.7145322  65.1832867  27.2130728   5.4874325
  65.1854992  27.4174953   6.4225465  65.0636482  26.2641191   5.4499942
  19.0811457  36.1310872  67.3693039  18.5510506  35.7017028  66.6978409
  18.4658779  36.6987466  67.8334619  45.6756115  14.2891264  42.0752954
  45.4816914  15.2264595  42.0693970  46.4515018  14.2085481  42.6300287
  34.7798324  12.9235363  19.2239273  35.0163388  13.1176853  18.3169532
  34.1541553  12.2020400  19.1591036  73.9116573  28.5714030   1.4598627
  73.1506538  28.2553768   0.9727995  74.5694208  28.7490988   0.7875515
  37.1378160  54.5594072   6.3033807  37.5330424  54.2740726   7.1271586
  37.3011827  55.5020809   6.2732184  18.2524116  60.2135391   6.0201293
  18.8802821  60.0719733   5.3116328  17.8120000  61.0316415   5.7899588
   1.6985891  52.4528933  32.7680302   1.0602853  53.1556368  32.8903103
   2.4917695  52.7722311  33.1982899  81.6102091  49.7360086  47.7981414
  82.3600356  50.2152407  48.1507410  81.1888997  50.3553152  47.2021641
  86.7857997  59.1521310  46.8965783  86.0282771  59.4459772  46.3905658
  86.5054194  58.3254754  47.2893395  62.3713017  34.5739937  59.0796423
  61.4905071  34.4368529  59.4283867  62.5685167  33.7675476  58.6032152
  67.5476074  32.9041529   8.2277912  66.7120981  32.4980974   8.4586030
  67.7219677  33.5163450   8.9426702   6.4949287  76.2903869  68.4758337
   6.2653078  77.2119915  68.5948046   7.4519266  76.2780749  68.4912263
  10.0501884  78.0269706  40.4081764   9.2448629  77.5941360  40.6916131
  10.7119097  77.3355043  40.4235210   3.3306486  82.0733113  18.5780513
   3.7657315  81.2509538  18.8031352   2.9154117  82.3554729  19.3930340
  84.4195366  33.9803529   7.7771664  84.6164608  33.2521725   7.1879250
  83.9491558  33.5774279   8.5069788  20.0829417  16.3784139  68.5768035
  20.0881011  16.0476081  69.4750084  20.7650620  17.0498292  68.5649231
  63.8616610  31.0838079  27.2440529  63.3295774  31.7788172  27.6314569
  63.4879160  30.9536195  26.3725042  77.3465109  18.1956792  16.2847888
  76.7678499  18.4270775  17.0113134  78.1500530  17.8909171  16.7063022
  85.1349959   8.9881341  58.1843902  85.2178630   9.2844693  59.0907850
  84.4983754   9.5868604  57.7939107  51.9026661  11.0147047  25.1883078
  52.5856781  10.3942859  25.4428768  51.0877943  10.5182445  25.2640939
  66.8337584  19.9016809  30.4556489  66.4532423  20.5902910  31.0008574
  67.7638197  19.9035096  30.6819534  79.1809607  50.5413198  39.4567180
  78.5068750  49.8649788  39.3903852  79.5366240  50.6126881  38.5709167
  77.3968315  21.1926389   9.3311292  77.6666117  22.1076870   9.2527908
  77.6206732  20.9530902  10.2304304  15.4852070  46.4257431  54.4365277
  14.9404491  47.1523594  54.1340448  15.7739223  45.9923395  53.6333837
   1.8662736  37.6242399   4.3282431   1.2669942  38.0753207   3.7335792
   1.3027093  37.2821021   5.0221896  36.7080934   0.2622430  61.6005011
  37.4180467  -0.2264388  61.1840965  36.7781598   0.0417296  62.5293155
  15.5133404  67.5284540  69.0669248  15.3354897  67.7597153  68.1552674
  16.2198462  68.1181848  69.3301687  49.6629524  60.2793694   8.6470747
  48.9415073  60.8621693   8.4102333  49.8045206  60.4403496   9.5799601
  75.5367661  66.5368795  41.2160587  75.5567360  67.4610567  40.9675980
  76.1672354  66.4679289  41.9329882  85.7671833  54.2615366  12.6923227
  85.3508186  55.1234150  12.6859677  86.2885571  54.2414904  11.8898308
  47.7628517  51.1603880   2.2038448  48.4548473  50.7345343   2.7098373
  47.6881218  50.6326342   1.4087850  15.5435862  68.2348668  59.1586747
  16.2324299  68.6463725  59.6805837  14.8419489  68.8854467  59.1325011
  71.2946653  63.7832308  16.3323212  71.2045383  63.5216331  17.2486579
  72.1881390  63.5319090  16.0982621  75.5061595  79.2363059  68.7604024
  75.2079455  79.0678894  69.6542353  76.0955159  78.5082495  68.5633596
  76.3748312  46.1144876  26.5063381  75.6227779  46.5416193  26.0962057
  76.0604191  45.2383518  26.7294121   6.7902388  72.7054941  68.4467103
   6.2403168  71.9309651  68.3287065   6.7112888  72.9157841  69.3771814
  45.2256012  30.5755711  24.7890234  44.9843884  29.8588300  24.2022276
  44.5159388  30.6090999  25.4304934  69.8710410  79.4117605  64.8650481
  70.7249991  79.8110020  64.6989514  69.2388264  80.0664055  64.5684387
  19.1846575  72.3761475  59.7746684  19.5106901  73.2070505  60.1204075
  19.1469349  72.5091469  58.8275041  32.4589498  17.4118344  34.4199528
  33.1399161  17.3745553  33.7482967  32.9158217  17.7053706  35.2082028
  75.1384687  42.6088476   4.8153591  75.7740831  41.8967485   4.8870254
  74.7416306  42.4897432   3.9524761  61.4493275  52.1727657   6.0053653
  60.5717373  52.2825623   5.6392908  61.7138386  51.2938070   5.7338983
  49.7998060  80.5762112  67.6428865  50.2963461  81.3448417  67.3620098
  49.2640699  80.8902132  68.3713208  24.5096697  80.2214872  41.8470682
  25.1197161  79.5067036  41.6649713  24.6709837  80.4464709  42.7633609
  42.2635555  22.6843905  13.2158554  42.3315477  22.3358750  14.1047573
  42.6023388  23.5771823  13.2820690   5.8743150  49.9216811  55.4027011
   5.0815875  50.4105823  55.1818039   6.3247735  49.8051898  54.5661916
  49.8534060  50.8010149  14.0274763  49.0885544  50.8758688  13.4568346
  49.6344280  50.0897264  14.6294320  25.4575361  56.3869154  65.8316692
  26.1521067  57.0397913  65.9186353  24.6466936  56.8840015  65.9396543
  55.2355916   4.3369739  58.5672929  55.6157643   4.0137736  57.7504434
  55.9383447   4.2464368  59.2108526  69.4934479  31.4147174  66.2829091
  70.0185458  30.6655836  66.5645097  70.0883261  31.9345647  65.7424380
  63.6423826  54.5379686  50.6411839  64.2090464  54.2260838  51.3467693
  63.5266256  53.7766218  50.0726938  71.1747456  22.4661779  25.2361512
  71.0571957  21.5318489  25.4077315  71.5542936  22.5025678  24.3581700
  20.0302312  24.7067499  13.3718121  20.5150506  23.8902164  13.4920311
  20.5559442  25.3663063  13.8244045  71.4302254  21.6467881  21.9642448
  71.3072681  21.1322260  21.1665344  72.2590733  22.1057391  21.8278408
  78.8175917  45.3921080  22.7898979  79.0780449  44.5842886  23.2324195
  78.3023357  45.8669996  23.4419894  66.5778176  54.6682441  59.2600967
  66.9256989  54.1034150  59.9501540  66.4821402  54.0903365  58.5030641
  70.4616451  49.8176384  16.9434655  70.1194382  50.0805235  16.0890555
  70.8900595  48.9771080  16.7815876  84.5358531  77.9997408  47.7164497
  83.8412205  78.5889828  47.4223270  84.8016039  78.3486306  48.5672655
  56.9493294  57.5230169  20.1199818  56.3021278  57.1262455  19.5369387
  57.7065039  57.6903677  19.5588171  54.5268536  39.4211626   9.7147155
  53.6202574  39.4528031   9.4092315  54.8078775  40.3361082   9.7259533
  51.9981670  62.6639271  14.7786939  51.4944506  63.2068205  15.3851306
  52.7628088  62.3870993  15.2835953  67.0368576  47.3647833  13.5064518
  67.4203968  46.6244316  13.0363393  66.2332869  47.0142031  13.8906407
  43.8671405  69.9978740  28.1704283  43.4686381  69.8034425  27.3221231
  43.4655387  69.3717475  28.7728524  25.8190168  79.4982659  66.1923807
  26.7450346  79.6577608  66.0099431  25.4132761  79.4281470  65.3282692
  60.2680206  47.2403383  18.2529354  60.8108377  47.5030375  17.5095844
  59.5550060  46.7352152  17.8621757  42.4416365  49.2111647  63.0055978
  41.5649237  49.5715320  62.8724011  42.9581942  49.5638591  62.2810223
  44.7561026  21.2305450   1.5963449  45.2487516  20.4098678   1.5925336
  43.9258766  21.0134912   1.1722640  13.1803901   9.2557113  51.3169922
  14.0584952   9.1850774  51.6913905  12.6456792   8.6648480  51.8472709
  50.5760002  34.8477006  14.6528769  51.0047626  35.5108285  14.1118991
  50.6204796  34.0469384  14.1303504  85.3896332  28.0620742  24.4534636
  85.3016758  27.9193830  25.3958726  84.5644188  28.4727025  24.1953444
  37.4506576  40.3852622  70.7931844  38.0010612  39.7324721  71.2257920
  37.9937131  41.1728351  70.7607345  55.3467321  30.8802176  13.0589223
  54.5218229  31.2653255  12.7631986  55.8681774  31.6272950  13.3525109
  45.0323439  11.6944408  10.7087839  44.6920156  12.5696921  10.5234647
  44.6201944  11.4475369  11.5366745  19.2212445   6.9520251  54.8947408
  18.5077006   6.3654868  55.1458516  19.5030982   6.6329734  54.0374209
  69.0795294  53.0743587  50.0420751  68.9312951  52.3832821  49.3965735
  68.8536016  53.8833439  49.5830192  42.2510433  36.6508961   5.2630001
  43.0041075  36.2398696   5.6874812  41.6788626  35.9197569   5.0300312
  28.9529950  12.5812738  57.3862697  28.4678847  13.2983939  57.7944805
  29.4909484  13.0058782  56.7180230  73.5161543  28.9443636  24.9497604
  74.0343046  29.0263867  25.7504010  73.2578611  28.0230069  24.9249625
  15.5284459   3.3775823  63.2384022  15.3266627   4.3125169  63.2008554
  16.0719354   3.2186715  62.4666496  52.2208745  15.4266564  67.5417950
  51.5946538  16.1124055  67.7738016  52.6380021  15.7442061  66.7409195
  77.5074546  76.2921178  39.8839750  78.3578126  76.0837853  40.2709140
  77.6387803  77.1398294  39.4592752  56.5750599  29.4481373   1.4728342
  56.2682533  28.9048076   0.7469591  57.5146961  29.5456338   1.3185377
  44.9743414  33.7509775  15.0003254  44.6116066  33.8052249  15.8844721
  44.4880533  33.0386257  14.5852232  48.2622719  34.3167710  17.0373189
  49.1790247  34.5913053  17.0578218  48.0723095  34.1853929  16.1084020
  22.0344461  77.2387898  45.0770773  22.9801859  77.1427333  45.1892342
  21.9321026  78.0636775  44.6024002  37.1760566  20.5487697  68.0454229
  37.5570971  20.2131145  68.8568266  37.2547109  21.4998643  68.1193836
  84.7937489  56.9371986  26.5166044  84.7463703  57.2737026  25.6217575
  85.3554726  56.1647987  26.4526057  54.1808987  22.1106482  25.8798242
  54.5306969  21.3079286  25.4931521  54.0743113  22.7068543  25.1386046
  48.3721161  11.2764633   8.4261149  48.2976675  10.5922735   9.0913773
  48.2109737  10.8240080   7.5981361  18.8454021  76.0545790  65.3458800
  19.4164385  75.8943665  64.5945598  18.8544430  77.0054805  65.4551252
  55.1488543  65.6525183  13.9904869  54.6331406  65.8165455  14.7800231
  54.9264240  66.3759851  13.4045255  36.3611484  35.5228186   5.4456919
  36.8279123  34.7020364   5.2885902  36.6347170  36.0949445   4.7287101
  65.2104330  59.2475224  27.7955556  65.0168324  58.8785315  28.6572933
  65.2488279  58.4887838  27.2132516  39.1421175  35.2524567   8.7627220
  39.2400813  34.8340487   9.6180397  39.6449852  34.6981883   8.1659454
  56.4819956  80.1109982   2.7792165  57.1109200  80.4747391   3.4024152
  57.0178795  79.8144913   2.0435908  34.9677862  69.6485126  53.5943951
  34.9537291  70.4893767  53.1372501  35.2793993  69.8595559  54.4745042
   7.2294900  37.0955515  29.9246573   6.5372178  37.5986052  29.4957948
   6.7627046  36.4560676  30.4626179  39.7063732  47.8351116   3.2753828
  39.1594505  48.0054951   4.0422446  40.0771856  46.9669819   3.4337676
  73.9969301  26.3527656  26.8719149  74.2646217  25.4524493  26.6875243
  73.9630461  26.4016724  27.8272629   1.0444052  12.9580514  60.0395514
   1.0378415  12.5587861  59.1696228   0.4410011  13.6976735  59.9681832
  52.9499006  25.6745267   2.1450362  52.3806715  24.9345160   2.3562154
  52.9995108  25.6733823   1.1891232  13.2273195  21.7738748  34.0766144
  13.5260579  21.0804343  33.4882903  12.6202009  21.3364863  34.6735501
  12.3269238  54.3814206  64.2814096  12.3234190  54.3003368  63.3276560
  12.9595674  55.0771141  64.4603165  71.0015440  54.8441219   6.6977620
  71.0661507  54.5767307   7.6145822  70.1126099  55.1882887   6.6107208
  22.6077188  65.1423752  55.0641288  23.0686296  64.3531882  55.3486969
  23.2876696  65.8147800  55.0219621  55.6888572  68.5923683  71.0958742
  54.7836916  68.3140361  70.9564512  55.6854598  69.5280945  70.8942967
  85.4189777  14.9863434  25.7634997  85.0342369  14.2526031  25.2840877
  84.6722794  15.4214406  26.1750340  57.8001165  38.7942672  20.7470727
  57.1575022  38.7197161  21.4525676  57.7221298  39.6997857  20.4467607
  46.0216767  60.9880157  13.4410810  46.1116607  61.7264266  14.0434825
  45.3532512  60.4321761  13.8416862   6.0190214  77.1313417  38.4941210
   6.0601200  77.4016797  37.5768103   5.2166714  76.6129601  38.5553278
  47.0100600  10.8596913  42.8024735  46.0720927  11.0290687  42.7143897
  47.3989446  11.7252080  42.9285015  71.6294591  41.5792119  56.4847996
  71.9170539  41.4747271  55.5778231  70.8867423  40.9815590  56.5709164
  31.9994122  25.6434457  66.6082488  32.1211917  26.0807292  67.4509715
  32.8842647  25.5555503  66.2539383  42.4926376  19.4407904  21.8446326
  43.4434557  19.5443130  21.8063498  42.3604536  18.5138905  22.0436668
   2.5947568  19.6221328  17.8745043   3.4443567  19.2972040  18.1725335
   2.2004983  18.8785875  17.4185014  49.3446732  26.6895342  26.7339921
  48.8509369  26.8077397  25.9225178  48.6875534  26.7592907  27.4264932
  30.2476992  68.5964167  37.8673424  30.3405203  69.4464743  38.2974781
  29.4435991  68.6743080  37.3539342  84.2617130  48.3128548  11.2059033
  84.0781307  47.3793030  11.3108397  84.8191261  48.5327244  11.9523478
  23.0320024  49.4625664   7.7187830  22.7719975  50.0873280   8.3957607
  22.2410703  48.9510632   7.5484091  15.4939699  32.3064303   0.8058499
  16.3678133  32.4829006   1.1543984  15.0729692  31.7681551   1.4761099
  66.5467072  42.5128841  11.8569863  66.3297701  41.6551828  12.2223914
  65.7089138  42.9738617  11.8142116  60.0471926  65.4027796  37.6114821
  59.7515106  65.1734400  36.7304564  59.3060589  65.1855803  38.1769705
  51.1036205  25.1247454  12.1185637  50.4499960  24.6602297  11.5958500
  51.1007738  24.6728015  12.9623473  27.4428470  13.2498710  39.2106261
  27.9190309  13.5351340  38.4308161  27.8907258  13.6837546  39.9368371
   9.9466480  50.7144236  63.5802050   9.4103016  50.0600004  64.0277441
   9.9656118  50.4253167  62.6679059  11.7794146  71.8478214  58.2884862
  11.8186249  71.6757738  57.3476912  10.9118761  71.5410482  58.5521187
   8.8046357  18.2229781   2.8762385   8.6747644  19.1711760   2.8931627
   8.6796090  17.9478586   3.7844846  66.0138607  70.8051729   2.4137992
  65.0732470  70.7713699   2.5879848  66.2182379  71.7397785   2.3826192
  56.7823887  18.6391890  14.0003097  56.9602489  17.9020417  13.4161758
  56.7745161  18.2539594  14.8765337  18.3057703  60.2318680  45.8030333
  18.1057991  60.3040802  46.7363228  18.5507311  61.1193740  45.5412020
  24.6167047  12.6346366  67.3284643  23.9425380  12.3894851  67.9622053
  24.8732907  11.8079345  66.9198592  72.0308304  30.9105635   0.1646656
  72.0584297  29.9564648   0.2365213  71.1880732  31.0952544  -0.2499173
  79.7413588  24.3264484  18.5069811  79.9786615  23.9927745  19.3721879
  79.2349291  25.1186371  18.6864126  62.1784741  18.5008924  50.9084620
  62.8040940  18.0966394  51.5096428  62.4495370  18.1984870  50.0416841
  12.7614845  57.3540246  67.8954111  12.1724285  56.9916129  68.5571532
  12.2321524  57.3924434  67.0988141  75.8941221  26.2906814   8.7754065
  76.8229246  26.5094185   8.6998057  75.8488226  25.3596735   8.5576820
  77.8131930  64.0934503  61.6379406  77.8054587  65.0450956  61.7406310
  77.0925919  63.7872636  62.1885886  63.7896824  11.0837352  13.0781770
  63.6591530  12.0196915  13.2304204  63.3900356  10.9220636  12.2235572
  27.0689335  10.1964121   3.7425640  27.4262944   9.6581202   4.4487917
  27.1001950  11.0903101   4.0834561  65.6370401  35.6209111  16.5994906
  65.6608009  34.9799156  15.8890045  66.0121822  35.1604509  17.3501420
  76.1316204  22.1405053  20.9506392  76.9488621  21.7539191  20.6361628
  76.2279320  23.0771637  20.7785153  57.2980595  30.8891606   4.5205602
  57.1433687  31.0380912   3.5877568  56.5753794  30.3252244   4.7961432
  69.3678236  30.5766916   6.3306665  68.9156961  30.2266622   7.0983225
  68.9810085  31.4422750   6.1988753  80.1317120  40.0788546  27.4961138
  79.3261766  40.1639128  26.9861078  80.3364849  39.1442847  27.4663520
  39.1188390   8.5672776  68.6789841  39.6357066   9.0294616  69.3388824
  39.7494323   8.3431785  67.9946100  15.4737479   8.1209533  65.6003173
  16.2153537   8.1216352  66.2055065  15.8627755   7.9385249  64.7449769
  48.8059664  26.6517758  23.9989328  49.0314341  25.8630681  23.5056424
  49.3631363  27.3349595  23.6260343  83.3482265  48.6672163  30.7049537
  83.6987209  48.4537554  29.8401856  84.1079712  48.9673328  31.2039089
  33.3062036  23.4281604  71.0410509  32.6005036  22.8237979  70.8109051
  33.0986363  24.2315738  70.5638980  76.1778466  37.2906512  58.5626234
  75.5649344  36.5604823  58.4764697  76.3415496  37.5733825  57.6629021
   8.8434980  11.0647583  21.1923456   9.7698305  11.1266053  20.9592724
   8.6261651  10.1410127  21.0670853  86.6418457  39.1281295  10.1983213
  85.7804489  38.9957952  10.5941856  86.4677906  39.6496725   9.4147849
  72.4326515  68.4116983  16.1132681  72.0688677  67.8699541  16.8135571
  72.7363491  67.7836943  15.4578245  70.4254055  78.0898046   7.7246886
  71.3062000  77.7740192   7.9264688  70.1340437  77.5389051   6.9981569
  61.0726411   0.0278203  70.0827126  60.2699525   0.4029719  70.4449100
  61.6900880   0.0316445  70.8141354  46.1122335  79.6227705  46.3695993
  45.7105459  80.4436671  46.6542210  46.0211767  79.0380704  47.1219720
   6.7571542  71.1960411   7.4440587   6.0739896  71.3902378   8.0857819
   7.5199697  70.9578657   7.9709518  57.0577089  62.8149807  67.7181380
  57.1158115  61.9361007  68.0928739  56.4291159  63.2723963  68.2765948
   2.6057908  55.2886772   7.3364466   2.5804612  54.5662355   7.9638779
   2.5347421  54.8654318   6.4808488  62.0262480  31.0129786   6.4664280
  62.7524090  30.7857609   5.8856541  61.2460613  30.9301686   5.9180844
  39.4261701  13.2226579  68.0614125  39.8989398  13.4817998  67.2704836
  40.0271804  13.4275882  68.7776666  37.0788772  26.4034192  65.1178994
  38.0274684  26.4020173  65.2459826  36.9149215  25.6627671  64.5341309
  75.5803544  45.8109729  60.1963319  75.9713704  45.6848495  61.0608740
  76.3211400  46.0166900  59.6261193  25.9221949  65.1182329  63.2151015
  25.4323973  64.7340929  62.4879380  25.9975065  64.4095051  63.8540568
  80.8187921  11.7913692  67.8225337  79.8698003  11.6906755  67.8966625
  81.1282498  11.8182103  68.7279329   9.9787042  24.6479535  24.6675301
  10.0356672  25.2017808  25.4461575  10.2068612  23.7721872  24.9793172
  57.2124345  21.6159694  61.3453259  56.7046506  21.5883843  62.1562650
  57.9572350  21.0375039  61.5093084  17.9395673  29.6289444  24.8583460
  17.3022935  30.3397942  24.9276733  17.4578378  28.8479805  25.1308656
  72.1168232  36.3601685  24.6102118  71.3644123  36.9517541  24.5987320
  72.8779316  36.9402385  24.5887065  43.6649234   6.8921630  67.5591018
  43.9957149   7.6975743  67.9567470  43.7573249   6.2309234  68.2450010
  85.3623104  24.0884376  19.8397923  85.7743454  24.3853188  19.0284252
  85.6773376  23.1918383  19.9542642  49.7628546  47.5536394   0.1231277
  50.1773405  46.9701576  -0.5124664  49.1055775  47.0085192   0.5556307
  39.9533285  76.0301363  62.2933050  39.8516859  76.2834727  63.2107581
  40.0439657  76.8596804  61.8243964  30.5085999   6.6838471  64.7354032
  31.2331969   7.2856204  64.5649357  30.2054507   6.9165008  65.6130167
  15.6676687  74.7291290  69.7782375  15.2616991  75.5146873  69.4117391
  16.5195192  75.0265896  70.0977738  77.9512882  61.0342598  22.2648644
  77.4271441  60.3140688  21.9143867  78.8367701  60.8646107  21.9433522
  38.2549691  68.1372929  28.7619185  37.7640247  67.5938225  28.1456065
  37.6631284  68.8610649  28.9671254  69.6547461  49.7032404   2.8552714
  68.7675428  49.8892260   2.5478393  69.5323038  49.1051674   3.5925263
  53.4990746  78.8176097  27.3680544  53.1333596  77.9334415  27.3949671
  54.3988568  78.6955066  27.0651865  57.6412773  73.2028437   7.2585356
  58.5040665  73.4970617   6.9665426  57.8264427  72.5610638   7.9441494
   6.0156629  37.5701380  14.6896625   6.8867204  37.8304410  14.9892271
   5.4232309  38.2007289  15.0990605  50.8143234  39.6732116   5.0574821
  50.6957006  38.7625265   5.3273189  50.2050686  40.1669502   5.6063557
  34.0002073  64.7656953  57.4679949  34.7761263  64.7275698  58.0272211
  34.2422594  65.3663790  56.7631401  53.4711129  25.9908454  62.7485915
  54.0714414  25.5289332  62.1633770  54.0384538  26.3853900  63.4109266
  22.6699550  21.8611781  41.9335808  22.5385911  20.9455268  42.1796765
  21.7977244  22.1712415  41.6900505  23.4537831  28.9694052   6.8172550
  23.2824078  28.0307226   6.7415845  23.7840309  29.0814905   7.7086633
  48.3210386  70.2154624  43.8208331  48.2839693  69.3402755  44.2067160
  49.2059244  70.2816903  43.4619178  18.0436704  45.8226204  24.2458105
  18.8650796  46.2236786  23.9617801  18.2202241  44.8819017  24.2352319
  48.9806087   7.7952306  46.0099925  48.7172849   8.4712379  46.6344180
  49.8109920   7.4637954  46.3518276  69.2924213  20.6875229  12.8871751
  68.4494448  20.7929873  12.4461520  69.5252371  19.7703791  12.7426898
  63.8483413  33.0015147   2.7339254  63.9753421  32.2275412   3.2826267
  64.5998653  33.5606683   2.9308735  83.1415367  52.6413584  32.9071021
  83.9592171  52.9536390  32.5196648  82.5216579  53.3572674  32.7676105
  80.4189014  60.5291271  45.7203245  80.0582218  61.4032936  45.8685589
  80.8638573  60.5937481  44.8752928   1.5119741  34.8628855  25.1045585
   1.8375871  35.0935149  24.2344952   1.1794755  35.6862903  25.4618835
  64.8348713  21.7820764   8.0947059  64.6822977  22.4199438   8.7918991
  65.7875443  21.7017937   8.0478120  76.7426348  36.9127297  12.7660429
  77.0245504  36.8680882  13.6796975  75.8445883  36.5816116  12.7760351
   0.4680917  12.1014321   7.3418158   0.3155038  13.0389333   7.4603212
   1.4020250  12.0339978   7.1431798  31.2154300  15.3712909  58.7233688
  30.9727771  14.4940059  59.0195467  30.6712443  15.9597842  59.2465987
   8.3384824  43.4541368  48.8205957   7.7856934  43.3837986  48.0423212
   9.1997814  43.6977339  48.4813976  21.6247416  65.8457613  66.0000944
  20.7289982  65.6760216  65.7084370  22.1755958  65.4526901  65.3231239
  83.6881023  51.0500717  65.0394392  83.4428286  51.4344454  64.1978121
  82.9335564  50.5160427  65.2878428  78.0647393  70.8384283  19.5163952
  78.9837332  70.8824714  19.7804866  77.8333183  69.9141272  19.6077381
  68.1305149  40.8744240  60.6145906  67.4470606  41.0209084  61.2685537
  68.8401857  41.4620161  60.8740759  55.3407531  11.5479434  18.5520969
  56.2713613  11.5133202  18.7734542  54.9237068  10.9546960  19.1768871
  33.4587418  72.3970325   3.9182888  33.5765060  71.4842780   4.1814266
  33.3862316  72.3638590   2.9644142  12.8262651  48.8724566  67.0692730
  13.5226965  49.5226336  66.9771338  13.2714319  48.0886412  67.3912764
  86.8647371   6.3776267   2.5643669  86.9370352   5.4683793   2.2740636
  85.9417759   6.4826405   2.7953277  27.7396417  74.8588657  24.9801230
  27.5661445  74.6931458  25.9067655  27.1023846  75.5290890  24.7332621
   6.8883317  10.0519495  61.3007212   7.4986308   9.4279890  60.9077311
   6.1600678  10.0972586  60.6812000  34.4318765  71.6340859  26.2964092
  33.4778365  71.7028625  26.2602268  34.6973341  72.3106654  26.9193016
  49.6192186  16.8802195  60.4379034  50.5301683  16.7047434  60.6737232
  49.2164915  16.0140161  60.3768587  14.1797078  67.6921558  62.4991846
  13.9161885  68.5856533  62.2790766  13.6901903  67.1408129  61.8887520
   2.4849185  58.8777208  46.6044331   1.5688339  59.1105318  46.7554903
   2.9794887  59.4748068  47.1657848  83.1753668  61.7076159  68.3499908
  83.0235618  61.4575815  69.2613983  82.3255887  62.0244312  68.0438185
  81.2190118  80.9066772  42.9664469  80.4477778  80.6196499  42.4775219
  81.2714251  80.3027439  43.7072229   5.8289295  59.5763206  54.2485189
   6.7252374  59.3669796  53.9857626   5.8583462  59.5968246  55.2050447
  59.0952319  40.7580722   5.6401096  58.4529954  40.3108752   5.0889431
  58.6803293  40.8050216   6.5014349   7.7874535  70.0389862  66.8637085
   7.1222055  69.6292353  66.3107347   7.3762000  70.1029015  67.7256918
  16.4104331  65.0981188  47.4364471  17.3219490  64.9994659  47.1614218
  15.9187460  65.1616955  46.6176510   7.5119811  78.1509924  49.1789484
   7.2567588  78.5573816  50.0071621   7.9789412  78.8408709  48.7075186
  73.1468473  28.2334388  38.4582840  72.9073463  28.6482871  37.6295696
  73.4717976  28.9520324  39.0007434  42.5529528  66.8737125  67.2441244
  42.5515985  67.4874401  67.9786777  42.8585291  67.3919249  66.4996052
  67.3529075  18.5174287  19.6522270  67.0462410  19.4059194  19.4711815
  68.2036661  18.4643090  19.2167698  26.6938138  69.3748903  41.7958736
  27.6464820  69.4494390  41.8515253  26.4358115  70.0583601  41.1773729
  30.0282310  17.1343260  65.4097223  29.2065702  16.6966085  65.1872158
  30.5776661  16.4409380  65.7751942  53.3768962  46.6654456  18.2443367
  53.7038700  47.4982608  18.5845314  53.9355959  46.4790309  17.4897895
  48.2594841   0.1164274  39.6729088  48.2366043   0.8915644  40.2340508
  49.0969651   0.1779680  39.2134857   2.4685138  80.9450610   5.3611074
   3.2773536  81.4565452   5.3412567   2.7615374  80.0357802   5.4209219
  14.3084586  75.9068775  57.9960680  13.7834108  76.7007589  57.8945017
  14.7200799  76.0002375  58.8551855   3.9370492  48.3049631  39.0790701
   3.0350703  48.1965113  39.3805742   3.8662601  48.3579350  38.1259632
  86.5123742  59.0036058  10.7937360  87.0378560  58.8277912  11.5742409
  86.7093858  59.9137831  10.5723882  12.7675748  62.8176928  57.9385328
  12.2147048  62.2075939  57.4503231  13.2006788  63.3407831  57.2639704
  68.0173853  54.1481590  52.4469471  68.3323016  53.9144135  51.5737772
  67.7429500  55.0615978  52.3660040   4.5369810  55.2865791  52.0657921
   4.0186918  54.5465469  52.3819590   4.4342172  55.9569407  52.7412796
  80.1465550  17.9953611  70.1776457  79.8138901  18.8844943  70.3001595
  81.0755351  18.1124759  69.9788713  33.9895010  65.7947493  68.2742262
  33.2191563  65.7782745  68.8421440  34.5672965  65.1221514  68.6347771
  63.4223750   3.6479871  69.3263519  63.1527415   2.7340905  69.2351353
  63.5324505   3.7722795  70.2690429  24.0371919  73.0584192  54.6072435
  24.6985841  73.2941389  53.9566851  24.5106721  73.0531883  55.4391193
  21.5268993  63.4318686  36.1666656  21.0522175  64.1859913  36.5162468
  22.1108770  63.1661510  36.8770146  76.5237715  51.6226768  57.2535658
  76.6553130  50.6913757  57.0757627  75.5798712  51.7529392  57.1623755
  70.7450567  40.8395636  24.6617160  71.6469894  41.0897410  24.8621212
  70.2168606  41.5706599  24.9822555   3.3079767  49.9867439  48.1047106
   3.2999438  49.1443825  48.5592365   3.4439832  50.6319857  48.7985373
   1.7706275  74.6962261  70.9195709   2.7153701  74.5738268  70.8262348
   1.3852564  74.0147543  70.3688240  26.3460436  74.8080786  17.7625309
  25.4149251  74.6516664  17.9199634  26.4952963  74.4893630  16.8723808
  75.1094054  19.9073327  29.1676651  74.4334398  20.4169906  29.6143757
  75.1637004  20.2950919  28.2942138  64.6180385  24.4333963  59.4220591
  64.0953033  23.6882048  59.1259575  64.0335291  24.9201899  60.0030994
  76.1550330  38.0681384   3.4461532  76.4857923  37.4499381   4.0978132
  75.2181028  37.8800023   3.3914171  14.4004571  43.8460970  31.0745144
  13.6831439  44.2698574  30.6032181  14.0522814  42.9889917  31.3202286
  28.3990839   6.7256670  66.7890692  27.5135272   6.6624861  67.1468782
  28.6009803   7.6610212  66.8131924  11.1310261  14.9271326  46.5203285
  11.7015486  14.5747595  45.8372688  11.5052717  15.7836275  46.7267179
  13.8374599  57.2519172   3.2487999  14.4349607  57.8966868   3.6276088
  14.4091686  56.5524447   2.9323755  27.8256400  32.1728623  16.4809833
  27.6919635  31.6039861  15.7228695  28.7700494  32.3275531  16.5007911
  84.5622097  48.9853859  16.2086546  84.5109882  48.8804913  17.1587098
  85.2843950  48.4158945  15.9434009  44.4142771  80.7754707  54.4389868
  43.9015388  79.9790955  54.3007231  44.5535755  80.8093548  55.3853893
   1.0268276  19.6589212  36.1872053   0.3886669  19.5140009  36.8857598
   1.4503448  18.8086157  36.0695100   9.0606803  75.3770018  39.4248462
   9.1454202  74.7465992  38.7095547   9.9302077  75.4045534  39.8240900
  16.4378560  60.6417179  60.2505159  15.9076881  60.9051275  59.4983387
  15.8071375  60.5354118  60.9626436  72.5199857  73.2608461  50.8215952
  72.8939822  74.1238880  50.6440544  72.5493302  72.8090000  49.9782658
  46.5160673   3.4265261  29.1211867  46.2503880   2.5247507  29.3013358
  45.7146221   3.8575773  28.8243580  79.2467843  37.7699101  14.6881805
  78.9576350  38.6738646  14.5637260  80.1819907  37.7874577  14.4849239
   0.5625613  68.8672829  25.8183002  -0.1297515  69.4974041  25.6185913
   0.2357655  68.3851433  26.5778899  78.9748117  71.2984562  42.0808411
  78.1571760  70.8919001  42.3679209  78.7058624  71.9367075  41.4201355
  37.2324157  78.4908772  50.1624537  37.7892947  77.7983093  49.8068380
  36.8490481  78.1083775  50.9517288  22.9023443  43.3679927  16.8100486
  23.5286079  43.4996760  16.0982261  22.7225004  42.4278987  16.7999874
  65.5265596  62.9450083  52.5211382  66.2769487  62.4003363  52.2834778
  65.9140113  63.7388277  52.8898621   7.4953622  68.8034201  19.9468255
   7.1300113  67.9496574  19.7147977   6.9050866  69.1415310  20.6202412
  65.6416672   5.1333265  41.5415001  66.0862105   4.2857389  41.5560007
  64.7243612   4.9257498  41.7195225  42.3749398  40.3204024  13.0279289
  41.6936873  40.2352965  12.3609291  42.8853534  39.5140994  12.9532085
  52.6631525  76.2157440  44.7503710  52.7214816  76.6305351  45.6110573
  52.3887255  75.3175926  44.9354506  48.0876928  23.7269812  71.0608625
  47.7864104  22.8258734  70.9448195  48.2479506  24.0423517  70.1714277
  14.0065110  31.8798566  36.2706685  14.5400846  31.3506174  35.6778455
  13.2623899  31.3186216  36.4886832  39.7190772  70.1398242   7.8154073
  40.1838742  70.9431518   7.5811754  38.7998246  70.3324664   7.6307617
  73.3872523  70.8617973  44.0091848  73.0613830  70.7476568  43.1164312
  73.7853863  70.0193739  44.2283678  39.6669112  37.8148950  19.4686828
  39.5004736  37.8095115  20.4112850  40.6176017  37.7332175  19.3928657
   4.2798889  72.9639387  60.0519085   4.5361769  72.2424269  60.6263351
   5.0643235  73.5086155  59.9869585  29.5595980  69.8736668  21.5012097
  29.2892647  69.8748446  22.4194431  29.7757292  68.9596987  21.3163352
  23.6214953  19.4907217  54.7514963  24.2285445  19.4788294  54.0115070
  22.8652131  18.9879732  54.4489813   5.1919621  63.1586885  59.0447807
   5.6099272  62.2983122  59.0806007   5.2530217  63.4920883  59.9399614
  23.7355828   0.2703695  40.0710821  23.1536346   0.4407148  40.8117247
  24.0121289  -0.6385393  40.1878786  62.6781991  67.6584053  31.4227605
  62.2997120  66.9666100  30.8801723  62.7630475  67.2629452  32.2903109
  22.6127942  39.9204505  39.4559227  21.9486364  40.5971492  39.5871292
  22.9646524  40.0961936  38.5832630  79.9746984  25.3516035  60.7643366
  80.3046124  25.1766710  59.8829794  80.3994315  24.6931581  61.3141346
  76.1251023  78.4583282  64.3625975  75.9117737  78.0638409  63.5169601
  75.6858065  77.9006672  65.0046778  67.5148075  10.1108580  43.7309170
  68.4157198   9.7883062  43.7074232  67.1283429   9.6864157  44.4968939
  45.4388218   7.4530916  31.2811065  45.2453344   7.4516706  30.3436661
  46.2893408   7.8868799  31.3494658  56.8420880  75.8558734  13.5742508
  57.6943129  76.0751780  13.9508854  56.7920630  76.3789232  12.7741657
  31.6750526  68.8293552  49.6857738  30.8530545  68.3895874  49.9029207
  32.2406507  68.6661816  50.4405642  12.1259728   0.3749399  61.6408157
  12.9062977   0.5326109  62.1722841  12.1425953  -0.5656595  61.4640808
  67.7808063  26.1289609  16.4257942  67.6140712  26.5141261  15.5655132
  67.3500221  25.2747930  16.3933502  30.6518110   0.5066614   7.9884821
  31.4894953   0.9683638   8.0252719  30.8733780  -0.3660078   7.6635474
   5.6707018  51.0780020   5.6991611   6.5950244  51.2290748   5.5015789
   5.4758113  50.2302976   5.2996002  14.9315441  11.5117753  34.8564625
  15.5602944  11.2350190  35.5230308  15.4568553  11.6261697  34.0645075
  70.4992547   9.8150587   7.3623794  70.5646875   9.0568304   7.9429317
  69.8765900  10.3971565   7.7979046  48.3558872  31.4309096  65.8393574
  48.8921192  31.8834114  65.1882601  48.8955596  31.4221740  66.6298676
  84.7819514  16.7467451  50.4647446  84.6160624  17.3978817  51.1464596
  84.2948257  17.0658851  49.7050810  20.4321795  71.8978794   3.3959375
  20.7730632  71.2035854   2.8320346  21.0974758  72.0022519   4.0761696
  27.7548432  54.7796059  32.2537494  27.5332260  55.5662394  31.7554283
  27.5937152  55.0206518  33.1659818  81.2508830  78.1454182  37.8085685
  81.2847843  78.4037113  36.8875003  81.3440248  77.1928740  37.7937818
   1.6347799  45.8708429  44.1176510   1.5297967  46.1160660  45.0369310
   1.5342012  46.6927814  43.6375189  11.3097215  40.7004642  13.6416698
  10.8647323  41.0338974  14.4207966  10.6503916  40.1654005  13.1998301
   1.5973197   7.7319944  44.1048861   0.7321126   7.9153222  44.4710016
   1.7259076   8.4109873  43.4425688  59.8850110  54.4641685  61.1502218
  60.5650523  54.9747992  60.7108641  59.5176032  53.9111996  60.4606819
   3.0936602  61.4938593  55.9710455   2.3693278  62.0348978  55.6566429
   2.8916436  61.3355255  56.8931913  47.5548730   9.9072949  61.7101474
  48.4767398   9.7664420  61.9259139  47.2313234  10.4811494  62.4045815
  26.1298895  39.7904873  70.2223539  26.6532278  40.2975035  69.6016407
  26.1450791  38.8983583  69.8757887  42.9915211  80.6215533  40.9040022
  43.8173482  80.1409417  40.9610558  43.1160757  81.3802752  41.4741421
   4.6721864  70.3827095  57.0917749   5.1435810  71.1908627  57.2940397
   5.3549659  69.7139215  57.0391846  31.2198281  64.2849112   8.7433672
  31.7833567  63.6639404   8.2817847  31.2677908  64.0157652   9.6606958
  27.6802945  46.1021280  21.3702011  28.1467843  46.8894434  21.6508222
  26.7605066  46.2889194  21.5581632  17.5380933  32.3384237  21.0633707
  18.1305540  33.0083799  21.4045167  16.9152975  32.1851635  21.7739105
  80.3171041  25.9224105  37.4646759  80.0435736  25.8890462  38.3813548
  79.8777511  26.6960812  37.1116352   0.2771813  76.6063399   7.6793903
   0.2644355  76.9122626   6.7724830  -0.3801435  75.9110702   7.7068913
  28.6946034  55.3010321  54.5349646  29.4952393  55.3551006  54.0131521
  28.7259936  54.4307661  54.9323082  82.4626699  51.2217283  29.0032387
  81.5312460  51.4399719  29.0356278  82.5058060  50.3117514  29.2970347
  43.6755877   8.4548120  62.8983212  43.2497960   9.0909128  63.4730482
  43.2369881   8.5632544  62.0544577  78.0055657  68.5185623  39.8676085
  77.7024778  68.2840872  38.9904594  77.2028353  68.6229324  40.3784513
   8.6449259  78.1683357   7.7090440   9.1263574  78.9585741   7.9539476
   8.3000248  77.8320058   8.5361848  16.8596864  41.7971468  69.4314718
  17.6634252  42.3164129  69.4559336  17.0739973  41.0010099  69.9177551
  -0.0272545  69.4097805  59.2041922   0.2277838  69.6204281  60.1024199
   0.7164390  69.6918297  58.6716509  54.6001032  62.5602865  21.2326908
  55.0204947  63.0946207  21.9064760  55.1606228  61.7882729  21.1549449
  14.0029466  19.7850394  42.1044350  13.6721742  20.4569912  42.7005100
  14.8293042  20.1406622  41.7774868   2.3561199  11.9546461  20.2992702
   1.9871366  12.7631497  20.6548071   1.9789216  11.8845773  19.4223177
  32.9922056  40.0040388  37.9915428  32.9477477  39.3549776  37.2894192
  33.8714242  40.3754568  37.9190445  69.6221170   4.1277949  59.1057124
  69.4869611   3.1820886  59.0456464  69.0273592   4.4111125  59.8001375
   6.6593999  77.7818632  17.4315441   7.3851264  77.2587585  17.0910859
   6.2556100  78.1663275  16.6534877  66.9348695  46.6778660  28.7960410
  67.4225333  45.9383059  29.1586208  66.4956525  47.0686007  29.5514536
  78.8950344  74.4334364  12.8158665  78.9686259  75.3861618  12.8717649
  78.3683297  74.1888380  13.5767782  10.7617497  18.0969560  46.4108992
  11.2116838  17.7638376  47.1873188  11.4646196  18.2845676  45.7888031
   8.3376034   4.9035132  13.7018238   9.2744549   5.0151360  13.5403286
   7.9934915   4.5505870  12.8813015  84.5714341  19.1701567  33.4954429
  83.6969792  19.3670011  33.8313198  84.9984672  20.0238633  33.4243250
   7.9622132  31.8051147  47.2551107   8.8928634  31.7310596  47.0438337
   7.6687628  32.5800681  46.7759800  16.6296577  13.1713319  59.2667675
  16.1893773  12.9424429  58.4482336  15.9459555  13.5743082  59.8019266
  11.6885793  30.1098537  13.7374449  11.5868437  30.7269287  14.4620800
  10.8251178  30.0798106  13.3254206  86.2481358  77.6123333  39.6318555
  86.0913157  78.4831476  39.9969888  86.5039490  77.0794487  40.3847313
  37.5807595  43.4692669  66.0399199  38.3492947  43.9116478  65.6795216
  36.9045115  44.1462421  66.0649490  28.4212899  37.0675397  30.5048943
  29.1263366  36.5437460  30.1243949  28.3059740  37.7945232  29.8929858
  83.6425012  70.3601837  34.3945241  83.6254397  70.7991886  35.2449465
  84.3012160  70.8386612  33.8911533  13.9412189  73.0631542  59.4027805
  14.6602619  72.5889015  58.9852905  13.1563854  72.5739384  59.1559267
  12.7723675  14.9082117  62.7555227  12.1581572  14.4062262  63.2912350
  12.2264081  15.5533628  62.3061419  32.0292821   3.7258272  41.9012833
  31.6341256   3.7784510  41.0310411  32.6953211   4.4133024  41.9038630
  29.5114636  59.4423819  67.3696375  29.2357039  59.3415070  68.2806873
  29.8500824  60.3362751  67.3194599   2.5046054  61.0634279  42.2648621
   3.3752608  61.3814259  42.0259714   2.0019081  61.1078072  41.4514971
  63.7148707   4.1235476  46.1725569  64.0476840   3.5361128  45.4940414
  64.1549867   3.8382940  46.9732809  81.6000452  50.3219175  42.4740076
  81.1156442  49.6588135  41.9821930  82.0864018  49.8246527  43.1315899
  54.4893609  33.1614125  15.9082924  53.8952918  33.8812888  16.1206279
  54.6412651  32.7215684  16.7447696  22.7288723  42.1420717  64.2959499
  22.3040390  41.5742254  64.9388313  23.2546329  42.7461100  64.8203039
  80.0769737  55.4177094  22.0731449  80.5544701  54.5890665  22.0333409
  79.1573837  55.1689577  21.9798303  22.5770688  67.1158695  48.6311150
  22.0796514  67.4274540  49.3872356  23.1056142  66.3946772  48.9728069
  76.5900853  64.1914892  26.1789036  76.9701543  63.4142637  25.7693958
  76.9365540  64.9242020  25.6696606  17.9023027  27.4522066  37.7538109
  17.8848207  27.7106714  36.8323326  17.4799287  28.1774759  38.2140493
  86.3106184  54.6254444  25.9923196  86.7018362  54.0838528  26.6777802
  86.2766657  54.0536356  25.2254343  25.5240917  66.3510656  52.3088169
  25.5298877  66.8665743  51.5023088  24.7832847  66.6952801  52.8077698
  79.6558895  42.9984665  23.8355017  80.5007949  43.1324911  24.2649245
  79.7151151  42.1203518  23.4591556  29.2848286  66.3155810  70.4251088
  28.5855446  66.0102908  69.8471535  29.3855343  65.6152885  71.0698443
   7.1105862  58.7807322  28.1205964   6.2234604  58.5442829  28.3913970
   7.6576394  58.0628014  28.4392476  77.5548103  46.0421324  44.0946007
  78.3228305  45.5703306  43.7724590  77.8847977  46.9122887  44.3185854
  16.2617874  47.4785185  27.4676514  15.9893847  46.7996502  26.8502641
  16.2081110  47.0574999  28.3256125  32.8577566  68.1652403  51.8494606
  33.3262682  68.9219713  52.2017193  32.5850892  67.6711845  52.6226330
  70.8691325  81.7297935  36.1336470  71.8062523  81.8057919  36.3132691
  70.6009462  80.9340668  36.5931344  20.9074259  40.0020170  23.8875723
  20.8800721  40.4724264  23.0543876  20.9085608  39.0772343  23.6405730
   2.0047285  77.6642895  33.1932592   2.3765951  78.4917068  33.4987450
   2.6801601  77.0133305  33.3837247  83.0685102   9.3398726  11.8233810
  82.8633152   9.6479762  12.7061020  83.6820279   8.6176455  11.9583545
  64.3784611  13.7243903   6.2987266  64.4461797  14.6503699   6.0659013
  65.1313977  13.5648311   6.8678127   8.8317865  57.4173260  40.1751852
   9.1203398  57.2219563  41.0666990   7.9436803  57.0633984  40.1279163
   5.9121370  65.4225588  43.2867765   5.7550454  64.7454023  43.9448118
   6.5682942  65.9950733  43.6841631  11.3024025   9.9637251  47.5792265
  11.1259537  10.4173498  46.7550182  12.1197670  10.3493052  47.8946209
  82.7807875   4.4579821  59.2148781  81.9984098   3.9128618  59.2983437
  83.2919379   4.2652731  60.0008965  20.8713031  80.3584194  47.4116993
  20.1796460  80.1198387  48.0288887  20.4056025  80.5927181  46.6089201
   9.2054671  54.4435740  41.7014313   8.2585591  54.5779562  41.6622019
   9.5386320  55.2176523  42.1553421  18.8993955  30.6125188  68.2788229
  19.1414309  31.1241317  67.5068760  19.7338021  30.4023433  68.6981392
  24.6069103   0.3828363  32.0183969  25.1257812   0.3335981  32.8212547
  24.4243269  -0.5298204  31.7948747   4.5693275  67.8993940  25.5622983
   4.9154502  67.6189756  26.4095283   5.2267909  67.6129866  24.9283051
  26.9671226  79.1419744  39.2492867  26.8535733  80.0166035  39.6212602
  27.7675533  78.8106203  39.6564054  14.5962811  56.0176802  32.5394917
  15.5328321  56.0895777  32.7237082  14.1707921  56.2793589  33.3560181
  26.8638062  75.9404516  27.4310493  26.1672878  75.2860594  27.4845910
  26.4028120  76.7785978  27.3960090   8.5553074  66.4129353  42.1106625
   8.6615217  67.2865391  42.4871731   9.4404089  66.0487318  42.0971155
  45.3286173  69.4341993  44.9433327  46.2695029  69.5541096  44.8145390
  44.9247077  69.9171686  44.2223406  30.0003719  76.0453606  65.4636669
  29.7473907  76.7680407  64.8892403  30.9572577  76.0687685  65.4708099
  77.5107643  53.6629963  29.6139240  76.8821564  54.3777180  29.7151947
  78.3529701  54.0488148  29.8548913  10.1710784  61.6815662  46.8973112
  11.0310185  61.9754028  47.1979666   9.5599860  62.3278761  47.2509766
  82.6894122  48.7506771  44.8481941  82.1836149  48.5296774  45.6302166
  83.5891547  48.5098982  45.0689220  14.5617127  53.8218927  18.8347816
  13.7127030  53.4811115  19.1163599  14.5180535  54.7593021  19.0234315
  12.9189003  77.9296684  55.8518267  13.2562792  78.4518385  56.5796614
  12.1587539  78.4193897  55.5378485   7.4297267  46.9540834  61.9717169
   7.8766817  47.0124149  62.8161478   7.4965107  47.8353071  61.6039991
  86.8006945  31.4073777  39.3033266  86.6869713  32.2946978  38.9627934
  87.1163479  30.9019685  38.5542226  45.4724073  72.7125168  52.2088909
  46.4140081  72.6065207  52.0732927  45.4030514  73.3488798  52.9205561
  23.3324051  66.1890125  63.6865807  24.1798353  65.7645559  63.5526752
  23.3665609  66.9710970  63.1357574  79.4731918  81.5724850  46.0433340
  79.8295828  82.1710205  45.3868532  78.5239777  81.6645622  45.9612036
  86.7442568  59.7732258  50.8929157  85.8916081  60.1947689  51.0002613
  87.2869818  60.4359150  50.4656887  10.6073117  75.4193449  49.5224810
   9.8427039  74.9949360  49.9116945  10.8526850  74.8492193  48.7937975
  33.8660390  76.5253341  58.5607769  34.3229500  75.9407532  57.9560210
  33.5209165  77.2234833  58.0042626  53.0625560  64.5678186  20.3864813
  52.7069976  64.5344067  21.2745643  53.6743238  63.8327646  20.3456068
   1.0964967  73.2374382  37.8821659   0.2822712  73.4750032  37.4385095
   0.8916134  73.3109379  38.8142872  18.6759889  50.7789421  36.3879466
  19.6216869  50.7410002  36.5309405  18.5623300  50.5307198  35.4705048
  37.2526741  80.7762527  24.7793746  38.1941581  80.8704090  24.9241877
  36.8502140  81.2995815  25.4724693  83.2532620  65.8988905  38.2870650
  83.9450869  65.5895472  38.8718009  82.4403876  65.7020378  38.7525916
  22.0241547  50.6070137  24.2040825  22.8293276  50.2961683  24.6179700
  21.3218188  50.1918983  24.7047186  59.2432311  80.1054478  44.6022081
  58.9642313  80.3402805  43.7171984  59.9993923  80.6672668  44.7719526
  10.5071628  44.7292328  47.3570156   9.8623335  45.1047325  46.7574930
  10.7743108  45.4624510  47.9113197  31.7653333  20.9292615   9.5610176
  31.1682545  20.3278172   9.1160522  31.2609373  21.7364943   9.6619735
   6.6656595  59.4093227  62.7678251   6.2509805  60.1062965  63.2762527
   6.0594410  59.2469311  62.0450783   2.5355464  75.7248306  62.3182964
   3.1785369  75.9704781  62.9834652   2.2624639  74.8409367  62.5640297
  72.0310745  11.7034404  63.2933440  72.3309812  11.5836017  62.3922743
  71.6620049  10.8547608  63.5378059   7.6075304  27.7739358  60.8608437
   6.6643906  27.6190805  60.9131718   7.9773843  27.2392392  61.5633678
  50.2910995  73.6181116  34.7075295  50.2981138  74.3871593  35.2773976
  50.9221077  73.8250685  34.0181613  14.5674396  50.3192616  40.3738165
  14.8677206  51.2188721  40.5032778  14.2556846  50.2986813  39.4690442
   6.6362149  54.5898438  42.1653700   5.8622104  54.6106386  41.6025925
   6.3067412  54.8190880  43.0343485  79.3057474  66.5476274  51.7368078
  79.5930281  65.6345606  51.7389297  78.4397563  66.5271950  52.1440840
  11.4759874  59.1292048  45.3260565  11.4966333  58.8730192  44.4040060
  11.1896348  60.0425005  45.3145361  73.8872757  62.7608109  21.1836886
  73.3640769  63.3266354  21.7514396  74.7337093  63.2030916  21.1191177
  22.5863528  73.2801008  37.8133106  22.4079251  74.2181396  37.7464080
  22.5208449  73.0899858  38.7491512  54.7310236  15.1962821  69.1292596
  53.8244236  15.2723615  68.8317372  54.6999651  15.4353540  70.0556029
  25.6292748  35.8512521  39.0438962  26.4540434  36.3352895  39.0850306
  25.1588607  36.1118722  39.8357439  75.1666628  11.3528026   3.6404501
  74.2244040  11.3016189   3.8009487  75.3484856  12.2905314   3.5784994
  33.0878326   8.7262182  34.2555928  33.9504161   8.5430269  34.6279120
  32.4722778   8.4886961  34.9490666  15.2856576  73.5569048  34.0453148
  15.4792857  73.3797026  34.9658251  14.8998332  74.4329023  34.0460467
  68.1222787  38.6969519  67.3718929  67.2867921  39.0809655  67.6378393
  68.2068911  37.9106092  67.9111004  10.1649487  42.9161215  60.5193806
   9.4236982  43.5104656  60.4030514  10.5212188  43.1428528  61.3783932
  16.6049170  56.0711241  53.5300493  17.1028209  56.7790127  53.1211281
  15.9501326  56.5178013  54.0666771  20.0281113  30.2224379  62.4667072
  20.3919142  29.3378572  62.5040913  20.6899690  30.7341604  62.0016050
  24.9593460  20.3183298  27.3320937  24.7090717  20.8944921  28.0543327
  25.6910297  20.7680445  26.9094491  57.2871878  66.5509272  42.8915644
  57.7352359  65.8456087  43.3584738  57.9860237  67.1569586  42.6454210
   1.3499648  37.1100299  54.6366598   1.1806542  37.9477851  55.0676252
   1.9252975  36.6415374  55.2414228  36.8474126  74.3531275  17.4251091
  36.4186954  73.5561800  17.7370417  37.7072024  74.3428946  17.8456903
  28.3161521  52.6342583  63.3078766  28.3382440  51.9996691  64.0241432
  27.9724431  53.4336758  63.7066555  62.3084991   3.0577497  21.0434055
  62.9897612   2.8982573  21.6966105  61.4909761   3.0411367  21.5410089
   5.2413261  62.4232244  54.3574047   5.8111310  61.6569519  54.2911816
   4.4307160  62.0866299  54.7393084  30.8882713  64.1043949  60.8457851
  30.4627919  63.2475042  60.8151293  30.8014202  64.3824482  61.7575788
  23.3366108  46.7527866  69.8682213  23.6541009  46.0447931  70.4287338
  23.3094883  46.3701487  68.9912462  71.9750967  64.6751308  37.5339770
  71.5225127  65.3631973  37.0461655  72.8015700  64.5541334  37.0665002
   9.2280805  45.9108925  44.0537405   9.3169558  46.5546131  44.7565603
   9.3949151  46.4068270  43.2522106  21.2322903  59.2869425  69.5972967
  20.2854061  59.3352413  69.4657326  21.5814662  60.0250530  69.0977955
   8.1502550  17.0929747  58.6760616   7.7345794  16.3203077  59.0587234
   7.4197166  17.6366739  58.3812189  25.8318197  28.4570627  30.6391954
  26.6595276  28.9303522  30.5547738  25.9517565  27.9001169  31.4083886
   7.5577855  41.6803217  25.1439929   8.2251513  41.6556072  25.8297372
   7.3593915  40.7602930  24.9695873  12.4953878  35.6264639  27.8879166
  12.1836627  36.4581203  27.5309801  12.2545981  35.6579208  28.8138032
   7.6799870  67.6626778  51.1427784   8.0862749  68.4946966  51.3854837
   7.6113945  67.1802855  51.9666862  13.7976980  31.4160180  63.9476633
  13.7347400  32.1882582  64.5097256  12.9845035  30.9368896  64.1069746
  79.2749550  55.7039547  40.4485369  79.8015937  56.1211824  41.1303043
  79.4565555  54.7690153  40.5441523   8.0618590  76.9430399  46.7082405
   7.1761757  76.6763115  46.4619589   7.9620361  77.3315859  47.5773191
  73.4863105  53.1237650  42.4142170  74.1864374  52.5852728  42.7831078
  72.7718761  52.5082254  42.2501278  20.3379535   2.7692251  17.9167736
  20.0265103   3.4247236  18.5409164  19.5817595   2.2014265  17.7684486
  55.2288723  69.3513441  32.3456454  55.0717640  68.5502338  32.8454161
  56.1640453  69.5230341  32.4561000  32.6573681  11.8773680   4.1838396
  33.5004094  11.5380697   3.8831913  32.0135614  11.4615278   3.6104101
  30.7104874  74.3673038  38.0321932  29.9548078  74.4790030  38.6089969
  31.4073753  74.0535259  38.6084914  27.6062345   4.6303778  62.9486465
  27.0157843   4.3424444  62.2524452  28.2306620   5.2078657  62.5095320
   9.0312515  30.1248277  13.1517158   8.6217199  30.8763373  12.7230583
   8.4799229  29.3809236  12.9090915  82.1252309  32.2005999   3.3309255
  82.5815378  31.4072669   3.0504976  82.8150378  32.8600419   3.4053312
  62.7739623  62.9939222  53.6657190  62.4379327  62.1005535  53.7379169
  63.5974434  62.9020739  53.1864738  32.6693925   5.0194197  60.0218868
  33.1318557   4.9999742  59.1840458  32.5949176   5.9501200  60.2328062
  33.8290644  72.5168467  69.8495102  33.0887079  72.2114086  70.3737307
  33.8980412  71.8798113  69.1384125  22.8285062   8.9173822  41.9498301
  22.7725982   9.8685198  41.8578911  22.8438639   8.5903006  41.0503769
  37.0825171  60.6207037  34.3706346  37.4526238  59.8531961  34.8067331
  36.3424230  60.8755732  34.9215770  -0.0201374  42.7157164  66.1595011
   0.7793885  43.0613804  66.5563726   0.0989931  41.7660093  66.1689997
  79.5033964  58.1578732  20.7533813  78.8293662  58.0114889  20.0896883
  79.7664639  57.2786999  21.0255599  22.7018595  63.4821415  62.8072357
  22.7601337  64.4160128  63.0090284  23.4930849  63.2965517  62.3015165
   7.4557646  38.7540496   1.3423668   7.2275647  38.0293191   1.9245420
   6.6802843  38.8742841   0.7942711  24.5908149  80.8893521  10.0244270
  25.3875404  81.1245473  10.4999767  24.6638870  79.9448903   9.8870121
  70.4648863   4.1726745  12.4539123  70.1927398   3.7821353  13.2843624
  70.3060840   3.4881938  11.8039070  26.8328533  43.8172595  67.4104362
  26.3475308  43.0704562  67.7611058  26.2430582  44.5621459  67.5267335
  58.9527300  81.5412807  38.3662462  59.0951588  82.0156956  39.1853189
  58.2461121  80.9269524  38.5650420  34.0664135  25.9569991   8.6553560
  34.4041883  26.6664946   8.1087671  34.7737251  25.7734311   9.2736183
  79.6516284  69.9631739  38.2806301  79.0352425  70.5568695  38.7093806
  79.3412330  69.0877342  38.5119081  68.8839641  15.4669070  24.4185853
  68.7607112  14.5300090  24.2660594  68.8550296  15.8575964  23.5452247
  14.5531678  70.2931070  52.3298883  14.1629183  69.4272804  52.2103500
  13.9898038  70.8812523  51.8269587  68.1404863   0.6150258   3.6782680
  69.0823864   0.5367005   3.8296638  67.9525744  -0.0319564   2.9983173
  75.8121600  40.2455091  24.0316129  76.6574874  39.9349475  24.3559670
  75.9130767  40.2644682  23.0799365  32.3975754  71.1439562   9.4341689
  31.9128299  70.3578520   9.1825914  32.2657681  71.2142944  10.3796375
  75.5250564  53.9795065  61.6042423  74.6753540  54.1388559  61.1933327
  76.1075785  53.7667704  60.8751011  21.5213561  74.4984484  22.4678779
  21.5603685  75.4443932  22.3268151  20.7382751  74.3681383  23.0027032
  50.1226943   9.9095564  44.2195129  49.7513836   9.2775564  44.8350954
  49.6891850   9.7171717  43.3880758  10.8761811  75.5304241  31.7425370
  11.0188806  76.3230801  32.2598004  11.7418206  75.3096914  31.3987660
  18.1627691  65.2539730  13.5616958  18.0200934  64.8043394  12.7288055
  19.0991628  65.1516533  13.7317848  85.9179345  45.3550053  24.4244456
  85.7896979  44.5348310  24.9009991  86.7931765  45.6462383  24.6801138
  58.4585981  40.3358806  14.2339836  58.9685077  40.7939399  13.5658489
  57.5758345  40.2836574  13.8676010  32.8784060  56.7067337  22.0221043
  32.6617765  57.4468851  22.5890970  32.7992511  57.0543289  21.1337662
   4.0383551  61.5938473  27.7656078   4.9276298  61.8688679  27.5424814
   3.7599921  62.2100210  28.4431601  11.2671447  64.0653944  53.4031248
  11.1511993  64.7621393  54.0491390  10.8717144  64.4120979  52.6033354
  18.0421352  51.1704350  59.4557190  18.4325624  52.0074463  59.2043018
  17.5602043  51.3629246  60.2600288   0.4108196  74.6982336  44.9537516
  -0.0182172  74.3761110  44.1610384  -0.1518430  75.4102564  45.2581549
  53.7979048  14.5232515  59.7915268  53.9623921  14.4981699  60.7341528
  52.9253262  14.1429548  59.6904516  85.2256605  63.4666586  68.8006639
  85.5600467  63.5756540  67.9104137  84.4600957  62.9007292  68.7013435
  67.9162135  65.5643892  58.2064152  68.8221779  65.5152607  57.9013729
  67.5287535  64.7301340  57.9415989  15.2839208  66.9102907  54.4421816
  16.2272966  66.7684317  54.3637514  14.9110377  66.0292673  54.4737053
  82.8840926  29.0075040  24.5254064  82.5990879  29.7290659  23.9647388
  82.5371542  29.2250109  25.3905988  27.4706268  73.4246588  35.5348277
  26.8828583  72.7016926  35.7541108  27.9627514  73.1114817  34.7759008
  27.3350048  58.1514359  16.9010365  27.4023128  57.2407722  16.6139877
  26.4859223  58.2020521  17.3400450  11.8936622  53.6101675  58.4918118
  11.1530697  53.0802631  58.7867022  11.4934278  54.4007730  58.1298876
  56.6161960  15.9658461  41.2282658  57.0648664  16.3709764  40.4861116
  57.2990101  15.4686098  41.6785431  73.6606684  78.0924463   4.8681411
  73.2116809  77.4236107   5.3851479  73.7667599  77.6956701   4.0035349
   5.2188993  45.7631493  61.0255051   4.6299022  45.8725548  61.7720604
   6.0062975  46.2502956  61.2682486  32.8123041   7.3762922  23.5534549
  31.9439115   7.0587950  23.3058238  32.7139457   7.6580553  24.4629455
   6.9217634  39.5799494  53.8492775   7.0055491  39.7544646  54.7866964
   7.5971478  38.9269042  53.6659193  75.5444958  69.6079683  40.6614208
  75.9128704  70.2176762  41.3007879  74.8537352  70.1067495  40.2251911
  12.0015514  58.4455633  59.3548441  11.9351339  59.0882015  60.0611258
  11.2383842  58.6164951  58.8029480  23.0183101  73.2651329  30.7637858
  22.6566243  72.6332140  30.1424217  23.7208152  72.7897310  31.2073088
  35.1345205  72.8169870  19.0253830  34.1802382  72.7818346  18.9594984
  35.3011417  73.3110523  19.8281109  65.8787062  66.8548059  39.3285918
  65.8153393  66.1252165  39.9449635  66.6616371  66.6644764  38.8118434
   4.5258376  68.8061285  54.1981077   4.7903591  69.5203638  53.6183405
   5.2358007  68.7406301  54.8367739  11.0785675  66.3603449  43.1305265
  11.3554347  66.9145155  42.4008179  11.8962049  66.0431719  43.5140610
  85.0369826  55.2625847  18.7002265  85.8877410  55.6967211  18.7632108
  84.4032350  55.9438181  18.9249814  15.3833652  34.7198963  42.5916672
  14.5858121  34.3711853  42.1934986  15.1514030  35.6115723  42.8511715
  21.1065626  26.3803649  69.9187660  21.8521380  26.9768906  69.8516321
  21.2594628  25.8962607  70.7302475   5.6104589  50.1928949  70.9027243
   5.0336677  50.1223040  71.6633558   5.3464937  49.4696093  70.3340292
  67.2572079  36.4069486  60.0186348  67.3189929  37.1630788  60.6023169
  66.3256695  36.1869931  60.0093985   9.2280054  52.8570747  44.0667152
   9.0509737  52.9342127  43.1291962  10.0784373  52.4203920  44.1147375
  61.6086214   6.6179972  26.2956977  62.5603264   6.5190630  26.3221598
  61.4321654   7.3839693  26.8419433  20.8259296  50.6973219  63.0796146
  20.4857898  51.5842915  63.1971979  21.7396116  50.8231783  62.8235340
  37.5654318  58.6679792  14.5069289  37.5995686  59.6223927  14.5714390
  36.7555192  58.4263611  14.9562573  17.7152336  72.3321104  32.5558472
  17.2764933  72.9802322  33.1069160  18.6466193  72.5351954  32.6424980
   3.2072976  54.7915363  21.6512060   3.9069900  54.7934961  22.3043966
   3.1222323  55.7080650  21.3885903  22.7466416  55.3545570  28.0106115
  23.2945132  55.0955534  28.7515473  22.8988481  56.2949657  27.9173756
  14.2811310  30.3405833  32.6841164  13.5091913  29.7806430  32.7666235
  13.9510465  31.1465740  32.2870588  79.2986426  30.6384389  69.8561907
  79.4813237  31.0397880  70.7057660  78.5692629  30.0419824  70.0249452
  24.2127331   6.7905931  62.7031851  23.5693216   6.0998182  62.8615665
  24.8508122   6.6901140  63.4095812  80.3554323  65.3862906  30.1881599
  79.4056245  65.2676201  30.1919436  80.5287984  65.9545517  30.9386635
  70.7867136  48.9590788  67.8251266  70.3501990  48.1916380  67.4553728
  70.4492202  49.0191841  68.7188387  73.7323573  81.8575668  23.2880163
  73.0778232  82.3394680  23.7935758  73.2270410  81.4014912  22.6150513
  85.1041127  43.5949326  39.4371986  84.3894556  44.2186022  39.5657754
  84.8917707  42.8642797  40.0179672   0.8319449  65.0446272  70.8481979
   1.0726841  64.6510887  71.6868877   0.7833984  64.3054819  70.2419472
  33.2725837  19.1306047  68.9312458  33.5396444  18.2116346  68.9113045
  32.9077872  19.2929392  68.0613041  54.4683997  17.7925551   5.5214868
  53.6424507  17.3384297   5.6882558  54.8123492  17.3807300   4.7288118
  74.3354156  60.6019449  56.8008709  74.1051092  59.6756840  56.8731976
  74.7611323  60.8085775  57.6329184  35.5498195  58.7311649  65.8042288
  36.1863256  59.4237232  65.9815979  34.7345424  59.0503407  66.1911154
   2.5210193  67.1618319  50.0723267   2.5950649  66.2733269  49.7240353
   3.3039972  67.6103258  49.7528982  69.4222858  43.2372999  45.4361200
  70.3331795  42.9436445  45.4195976  69.4124487  44.0186167  44.8832417
  19.1004050  71.5130663  17.7505422  18.5431600  70.8376884  17.3637891
  18.6875558  71.7119122  18.5909283   9.9711269  80.2947617  52.8353262
   9.8275656  79.5523310  52.2484589   9.6534926  81.0528088  52.3446941
   2.9184014  50.8139849  63.5555601   2.3007128  50.6572580  64.2697906
   2.8383076  51.7497349  63.3706379  52.6740649  67.2366571  12.6264524
  52.0460704  66.5209389  12.7244616  52.4469593  67.8517437  13.3238196
  25.7774687  73.0933619  61.1851788  26.3111997  73.4258938  61.9068384
  26.3491631  73.1481743  60.4194164  47.3918343  61.8322325   6.2002009
  47.6851702  62.1472216   7.0551676  47.7158546  62.4855518   5.5801833
  36.0800552  61.4694166  70.7109118  36.4719605  61.9404984  71.4462519
  36.6741133  60.7357645  70.5525303  71.5497604  48.5896397   1.1462310
  71.8372181  47.8623533   1.6981894  70.9418442  49.0827179   1.6971770
  53.6025017  11.5744333  47.7033138  53.6376350  12.4227362  47.2612810
  53.5014694  11.7913179  48.6301327  43.8880348  77.7922201  26.7701530
  44.3711376  78.4230328  27.3039317  44.4297981  77.0031929  26.7827868
  20.1581620   0.9209566  66.8370152  20.8448242   0.8332758  67.4981070
  19.3448942   0.9608393  67.3402405  42.6006203   2.2393732  67.8414917
  42.0633119   1.5563993  67.4401569  41.9682150   2.8504877  68.2194328
  50.4115391  80.9189796  63.7677622  51.0434675  80.4211330  63.2490635
  50.9150267  81.6540527  64.1176224  11.2236755  13.5682898  40.1880646
  11.1208075  12.6436167  40.4130936  10.5285626  14.0118532  40.6741714
  54.0918057  16.9154100  56.2098742  53.3243411  16.6570311  55.6995106
  54.0725987  16.3437395  56.9773817  44.7969108  16.2616377  65.1822853
  44.2836135  16.4664011  64.4007301  45.4599374  16.9509439  65.2207661
  53.4755850  61.5975285  63.2634258  54.0873146  62.3263645  63.1593990
  54.0135002  60.8789253  63.5958195  41.5371752  79.1646528  58.3079290
  40.8558607  79.0696239  57.6423407  42.1559763  78.4590387  58.1196976
  16.2253678  55.5329752  41.3756800  15.9983492  55.0162458  40.6025791
  16.9512057  55.0559235  41.7779398  40.7741480   8.4199648  49.6885920
  40.0264626   8.3099394  50.2760410  41.2432592   9.1779451  50.0373554
  29.7325706  67.8158712  51.4623451  30.0541258  68.5884953  51.9269800
  28.8041663  67.9950857  51.3134289  16.2556403   5.3003435  68.4499788
  15.5223184   4.8769598  68.8963079  16.0583597   5.2016287  67.5185442
   9.9755716  69.0693331  18.7319410  10.0725293  69.9493122  18.3679736
   9.2503572  69.1451931  19.3520546  32.6414943  12.7497840  69.9075651
  32.5054455  13.3015931  70.6777763  32.7390766  13.3685732  69.1838169
   8.8317120  59.3514490  47.4619770   8.0535835  59.8002958  47.7925587
   9.4312847  60.0576115  47.2209692  16.1986113  76.0453558  40.3235149
  15.6101596  76.3806915  40.9999084  17.0619488  76.0428858  40.7368851
  74.3168059  57.6938057  52.6485157  74.7714343  56.9704866  53.0802059
  74.8012426  58.4748507  52.9159451  22.0321536  77.8017759  57.2971773
  21.6615772  78.6729336  57.4385595  21.8395185  77.3255825  58.1048679
  15.5467284  60.3379011  25.6487656  15.1915324  60.6293392  26.4884853
  15.8719993  59.4541073  25.8200645  18.8662636  53.9033937  59.9728203
  19.7582746  54.2371035  60.0686646  18.3227682  54.6884584  59.9056196
  25.5597878  80.0373173  24.8762202  24.6460629  79.8106384  25.0492978
  25.5502105  80.4161835  23.9972448   8.4838637  60.9354461   1.1812196
   9.2890819  60.8965648   0.6651340   8.5450753  60.1889193   1.7771993
  28.3395553  63.7462568  50.4571438  28.1412435  64.0226221  49.5624208
  28.6653376  62.8509712  50.3646326   4.5799825  74.9670506  69.9575520
   4.9625319  74.1237593  70.1999331   5.2001590  75.3402138  69.3311644
  83.9161288  66.7710590  48.0324841  83.6870464  67.3470545  47.3031139
  84.7897718  66.4456749  47.8154516   7.6054263  34.3572164  61.4945269
   7.4377263  35.2719617  61.2679195   7.3176885  33.8635898  60.7265615
  10.5681050  59.5732737  40.1013994   9.7637719  59.0635014  40.0043917
  10.4448402  60.3272390  39.5247030  23.1716180  81.5755939   1.1087665
  22.8569627  82.2719955   1.6851853  23.0247259  80.7699013   1.6042462
  70.9354367  50.8823442  46.1025906  71.5307715  50.6399155  46.8118429
  71.5114930  51.0914564  45.3672886  71.9230416  70.5785704  51.2663651
  72.5308015  70.1519585  51.8704033  72.1690228  71.5032578  51.2924004
  17.1078902   7.4383574  63.5563755  17.6876586   8.1358652  63.2504463
  17.4533253   6.6439466  63.1491756  26.4832037  12.9979448   9.4494033
  25.9116500  12.2902803   9.7473353  26.9772338  13.2511930  10.2291679
  50.6449270  78.1588268  49.1346359  50.1137161  78.9536428  49.0865421
  50.0195551  77.4650908  49.3441105  57.8526751  49.8569167  21.4145027
  58.3249422  50.3915465  20.7762561  58.5325901  49.3325293  21.8375431
  19.7987747  56.5158939  65.9169674  20.0383520  57.4328804  65.7829380
  19.3506980  56.2648821  65.1092196  41.3034916  78.1201839  38.6771297
  40.7583284  77.3665571  38.4511423  41.0341406  78.3527803  39.5657134
  17.3394084  68.6883831  28.6543512  17.3014510  67.7663279  28.9085269
  16.9420695  68.7134266  27.7838755  85.0177159  78.0659294  22.3051906
  85.3985960  78.9434052  22.2706389  85.2329269  77.6778460  21.4570689
  27.9837871  66.6492891  54.2491388  28.3620286  66.0409737  53.6142254
  27.1380687  66.8930340  53.8728666  28.7453666  18.8292913  49.4107533
  28.1645500  18.3828859  48.7946320  28.1932873  19.4949942  49.8209715
  26.4561200  62.3054314  36.8477416  26.4288497  61.3676214  37.0374918
  27.3172498  62.4451542  36.4538312  30.7891846  79.2973137  33.8100004
  31.6620040  79.4201136  34.1832805  30.8783102  78.5348129  33.2382655
  35.9022951  68.9743090  49.1031694  35.4749632  68.1180239  49.0833664
  36.7742729  68.8152409  48.7418032  22.1242445  17.9826288  29.5657468
  22.8261077  17.5868349  29.0490627  21.4517545  17.3033457  29.6163130
  29.7305965  43.1093740  69.4052553  30.5874968  42.7335835  69.6070862
  29.5712090  43.7353754  70.1116228   4.7667670  37.6795387  69.3908596
   4.0873498  37.8181410  68.7310028   4.5995986  38.3516359  70.0515938
   0.3686509  62.4606276   2.0121293   1.2842038  62.3380804   1.7611766
   0.3587032  63.2943583   2.4822678  15.1392269  64.4582129  29.7121978
  14.6364605  64.0233803  30.4009509  15.7373011  65.0389814  30.1825666
  82.1976748  51.9331169  57.4504185  81.5602335  52.5411987  57.8247690
  83.0467161  52.2699308  57.7366304  15.5655622  79.2568016  45.5776501
  15.1316273  79.9191952  45.0399065  15.9795737  78.6689520  44.9457788
  16.4438939  60.3028154  14.7222745  17.0704496  60.3536606  15.4441297
  16.5455866  59.4151163  14.3789387  74.2796328  73.0322123  53.3712959
  73.9831641  72.6600552  52.5407314  75.1398232  73.4029484  53.1741619
  20.1309228  58.6392689  28.4009933  19.2918348  58.5482407  28.8525200
  20.3321385  59.5734930  28.4555173  33.7967157  25.8632231  24.8388314
  34.5220494  26.3422155  25.2396941  33.1986833  25.6831360  25.5641985
  30.6051847  12.8329592  59.9374151  31.1236761  12.1480303  60.3596449
  30.2090751  12.4012117  59.1804934  22.8939509  65.4877901  21.0398960
  23.7395406  65.4621887  21.4877319  22.4954414  66.3092375  21.3273787
   5.0273365  71.3973284  65.7987404   4.3368876  70.8605433  65.4096746
   5.3841555  70.8554029  66.5024662  11.7282522  36.6083860  49.9728441
  12.4410260  36.9941998  49.4636011  11.7177546  35.6877875  49.7108841
  43.2607835  13.9148073  63.5312748  43.5370260  13.3278208  64.2351007
  43.3434313  14.7922068  63.9048529  21.8107462  61.7007780  44.1097736
  22.7180386  61.7990446  43.8209820  21.3205886  62.3267174  43.5766888
  13.8298595  66.0932302  58.7138367  12.8962624  66.0400867  58.9182997
  14.0948141  66.9580269  59.0271425  25.1406550  47.0175171  66.5178108
  24.8249364  46.1843777  66.8677044  24.3763185  47.4021530  66.0887671
  14.3250656  47.8905392  50.2164268  14.3961620  47.4029398  49.3958044
  13.3993113  47.8293657  50.4519463  22.9579258  72.8087425  20.8972025
  23.8419867  73.1280565  21.0780525  22.3872495  73.3789587  21.4123821
  63.8717788  14.8968725  24.5126438  63.4899896  14.9969225  23.6405993
  64.1589849  13.9843588  24.5451069  72.5015094  70.8203459  61.9023418
  72.6317516  71.3529682  62.6869297  71.7967537  71.2612343  61.4278221
  20.8443379  60.3204632  57.9813623  21.7716551  60.4757643  57.8019333
  20.4849839  60.0239134  57.1452045  30.3452437  15.3147440  47.2011900
  30.6959146  14.7970419  47.9259348  29.6369107  15.8258467  47.5926828
  58.1424921   8.2990484  15.9876716  57.4500220   7.9955797  15.4006255
  58.5224336   7.4964075  16.3449514  48.9189284   1.3417749  60.0880194
  48.1613045   1.4703112  60.6587315  48.5422640   1.1268549  59.2346954
  32.7434254  73.9161634  54.2205143  33.5539126  74.0452909  53.7279034
  32.1425223  73.5156012  53.5922623  44.9840515  11.5927629  49.0546799
  44.9448448  12.5040750  48.7644911  45.4259806  11.6303091  49.9029255
  68.0942410  22.7121477  38.5959697  67.4656575  22.5910406  39.3076205
  68.9443582  22.7615576  39.0331078  22.2887611  71.0667324  29.3712687
  22.4653673  71.6848278  28.6620450  21.5045643  70.5959988  29.0889978
  77.7784436  38.9878111  47.3297691  78.4320777  38.4511690  46.8814325
  78.2059043  39.2561846  48.1430912  58.9163201   0.4260950  16.7079222
  58.0944317   0.8537798  16.9483697  59.4255775   1.1117010  16.2756789
  16.6889899  77.8961499  15.6740604  16.6812604  77.9064901  16.6311775
  16.7662542  78.8171990  15.4252086   6.5692914  60.1119328  66.5658760
   6.6322845  60.0439882  67.5185776   7.0981741  60.8785534  66.3449383
  55.1959198  26.3263159  52.3259115  54.7838419  25.4768400  52.1683693
  55.9508722  26.3390760  51.7375898  24.0145445  52.1365261  18.7031043
  23.8285756  51.9606876  17.7807546  24.8973393  51.7924786  18.8392615
  47.1226097  14.3767159   5.9816347  48.0463244  14.4201367   6.2288175
  47.1113612  13.8373845   5.1909242  22.6834606  13.5881548  55.7297945
  21.7669933  13.8060408  55.8996344  22.7081674  12.6313333  55.7407331
  21.1148190  69.7622156  66.7198086  21.3223243  70.4595566  66.0978031
  20.2635121  70.0090790  67.0811510  16.8035066  63.9296150  11.4686310
  16.0216939  64.3426180  11.1019814  16.5044117  63.5359764  12.2882783
  86.2544023  68.0126333  56.0654116  86.3845674  68.5348940  55.2738762
  86.4534979  68.6129570  56.7838860  19.2383265  70.9483337  71.0281944
  19.3155038  71.4294720  70.2043152  19.7748911  70.1661110  70.8999157
  37.3960739   6.2816267  53.6048889  37.2778165   5.5291872  54.1846228
  37.9774552   6.8679743  54.0890551  12.1143270  50.1831722  52.1935844
  11.3742781  49.5797968  52.2606564  11.9677103  50.8206415  52.8924131
  18.9175051   4.6878653  19.3426549  19.2728072   5.0723581  20.1440001
  18.0994027   4.2740755  19.6178317  83.0469644  71.3047504  58.8879156
  83.6099138  71.5357351  58.1490231  83.5208100  70.6074619  59.3412304
  47.3592489   2.8024607  57.7456331  48.0239492   2.9237871  57.0676327
  47.6672738   3.3326750  58.4806347  38.7481736  17.4449186  48.1388521
  39.1711979  16.7322664  47.6598740  37.8192031  17.3591642  47.9246283
  83.0231756  60.8110285  38.2646465  83.8252022  60.7882166  38.7866282
  82.9410281  59.9245930  37.9129124  22.6419234  59.6398258  53.7137842
  23.5460281  59.6300650  53.3995724  22.1214199  59.8525095  52.9391432
  27.8500253   4.7277002  41.7759323  28.5960460   4.4401293  41.2496376
  28.1998169   4.8084097  42.6632690  61.7112394  51.2187636  25.2990089
  61.8554245  50.6766856  26.0746322  61.8040060  50.6135810  24.5632206
  13.2684510   6.0658102  69.7620773  13.2561868   6.1845427  68.8123465
  12.3752337   5.8011179  69.9819183  20.7474208  68.9086008  44.6178436
  21.4922619  69.0367556  45.2052307  20.2542853  69.7270536  44.6743011
  41.7317074   5.0861196  62.4461174  41.4490550   4.1723852  62.4839306
  41.1272746   5.5480413  63.0270815   5.5519515  55.3487492  44.7655916
   6.1534691  54.8193359  45.2891684   4.7395557  55.3592682  45.2716875
  59.2207449   4.1912966  26.0100222  58.7401336   4.2755346  25.1865244
  59.9044006   4.8592215  25.9577441  10.8213651  72.8220606  64.5467377
  10.4314327  72.3737621  65.2972126  11.7206526  72.4958420  64.5136309
  61.6257113  15.8464365  44.5526981  61.9753855  16.3546591  45.2845955
  60.8083003  15.4768686  44.8866081  10.0834119  81.8549156  43.8711643
  10.4925704  81.9986343  44.7244930  10.4153442  81.0033512  43.5867596
  29.4934320  62.6975155  41.6756678  29.2832565  63.6246204  41.5637207
  28.6439800  62.2715282  41.7905521  80.6991824  67.7402735  60.9514093
  80.9598508  68.4118891  60.3211546  79.7909793  67.5393915  60.7254791
   9.6359331  15.7139842  65.8342399  10.2058537  16.1053674  65.1722415
   9.2324526  14.9672572  65.3917165  28.5863543  58.3453321  19.5903754
  28.8881469  58.6914444  18.7505198  28.6146283  57.3947334  19.4817591
  61.3957532  22.1612227   7.9616771  60.5731900  21.7522157   7.6927267
  61.3814087  22.1217835   8.9179550  44.4791120  18.1191854  53.9146328
  44.4990521  18.1840258  52.9598379  43.6021739  17.7914743  54.1141796
   2.2693434   1.9693117  44.9163485   1.5016117   2.2895842  44.4428015
   1.9617644   1.8434076  45.8139992   7.3475718  51.4490509   8.3694255
   6.6581506  50.7862473   8.4097070   8.0164152  51.0647964   7.8026545
  24.1787284  24.1210108  48.7051344  24.7662502  24.7269087  49.1567278
  23.3574372  24.1747789  49.1938257  54.0919536   5.3720026  53.3298588
  54.8492568   5.3197222  53.9129448  54.1902464   4.6231108  52.7418709
  17.3134434  60.5694294  40.9093904  17.9692852  61.2665462  40.9211397
  16.4749670  61.0285759  40.9581518  49.8903888   2.5542765  56.4202023
  49.8571222   1.6439657  56.1261606  50.7898229   2.6749067  56.7246628
  10.5747640  76.5109873  29.1204238  10.0060916  77.2254419  29.4074798
  10.5961728  75.9084368  29.8638654  28.3191371  46.1946106  65.0993776
  28.4078240  45.3480005  65.5371141  28.1595278  46.8159962  65.8097553
  86.1432375  75.2219582  65.0364304  86.4542990  74.3886852  65.3901672
  85.4109227  74.9825859  64.4684124  58.7310743  53.8239062  17.3261295
  57.7906286  53.7145102  17.4669395  59.0262640  54.3439448  18.0735622
   3.5802495  76.0095930  34.7740293   3.1185508  76.5810537  35.3876233
   4.2297518  75.5561590  35.3114080  67.4981349  13.4797888  42.8262329
  68.4487694  13.4881334  42.7146339  67.2054260  12.7153616  42.3300600
  45.1878350   7.2470407  57.4219370  46.1098521   7.3602705  57.6527929
  44.8655205   6.5896826  58.0385637  25.9953284  71.3387251  32.4405313
  25.4881525  70.5842876  32.1408200  26.3864207  71.6963530  31.6434240
  57.3929924  36.9338811   2.9417024  58.0662813  36.7957986   2.2754846
  57.6468092  36.3567651   3.6619459  44.9934118   5.1864843  32.8648090
  45.7204443   4.6176844  32.6115894  45.0387984   5.9203749  32.2519732
  21.7526706  23.5410607  17.3372493  21.8063005  22.6166642  17.5798259
  21.2070020  23.5510552  16.5508781  41.8425291  14.2591886  69.0116549
  42.4416452  13.5874872  69.3373919  42.4076801  14.8847227  68.5582829
  31.0593176  81.8483829  52.1778202  30.6515527  81.2716103  51.5318394
  31.7129111  82.3403931  51.6808510  77.6126514  -0.0983607   8.8786922
  77.9781412   0.5671657   9.4615493  78.0948936   0.0101960   8.0590044
  68.5708716  71.9585085  15.8412421  68.6289075  71.4687014  15.0209057
  69.3165186  71.6513252  16.3568783  86.2340644  65.7145786  46.8430424
  86.0029683  64.9615383  46.2992096  86.8042336  66.2455988  46.2870216
   8.1822904  46.1104453  49.7642551   7.3220356  46.3846744  49.4464622
   8.3159693  45.2452529  49.3772064  16.1775839  60.0964355  44.1151047
  17.0233321  60.0798607  44.5630646  15.5530310  59.7866774  44.7710085
  31.4109874  65.8633709  29.2733979  32.2453523  65.9461784  28.8116503
  31.1347675  64.9617386  29.1090941  36.5155339  58.9555502  31.8802142
  37.0461345  59.2925549  31.1583257  36.8982410  59.3506908  32.6635599
  23.5388231  10.7527761  17.3472977  23.8799983  10.4366713  16.5106893
  22.7716421  10.2055483  17.5152338  84.9263915  71.8236303  50.7470751
  85.8435518  71.8067646  51.0205030  84.9184384  72.3821163  49.9697351
  46.7888229   4.1815309  39.3189335  46.7779236   5.1354151  39.2401218
  46.0979944   3.8843660  38.7267518  48.1134987  73.3485842  62.7667570
  49.0671349  73.3120680  62.6927853  47.8837681  72.5773811  63.2851219
  60.2925318   8.4181337  28.1069303  60.1289790   8.0224066  28.9630151
  61.0429781   8.9950495  28.2491755  44.1536611  10.6386213  12.9807317
  43.4922283  11.2550573  13.2949579  44.6415012  10.3899507  13.7658477
  81.0321556   6.7286790   6.1236559  80.2718721   7.2576869   6.3652168
  81.7296229   7.0324052   6.7046199  10.5024522   7.1504240  47.3843956
  10.7842343   8.0642347  47.4266863  10.4574793   6.8710928  48.2988262
  34.8609281  51.7802858  19.3667614  35.8112311  51.8797970  19.4238174
  34.5127225  52.4996948  19.8934805  48.7280696   6.9787149  39.4940734
  48.7950449   7.4514799  40.3236771  47.8201538   7.1055918  39.2187190
   5.2556690  18.5611880  18.6873279   5.6511410  18.7263453  19.5432315
   4.7171839  17.7808249  18.8188587  13.8004041  56.0761833  42.7847099
  14.4883525  55.9240818  42.1367741  13.7815845  57.0267773  42.8954077
  73.0854641  27.2642339   4.0770612  73.8142859  27.7684462   3.7153659
  73.4991776  26.5017188   4.4815813  25.8657932  54.4559288  14.2862904
  25.7554150  54.7143507  15.2013135  26.5003014  53.7398052  14.3145239
  74.5435558  34.3786109   3.2849680  73.7585436  34.3048919   2.7422367
  75.2604519  34.1207660   2.7054773   1.0996909  28.2534981  34.5357490
   0.9278092  27.3260021  34.6983433   1.6136672  28.2638860  33.7283134
  37.8861224  23.3826952  18.2828522  37.7976757  23.5327845  17.3416388
  37.0930903  22.9043131  18.5246682  15.3388953  64.9178028  25.0387526
  15.2279162  64.4241714  25.8513045  16.2627697  65.1681519  25.0348759
   4.1123834  78.4992743  44.6038437   3.3379555  78.5449171  45.1645660
   4.6127763  77.7586555  44.9463701   4.6302861  75.6826258  54.3250656
   4.9010795  76.5629292  54.0643549   4.2981672  75.7883787  55.2165508
   4.7796758  16.8429149   0.2364193   4.6808799  16.9032681   1.1865936
   4.6664532  15.9124339   0.0424657  75.6023469  54.9088240   6.6380012
  75.9654524  55.1986790   7.4748826  76.3474276  54.9191952   6.0371870
  61.5884020  52.9712356  15.0992427  62.5015827  53.2477820  15.0227104
  61.1314209  53.7434638  15.4325042  78.3043044  21.6678457  16.3408744
  78.8461154  21.2771444  17.0264614  78.6833423  21.3454275  15.5231881
  72.3937886   2.4477320  66.6974163  72.2393888   1.8824129  67.4542522
  72.6786321   1.8500357  66.0061502  42.9188948  31.5898828  18.5194993
  43.3560627  31.5815001  17.6680028  43.6327379  31.6464834  19.1546810
  66.9577091  27.3518765  14.2643295  67.2522943  28.1979859  14.6013008
  66.4505474  27.5690234  13.4821067  18.5720861  60.7419348  69.2874146
  17.9659998  60.9925652  69.9846029  18.8031662  61.5679502  68.8625240
   1.0571444  61.9119644  63.1760693   0.7114965  61.6072321  62.3370838
   1.6323403  62.6420307  62.9471827  27.6306772  64.8007488  38.9699388
  28.4297347  64.3155289  38.7642622  27.9174638  65.7101631  39.0533352
  71.8502038   1.4382200  45.3758097  71.2824481   2.0765715  45.8075333
  72.1309751   1.8732672  44.5707417   0.7598396  59.6552610  57.3411226
   0.6871276  59.6437836  56.3867617  -0.1115957  59.4083023  57.6507139
  74.7022813   3.4664087  13.7622488  74.2726510   2.8543024  14.3597198
  75.6379073   3.3274775  13.9089859  82.8842347   7.2847681  68.1102467
  83.3759969   6.4793329  68.2704735  83.0158751   7.8071814  68.9014435
  26.1964917  80.5435944  57.0650339  25.3776073  80.2288818  56.6821337
  26.2289500  81.4713764  56.8317890  36.4144754  79.2992878  66.5990829
  35.7710242  78.6545706  66.8932629  36.2705803  80.0571060  67.1658564
   7.7744788  66.9561434  61.8468475   8.4640527  67.1152687  61.2023306
   7.7886647  67.7307653  62.4089813  66.4960258  24.2245417  66.0856915
  67.1481603  23.5511045  66.2791777  66.4392322  24.7409658  66.8896294
  58.8275784  27.0493917  29.2140841  57.8793686  26.9627981  29.1159463
  59.1655272  27.0103388  28.3193803  72.2857612  42.0611601  53.6396313
  72.4454444  42.5434809  52.8284025  72.7521699  42.5597696  54.3105078
  69.8509734  28.5389547  35.5202961  69.1818421  28.8874559  36.1094022
  69.8004573  29.0965300  34.7439027  18.7291348  68.5361290  51.9861746
  19.6738517  68.6880350  52.0119953  18.5492563  68.3002758  51.0760880
  56.7449205   0.8950071  21.9471025  57.4409192   0.7666521  21.3026309
  57.1800964   1.3146620  22.6892209  18.0034363  74.3212461  52.1123505
  17.2787845  74.7672796  51.6739845  17.6153827  73.9601088  52.9093599
  30.3164482  64.7982502  63.8951540  29.7437477  64.3045902  64.4821310
  29.7214651  65.2005148  63.2623720  80.7067319  66.1790180  36.8519735
  81.6046688  66.0556030  36.5442228  80.1618620  65.8250332  36.1490917
  72.9520314   6.2638025  44.0570354  73.8838904   6.0962324  44.1976881
  72.6090091   6.4567881  44.9295759  21.2238503  73.9373016  54.4156218
  20.5933356  73.2406998  54.2327785  22.0671749  73.5740519  54.1452694
  51.5514653  15.6229811  57.6369381  51.3130706  15.2043753  58.4640837
  51.2932199  14.9913626  56.9656754   7.7108899   3.5781317  32.2995973
   7.7512160   4.0875177  33.1089997   6.7902270   3.3288698  32.2190905
  83.6329692   4.1474657  28.8862681  83.1566327   4.9100809  29.2145085
  84.4403403   4.1299467  29.4001555   5.9133404  49.5995951  40.6420279
   6.1440629  50.4029989  40.1756191   5.1855308  49.2321157  40.1405478
  46.3851827  12.5108747  67.1665144  46.6255265  12.7702265  68.0560112
  47.1013754  12.8353910  66.6206360  28.2633567  65.9637880  61.8746662
  27.4080849  65.6671143  62.1856833  28.2270193  65.8461761  60.9254169
   9.3882549  62.0873260  20.2444386   9.1043085  61.4167261  20.8656478
  10.2035844  62.4263000  20.6139851  79.8554938  17.1957808  17.2417414
  80.1795524  17.3690443  16.3578880  79.5722001  16.2817697  17.2180855
  18.3369124  78.4148550  25.9133244  18.4517026  79.0492153  26.6208839
  17.4040639  78.4568977  25.7029510  61.4668757  31.1161773  70.0788590
  61.3940653  31.8227450  69.4372259  60.6221697  30.6677882  70.0382521
  30.9001990  24.0153341  42.8128529  31.4501166  24.7960596  42.7473068
  31.0575721  23.5422354  41.9957590  71.6968332   1.3243735   9.2256580
  71.6830395   2.2769320   9.1325317  72.6179396   1.0866464   9.1194378
  14.4733518   6.1759787  63.1098843  15.3381532   6.5653448  63.2392645
  13.9213806   6.9061594  62.8298950  18.4256299  23.6095155   0.3530536
  18.4290584  24.4939816  -0.0129237  19.0962251  23.6302054   1.0357748
  53.6646748  68.1380844  38.1442213  53.4622717  68.9607382  37.6986837
  53.9167738  68.4008551  39.0294504  31.9139266  66.7997360  53.9907694
  32.5127840  67.0479584  54.6950340  31.0484457  66.8041754  54.3996143
  43.0920272  11.7679243  55.7524014  43.9229470  12.0592813  55.3770161
  43.3440929  11.2167101  56.4932585  59.0708351  76.0751104  47.3348713
  60.0000286  75.8996296  47.1864462  58.7985516  76.5850925  46.5719748
  34.8689747  77.9014635  15.0206387  35.6918383  78.3254194  14.7769511
  35.0996876  77.3370075  15.7584679   4.9568173  62.3752499  66.7005968
   5.0979507  61.4325953  66.6128016   5.0668770  62.5478506  67.6356506
  76.9402879   4.0063982  69.2763519  77.1094840   4.9373846  69.4208193
  76.2756627   3.9877825  68.5877562   5.5487871  77.6934576   6.8095875
   5.6988871  76.8360329   7.2077382   6.3202059  78.2070732   7.0490438
  56.3188713   9.1334467  54.6243811  56.7844146   8.7438898  53.8842821
  56.4773505  10.0735598  54.5390034   0.7243767   2.2435122  10.2837086
  -0.0520286   1.7523222  10.5523252   1.4126244   1.9484358  10.8799291
  53.5753649  11.0242968  53.8311434  53.3857553  11.9610243  53.7781143
  54.0496629  10.8297949  53.0227804  59.7353037  36.9551719  11.9397770
  60.6728034  36.8390954  12.0942245  59.3371308  36.8665278  12.8057132
  78.6079680  56.6439403  14.7744308  78.0634318  55.8621943  14.8671184
  78.0299698  57.2920955  14.3718849  13.1609857  80.6151104  52.3641348
  12.9460847  81.5342236  52.5231123  12.9753828  80.1784801  53.1954861
  43.2554054  64.6284342  43.7101412  43.4435606  64.5416737  42.7756357
  43.7935352  65.3669167  43.9952564  31.6740298  79.6255827  45.8691359
  31.0665274  78.9631224  45.5400181  32.4315834  79.5661306  45.2870655
  13.8715446  80.4106712  65.7102680  14.5880175  80.8516026  65.2536726
  13.3291197  81.1228943  66.0490131  60.3401249   8.1525450  47.3316813
  59.9328464   7.7510385  46.5641165  60.0430053   7.6176767  48.0677986
  72.4447420  11.3199079   4.1137889  71.8303182  10.6007838   3.9668986
  72.0334139  12.0757747   3.6946172  74.5315120  78.5256500  22.4719453
  75.0991473  78.8216491  23.1835675  74.9049661  77.6870908  22.2006845
  26.7794442  43.8146210  17.3039746  27.5625658  43.8099241  17.8543639
  27.1123791  43.7087393  16.4128101  41.2987852   4.8635766  28.6161065
  41.2634850   5.8198017  28.6409879  40.6047392   4.5826808  29.2124534
  33.5818672  10.5653942  27.4249506  34.5354414  10.5039179  27.3688221
  33.2626891   9.8836613  26.8336844  17.1770453  41.9689465  36.5342474
  17.5353146  42.4763441  35.8059454  17.4227118  42.4647570  37.3153067
  43.9362392  70.3340287  42.6960707  43.3232448  69.6660478  42.3890305
  44.7496590  70.1459963  42.2278595  62.2873275   1.0058415   4.6616445
  62.4010582   0.1247418   4.3053375  62.6836656   0.9652389   5.5319915
  18.9036751  32.9962349  17.7023065  18.2986820  32.5602221  18.3023965
  18.4316742  33.7764716  17.4113095  74.7617772  55.8241272  34.3320346
  74.6904912  55.0099039  34.8302245  74.2099145  55.6833029  33.5627174
  35.2544031  58.3472700  68.9082003  34.6280775  58.8725061  68.4101248
  34.7619924  58.0486364  69.6727753  20.4847823  59.0047156  65.2755155
  20.1540605  59.7157728  65.8243801  19.7491060  58.7797749  64.7059425
  73.8247624  20.5749774  31.7937422  73.6267581  19.8469794  32.3828483
  73.1194344  21.2041497  31.9450188  15.9586692  54.1175461  22.2180891
  16.0081196  53.1873941  21.9976425  16.5287876  54.2135334  22.9809666
   0.7729222  39.2053056  58.6305809   0.0695487  38.8213205  58.1070805
   1.3486898  38.4685540  58.8353252  47.7528373  60.3687834  70.3560092
  48.5605518  60.7998216  70.0766613  47.1728758  61.0872423  70.6083841
  67.7080121  38.1575012  62.1461153  67.8908851  38.0688024  63.0814886
  67.7661374  39.0981793  61.9788504  64.4248059  33.9316869  36.7058372
  65.1004365  33.3292341  36.3947010  63.9281418  33.4238744  37.3474622
  67.2766318  26.7277193  30.4127789  67.6632121  26.6563559  29.5400262
  66.4677336  26.2187982  30.3587842   7.2414088  53.1336069  21.1548877
   7.6610279  53.9545393  20.8975554   7.4157065  52.5370502  20.4268980
  19.0836024  21.1660933  50.7670879  19.2493463  20.4511380  51.3815784
  19.8809755  21.2187171  50.2401543  71.5831342  22.3839855  32.2089815
  71.7529621  23.3257294  32.1863604  70.8395937  22.2889280  32.8042483
  32.1429420  49.5130920  15.7291996  32.1874881  48.6371183  15.3459036
  33.0291867  49.6793365  16.0503912  17.1809411  58.1342983   7.4977505
  17.5717831  58.8868761   7.0537877  17.3000240  58.3175755   8.4296626
  81.6342785  14.6971369  21.1035132  81.2770679  13.8518679  21.3758254
  81.5577009  14.6933472  20.1493883  26.0857687  80.7574981  22.4143982
  26.1426386  80.0330953  21.7913103  26.8159351  81.3311666  22.1820354
  62.4480703  47.1980238   2.1709198  61.6006758  47.0463610   2.5894296
  62.2393444  47.6974678   1.3814762  84.3632564  72.5673927  12.9880023
  84.5828805  72.6275779  13.9177191  83.7564454  71.8291957  12.9325426
   0.2830077  26.0679126  38.8165665   0.1585654  25.1461363  39.0425563
   1.2052894  26.1312628  38.5683417  19.7390091   7.9358619  42.4917984
  19.4072807   7.2926003  43.1182194  20.6730223   7.7395689  42.4188566
  66.4320161  30.4883122  26.6934037  65.6527236  30.6904578  27.2111559
  66.4500311  31.1627460  26.0143995  71.1459890  19.7455013  24.7567010
  70.9827342  19.6347666  23.8200474  70.5275598  19.1497970  25.1796818
  67.1493664   3.5015497  27.9086018  66.4861252   2.8344491  28.0855727
  67.8882363   3.0140147  27.5444412   4.3799150   3.7347314  34.9605131
   4.9549904   4.4749421  35.1544404   3.5484758   3.9618802  35.3768587
  20.7325506  10.9509420  37.8646731  21.4410520  11.5927970  37.8169155
  20.5878210  10.6859291  36.9563484  80.4264054  70.2222617  68.5116148
  80.9690508  70.7235796  67.9029751  79.5724330  70.1684375  68.0825853
  35.3144097  18.8414538  57.3035383  34.4229794  19.0152681  57.0012665
  35.8687901  19.0661061  56.5562630  24.2044163  21.9426918  29.4560146
  23.5399985  21.3582945  29.8210645  23.7898588  22.8054619  29.4546509
  75.9651050  59.6941323  15.8828723  75.6799338  60.3569884  16.5117848
  75.4033503  59.8304577  15.1199317  86.0614905  64.7256429  19.2603087
  85.9447322  64.6307857  18.3150029  86.5113411  65.5642707  19.3631184
   4.8020121   5.6174809   8.2931674   4.5719880   4.7666234   8.6664808
   3.9607042   6.0491395   8.1444949  12.1427143  21.5447569   3.8493386
  12.4181676  21.7678094   4.7384980  12.4007964  22.3006988   3.3219135
  16.4472377  25.2295351  22.5987458  15.6829393  24.9376416  23.0956149
  16.6111684  24.5228148  21.9743228  32.1981215  52.2200680  34.1590476
  31.6995764  52.9252338  33.7462234  31.9916654  52.2944403  35.0907540
   6.6262275   1.3616735  65.5298281   6.4742422   1.8341637  66.3482952
   7.5768965   1.3743635  65.4189253  50.4490903  66.9846733   9.4805646
  50.2924559  67.6063223  10.1913738  49.6726331  67.0551963   8.9252520
  42.7731774  19.6159093  69.3331313  42.1482978  19.9626700  68.6963307
  43.6285016  19.8931090  69.0047826  33.8052487  20.0796580  46.1257935
  33.1285763  19.4027913  46.1116695  33.4303284  20.7820964  46.6570616
  62.8744462  36.9405341  28.8627243  62.3765876  37.2789884  29.6069121
  63.5643103  37.5888586  28.7213182  -0.0490477  18.3770442  45.2793789
  -0.5038846  17.6118803  45.6313467   0.5594386  18.0179238  44.6336174
  80.3516474  40.5233240  22.7848053  80.1745113  39.9074578  23.4958339
  80.6048598  39.9698400  22.0460439  64.4589156  68.1433808  63.3707066
  64.0361041  67.2861874  63.4225001  65.2057189  68.0784428  63.9659371
  59.0714648  47.6871490  69.2150784  59.3047717  47.2487593  70.0333786
  58.1184700  47.7693987  69.2506886  74.2819228  55.3773355  10.0246489
  73.8683608  55.8643103  10.7374275  74.5800009  54.5638943  10.4317033
  84.5732198  79.4360065  27.1959805  84.7516049  78.6257505  26.7186022
  84.5993775  79.1813135  28.1183028  73.9755645  50.3351259  24.9175739
  74.1494455  51.2117386  24.5747304  73.4106710  50.4823256  25.6761646
   0.5073207  14.0391934  37.6894069   0.6117542  14.9891365  37.6352549
   0.0245750  13.8973427  38.5036969  22.7550387  28.2704115  46.9579124
  21.8527389  28.1197429  47.2396708  22.6922560  28.9869165  46.3263178
  11.8362379  76.7913532  23.2191277  12.1907544  76.2116766  23.8933134
  12.2752249  77.6287794  23.3682680  43.9782564  72.4475872  69.3396905
  43.0985777  72.5030338  69.7129529  44.5636944  72.5471913  70.0904054
  72.7564480  18.1660366  14.0401232  72.7877274  18.8034952  13.3267510
  73.3491388  17.4673104  13.7631178  77.6181408  55.3139639  35.1126695
  76.6926768  55.3566790  34.8719931  77.6557818  55.6979799  35.9886527
  21.9980264  33.1174421  27.8546357  22.5285769  33.4979367  27.1546555
  21.2125897  33.6637664  27.8838086   0.7325356  46.8708420  29.1602373
   1.4355260  47.2364473  28.6232352   0.9184051  45.9323883  29.1915631
   5.1284480  20.3760314  28.5559940   4.6080816  20.9092236  27.9550314
   4.5223504  20.1496124  29.2614102  16.3785851  69.7016954  13.7871051
  15.7392097  69.1165972  14.1934180  17.0648468  69.8017550  14.4468510
  44.6140623   0.0699775   4.1973224  44.4071388   0.7169107   4.8717791
  44.2748165   0.4513115   3.3875513  23.6392999  51.4671993  22.1047568
  23.1467843  51.1618948  22.8666282  23.2491398  51.0015726  21.3650274
  81.2981048  32.8099012  65.8818245  80.6220892  32.4667096  66.4661646
  80.8474060  33.4708977  65.3562927  66.6870978  41.1277246  29.2168164
  65.8468440  41.5544605  29.3844581  66.8279793  40.5679226  29.9803638
  34.4749713  68.6598825   7.8232551  33.9959836  69.3271017   8.3148032
  34.3554115  67.8568792   8.3303308  16.0596943  26.4358091  30.2038336
  16.9031072  26.1254621  29.8743320  15.4113626  25.9992814  29.6512580
  32.5689197  14.7643495  53.1874990  32.9554510  15.1301360  52.3918724
  33.2303596  14.9099255  53.8639164  73.5322549  49.7307968  64.8725128
  73.1388488  48.8613272  64.7984409  72.9175892  50.3108740  64.4231462
  30.6263351  63.8289738  55.3654385  30.0836897  64.3855715  55.9239769
  31.1237979  63.2872868  55.9780836  15.2142513  35.1226687  14.8239326
  14.4031346  34.6184754  14.8880339  15.4050231  35.1512790  13.8863730
   4.3829197  56.0087299  18.1476760   4.6763226  56.7879343  17.6754642
   4.6613610  56.1573029  19.0513515  76.0575309  34.4034624  21.2184787
  75.2974596  34.8037457  21.6407275  76.1647823  33.5635209  21.6648269
  32.5311184  38.8747859  30.6136513  31.8749809  39.4816899  30.9562659
  33.1169939  38.7129879  31.3531137  82.9183796  17.0802987  38.7175775
  82.7060082  16.1792469  38.9609647  82.8711360  17.0876408  37.7615738
  82.7320721  74.3370485  35.3487706  83.2077834  74.9955368  34.8424888
  81.9072189  74.2220211  34.8769474   8.5595310  30.6130290  35.9800267
   7.9003572  30.2919436  36.5953517   9.2152476  31.0389733  36.5321493
   4.0794961  46.5285128  63.6921181   3.8492481  46.2670224  64.5836570
   4.5043866  47.3801136  63.7944736  25.4749203  14.2682064  37.4339962
  25.9817767  14.4066429  36.6338921  26.1125779  13.9392519  38.0675673
  10.8632672  45.8324385  35.5030203  11.0261214  45.8607912  36.4458394
  10.9876764  46.7355394  35.2112055  27.4351454  41.7075396  14.7784007
  27.6244974  41.5216541  15.6980872  26.6882563  41.1465168  14.5695007
  87.1477038  54.9292850  56.3562536  87.2896473  54.8769903  57.3014259
  86.2982867  55.3610516  56.2651443   0.6287616  58.2213306  28.8881040
   0.2956145  58.4208632  28.0132127   1.5333694  58.5340500  28.8770056
  11.0339594  52.9337978  26.6544724  11.4225984  52.3587561  25.9952927
  11.5678072  53.7277317  26.6244221  22.9563117  69.6793842  41.3075256
  23.5237074  68.9155769  41.2031698  23.1499577  70.0031948  42.1872330
  76.1178973  49.2273331  36.9522071  75.7313373  49.4647551  37.7950788
  76.6473224  49.9868250  36.7090797  -0.1495349  32.3260355  23.0539727
   0.7190451  32.5713444  22.7351856  -0.5501273  33.1540513  23.3188295
   7.6342970  32.4248910  21.0535264   6.8766493  32.9773188  21.2459517
   8.3038849  33.0355620  20.7453609  80.2925678  72.7712877  10.8088527
  80.4294105  71.8264444  10.7397209  79.8459287  72.8878959  11.6473899
  32.6684856  39.5338607  27.9182339  32.6247597  39.3643093  28.8592815
  31.9299507  40.1177835  27.7455020  18.1685877  62.7963781   9.2641771
  17.6523161  63.1167793  10.0037992  18.7913203  62.1831417   9.6545362
   6.8481082  45.5417299  31.9753766   5.8974057  45.4887581  31.8774462
   6.9829708  46.2134171  32.6438689  43.3004325  12.6003675  35.8044481
  42.6135760  12.8107481  35.1718330  43.9376717  13.3084040  35.7104349
  36.4150559  50.2273078   4.5002542  37.3476606  50.4408963   4.5295845
  36.2191307  49.8893978   5.3741298  39.2770195  10.2225816  31.4209127
  38.4141445  10.0947165  31.0267949  39.2389750  11.1001778  31.8011904
  11.0192645  39.5947313  55.9588051  11.3779974  38.9923191  56.6104507
  11.6549361  40.3091908  55.9175301  12.5165761  23.2322168  37.6796174
  12.9800808  22.3947859  37.6694059  11.5975595  22.9957914  37.8050876
   9.6451396  31.5262914  41.1437559  10.0124097  32.3775816  41.3817644
   8.7349826  31.7138195  40.9142351  34.7429514  34.1636896  27.9889250
  33.9892364  33.5870528  28.1139684  35.1925135  33.8074780  27.2226095
  12.0548952  25.3943992   8.9377135  11.1096406  25.4000926   9.0883547
  12.1487188  25.5536413   7.9985273  53.6124661  17.2241533  28.4580326
  52.8874090  16.9050646  27.9207206  53.8682726  16.4691424  28.9878941
  48.0727867  53.2016372  66.4710324  48.8729231  53.2278204  66.9957491
  47.4631564  53.7754178  66.9351001  83.9191875  81.8959834  34.3484354
  84.4127020  82.4718190  34.9324632  83.7888798  81.0948794  34.8558664
  27.9615736  64.8203421   4.9330243  27.2019863  64.2608356   4.7711325
  28.6784530  64.2084885   5.1002079  81.9697371  39.7476435  48.2427549
  81.0355433  39.6906042  48.4434032  82.3948860  39.8121476  49.0979290
   0.8081803  32.9640484  18.5914445  -0.0511923  32.6518035  18.8746667
   0.6237017  33.5180187  17.8329492  35.2616000  22.2941518  18.5848749
  35.2420712  21.3374424  18.6084819  34.6987939  22.5270557  17.8464723
  63.6834542  70.5687391  63.8330539  63.5153405  70.9160244  64.7090455
  63.8210432  69.6313393  63.9693745  13.6660039  58.1096792  46.8311262
  13.0297351  58.5613918  46.2767363  13.2683289  58.1105947  47.7018070
  11.5102446  63.8125277  35.9179282  10.9422278  64.2935991  35.3161287
  10.9094775  63.2848787  36.4441371  15.7118380  20.9352756  13.7830210
  16.4567351  20.6394982  14.3063545  16.0843241  21.5752459  13.1764543
  28.8720965  22.5585961  32.7090526  28.8270235  21.6600966  32.3820996
  29.2218637  22.4734664  33.5959840   7.8510773  42.9566956  28.3253074
   8.1781125  43.7844610  28.6775613   6.9024569  43.0039501  28.4441257
  70.7489886  50.3028488  25.3657389  70.8807793  51.0124874  24.7370338
  71.1652329  50.6144762  26.1693931  76.8660841  25.4815547  58.0397488
  76.6185102  26.3832728  57.8351988  77.7554211  25.3936927  57.6968350
  27.5234532  15.9790802  55.4588652  27.2861481  16.8561435  55.1577377
  28.2310081  15.7082653  54.8738384  68.2030931  78.4190273  55.8725834
  68.0488982  77.5767469  55.4447746  69.0658357  78.6918497  55.5603790
  11.4284563  20.3631330  35.7466078  10.9790123  20.1323009  36.5595937
  11.2489307  19.6304882  35.1573420  25.0632524  27.4524117   4.3367112
  24.6651626  27.0688772   5.1181573  25.7030892  28.0780911   4.6763656
   0.7277728  54.0530157  20.7113838   1.6023038  54.0571690  21.1004996
   0.4137331  54.9508762  20.8184075  13.3954203  65.4909945  19.6635914
  13.9785850  64.7962379  19.3578732  13.9666200  66.0875130  20.1474619
  77.0419052  27.4816704  38.9422369  76.5173628  28.0603766  38.3888960
  77.2215744  27.9990077  39.7272921  11.9002032  41.7417383  48.1217194
  11.5462279  42.3932028  48.7271357  11.2041771  41.6098595  47.4779892
   8.5254872  80.0428009  26.9246936   7.5950420  79.8239994  26.9759822
   8.8904333  79.3968964  26.3198376  32.6183724  20.1253843  58.6681890
  32.3932695  19.3788874  59.2234373  32.7936769  19.7408223  57.8093433
  74.7084370  45.4097891  50.5290842  74.0252915  44.7402287  50.5642080
  75.4594507  44.9653101  50.1358271   6.4612633  39.0183711  21.0373664
   6.1884445  39.4981003  20.2552795   6.0362703  39.4786382  21.7610836
   8.3146494  17.7401285  16.8162560   9.1161113  18.0687933  17.2235262
   7.7597063  17.4832849  17.5526679   9.6536911  50.5520153  25.1886463
  10.1042330  50.1482487  24.4468784   9.3569821  51.3992262  24.8563385
  63.5005763  40.8561134  21.0101008  63.3961752  40.6676865  21.9427443
  63.7508061  40.0172901  20.6228209  23.9089870  65.1747751  59.2991543
  23.4561920  66.0129833  59.2063570  23.5352731  64.6232891  58.6118126
   7.0879775  16.2809014  28.1334567   6.6829425  16.0929894  27.2867775
   6.3783658  16.1753309  28.7671280   2.8866106  68.0869293  43.8580036
   3.5387117  67.9386187  43.1731653   2.4328750  68.8852787  43.5878277
  81.0923823  14.5433080  32.3930788  80.6506171  14.9036050  31.6241431
  80.3965303  14.4386709  33.0419803  78.8597324  36.0947204  38.0101943
  79.1969606  35.7710004  38.8454866  79.4369223  36.8245244  37.7855372
  20.0015497  62.7196550  31.3707519  20.4495001  63.4886122  31.0182190
  20.7075834  62.1154785  31.6003585  52.0402633   3.2055676   9.4114338
  52.6194744   3.9592898   9.5238815  52.6206689   2.4967635   9.1340194
   0.9884991  21.4850163  67.9379129   1.5908101  21.7717314  68.6243916
   0.7204784  20.6061363  68.2061815  23.2667494  34.3117881  22.2049856
  23.5293436  33.3980417  22.3160791  23.9968419  34.7154474  21.7356682
  26.0318828  12.8920209  42.1127558  25.6905937  12.0208824  41.9105911
  26.7463779  13.0200768  41.4887905  31.1256977   7.5718336  43.2725525
  30.9089298   8.4883432  43.4436131  31.0949750   7.1538095  44.1330957
   0.5492540  44.4843292  33.3825803   0.9180139  44.0730906  34.1643286
   1.0070425  44.0661097  32.6533651   1.4521105  80.2661079  15.3831291
   0.6583507  79.8092209  15.6613994   1.8881995  79.6510820  14.7933829
  12.4030542  24.5070004  42.4133825  12.0358956  25.3608513  42.1845531
  12.9114938  24.2509031  41.6438818  15.9778421   0.2997904  19.1455591
  15.8877128   0.5113535  20.0747252  16.2389582  -0.6210299  19.1338086
  70.8224740  80.9212685   7.5968558  70.7700017  79.9844646   7.7862597
  71.5496030  81.0004330   6.9794023  35.1653457  58.3900547  18.6341465
  35.1066017  59.3447733  18.5981226  35.7704878  58.2143402  19.3546736
  86.4967115  10.2732277  23.6162186  87.2197119   9.7944182  23.2109499
  86.5274426  10.0180221  24.5382571  55.4803255  35.7847977  12.7767515
  54.6259835  35.3559184  12.8256965  55.8125284  35.7600045  13.6741126
  10.8398008  66.8110371  30.6694031  11.5392399  66.6186428  30.0449014
  11.2792552  66.8418646  31.5192032  50.3886747  22.9862356   4.5230061
  49.9958086  23.7830329   4.1666335  49.8284054  22.2791600   4.2030379
  12.9486668  35.0898528  61.6259480  13.7774122  34.7256994  61.3148117
  13.0373037  35.1069522  62.5788784   1.1879589  61.4584923  26.9376755
   1.1692419  60.5530596  26.6277218   2.0478712  61.7847252  26.6724300
  85.6606939  59.5473576  64.6447420  86.4751029  60.0417805  64.7370338
  85.2250397  59.6431828  65.4916525  75.7932642  17.2947037  42.6770020
  76.1734655  16.6349792  42.0969629  74.9114683  16.9714689  42.8618956
  73.9387849  50.1354408  59.7189856  74.7482278  49.8483467  60.1416111
  73.4254887  49.3341827  59.6153212  19.5161104  49.1258049  16.2377608
  19.5453358  49.0416145  17.1908033  18.6840570  49.5649624  16.0615146
  59.3891170  17.8656578  57.5163269  59.6187523  17.9851782  56.5947962
  58.4721997  18.1348181  57.5715351  78.2398745  48.3449030  13.3815300
  78.7292912  48.9365625  12.8100061  78.6638417  47.4945974  13.2654679
  55.4649642  17.4910951  19.6445036  54.7741225  16.8438530  19.7860897
  56.2163403  16.9782007  19.3468368  77.7148607  27.7210331  21.8914843
  77.8251132  27.1690679  21.1172652  78.4709724  28.3078170  21.8769407
  65.0022247  26.5356612  22.3267627  64.9652126  27.4486756  22.0416903
  65.0050309  26.5831709  23.2827783  29.9011612  25.6025219  15.4074228
  30.0156546  25.0230503  14.6542072  28.9552593  25.6224203  15.5527079
  81.8840977   0.7446890  47.5986862  82.7317476   0.5178490  47.9811335
  81.2954387   0.0488931  47.8912306  54.4713452  66.8645716  26.2544799
  54.5374873  67.0809221  27.1845603  55.0339391  66.0977411  26.1463523
  15.2361679  58.2469177  27.6708627  15.9496009  58.8850451  27.6769900
  15.3984630  57.6988268  28.4386444  83.9732873  42.7155924  15.7616735
  84.1842621  42.3042822  16.5998518  83.0168432  42.7501917  15.7458723
  11.1491692  38.5504961  17.5035167  10.3631723  38.1653643  17.8909636
  11.8735266  38.0667520  17.9004145  51.0488179  29.2299008  63.5179138
  51.1619785  28.2894206  63.6554718  51.7418840  29.6334863  64.0404177
  10.9917414  44.6610594  21.0928702  11.8643165  44.9303818  21.3797593
  10.6470513  44.1480064  21.8237591  26.2021494  50.2729082  22.1221066
  26.0272956  49.8812437  21.2663865  25.4094863  50.7698345  22.3245478
  15.3951848  34.7156930  11.9367683  15.4136276  33.8392496  12.3211324
  15.9624338  34.6522307  11.1683726  30.3331137   6.7395049  22.5516653
  30.0784397   7.4147117  21.9228005  29.5291042   6.2451351  22.7110291
  74.3979409  46.1361170  38.3323979  74.9439099  46.4088011  37.5949740
  75.0188532  45.7999659  38.9786959  62.4148947   5.3236072  62.0457788
  63.2153854   5.7448833  61.7327746  62.3643393   4.5066993  61.5494527
  77.6179072  55.6159639   8.7244022  78.4749636  55.6562901   8.3000672
  77.7478936  56.0485315   9.5683348  44.9122541  81.5782960   9.9982200
  45.3559368  80.7610782  10.2252231  44.5666819  81.9022639  10.8299957
  16.4381218  21.3901353  19.4568121  17.0482337  22.1269846  19.4892085
  16.6512620  20.8684969  20.2305675  24.5628285  13.6962438  58.0554867
  23.7038136  13.8673770  57.6694345  24.5590353  14.1888857  58.8761711
  79.2660793  21.9231009  30.6345248  79.4718822  21.9687605  31.5682220
  78.6095187  21.2297893  30.5676055   4.6563542  44.2050982  39.8393345
   5.4381603  44.6143389  40.2101898   4.0108830  44.2381573  40.5453825
  77.6307359  42.0097303  52.1549320  77.2093012  41.8750811  51.3061142
  78.4037759  42.5384998  51.9573355  72.1896758  49.3769073  41.2470198
  72.4694290  49.7460747  42.0846891  72.1070960  50.1340485  40.6672335
  86.7710884  70.8330393  47.3417902  86.0735569  71.4832973  47.4245167
  87.2735718  70.9163809  48.1522179  84.6779659  45.7707548  21.8224001
  84.3022546  46.5124559  21.3481092  84.9968650  46.1475992  22.6424742
  19.6347570  41.1960649  57.2378159  19.0163279  41.4011955  57.9390287
  19.4572282  40.2805376  57.0221233  15.3930032  40.9203863  11.0433531
  14.9485624  40.4098034  11.7201185  16.2889230  40.5834293  11.0387433
   7.7300233  32.6981592  16.3548768   8.3099627  32.0464206  15.9610021
   7.1273559  32.9388809  15.6512594  80.8891025  13.6159396  29.0850925
  80.9322747  14.5633614  28.9556336  79.9997946  13.4577644  29.4018626
  17.2218752  36.9678855  29.6309900  17.2689402  36.0390139  29.4046807
  16.2885964  37.1355414  29.7618127  33.3102560  28.1469178  35.9169674
  33.1427789  27.3595238  35.3990912  33.3886099  28.8473797  35.2693200
  19.3928349  27.2974563  17.8406417  20.0332880  26.6984177  18.2243145
  19.8762214  28.1132197  17.7098715   5.9290689  59.5335579  24.8325682
   6.8067139  59.4247675  25.1988125   5.7636011  60.4750109  24.8827577
  54.4537261  32.5658846  10.7472432  54.2860725  33.1523991  11.4848924
  55.3944256  32.6437449  10.5883384  59.4875648  50.2258587   4.7882614
  58.5366109  50.1974249   4.8936796  59.6432808  50.9817791   4.2220739
  28.0553746  35.4000521  26.1152720  28.3314991  34.5892000  25.6880641
  28.8734627  35.8479714  26.3305211  42.5666838  71.5438874   0.9868799
  42.4082320  72.4695905   0.8019481  42.6269262  71.4971526   1.9410406
  66.2360242  78.0912113  37.8493786  65.9927442  78.2955265  38.7523198
  67.0090749  77.5325537  37.9301691  76.0776856  45.9321928  40.4812813
  76.3073506  45.0033188  40.5072689  75.4809549  46.0521364  41.2200356
  34.0835524  11.2305188  42.0638180  34.2960334  10.5566394  41.4180899
  34.7592282  11.1399174  42.7357483  21.0223937  31.0753417  22.9705596
  20.9536409  32.0076752  23.1761265  20.1216578  30.8009696  22.7984309
  25.3384709  33.9304829  42.6148891  26.2691402  33.7402964  42.4969292
  24.9428153  33.0804086  42.8074074  23.8926744  46.7266798  58.0072260
  23.3039355  47.2400951  58.5604191  24.7021055  47.2369242  57.9806757
  77.4467018  43.0211115  10.5871820  76.6032996  43.0690193  10.1370609
  77.2206565  42.9905844  11.5168083  78.6134019  15.4144645  34.0274882
  78.2605662  16.1764073  33.5679436  78.6435982  14.7265446  33.3625913
  24.1576815   4.4385120  30.9191751  23.6219406   3.8933343  31.4953661
  23.8180971   4.2648697  30.0412440  26.1778975  46.5362167  18.2790411
  26.9113445  46.0567379  17.8938305  25.4798961  45.8856344  18.3549809
  26.6043711  25.8922720  23.9975119  26.4018583  26.3522148  23.1828499
  26.0217690  26.2867785  24.6464872  81.6399219  31.2935472  42.0480824
  81.4544275  30.9490538  41.1744976  82.3872682  30.7798600  42.3543978
   8.9487123   4.5120057  30.1057887   8.4985733   4.0478954  30.8116269
   8.2605571   5.0200438  29.6761703  85.3016184  48.0998850  20.8648968
  84.9993953  48.7397385  21.5094733  85.2455267  48.5591936  20.0269723
   3.6012483  17.6567483  34.4660115   4.3861592  18.1557202  34.6922278
   3.3341208  17.2449327  35.2877688  71.0905984  59.3216610  21.0949874
  70.5251148  59.6290636  20.3864956  70.6862643  59.6667337  21.8910193
  69.6256223  22.6017118   5.6533134  70.3396716  21.9649792   5.6839556
  69.1474428  22.3869801   4.8523974  19.7481430  36.5519524  35.5452204
  18.9383900  36.4963746  36.0526085  19.9177647  35.6523752  35.2655411
  67.8990528  41.0271995  70.5702573  67.8782502  41.2057941  71.5104185
  68.3389101  40.1802127  70.4970331  18.6550844  63.0293798  24.2162967
  19.1841674  63.8258410  24.2604995  18.4838212  62.9071236  23.2825112
  84.5230224  59.9176598  21.7383885  84.0328353  60.3758478  21.0557365
  85.1925116  60.5438852  22.0138073  11.4686608  47.5271368  11.7992818
  11.9420373  46.6977406  11.7341030  10.7548213  47.4458408  11.1667836
  86.9279817  72.7067804  19.5154560  86.2846273  72.6972771  18.8067698
  86.4261514  72.4773312  20.2976012  62.2031739  26.2489033  22.0658064
  63.1290534  26.0232615  21.9759893  62.0767596  26.9846845  21.4667463
  85.9928081  73.3601236  25.2468085  86.0914489  72.4087811  25.2849054
  86.4689251  73.6811447  26.0126352  38.9083052  56.7548323  15.4164994
  38.3145618  57.5051832  15.4424357  39.6192408  56.9912577  16.0122395
  71.8986609  55.8845854  36.7201543  71.0375610  55.5329990  36.4940453
  72.4904242  55.1360464  36.6443968  11.4492524  50.6595564  60.2158308
  11.7048931  49.9882078  59.5832396  10.6460226  51.0350275  59.8551702
   1.0487116  32.5851536  43.7108898   1.1178745  31.9680500  42.9824448
   1.6702120  32.2584033  44.3614340  23.9138675  43.4714317  20.9705567
  23.8965869  44.1533232  21.6420889  24.4311452  42.7658653  21.3589191
   3.8156307  45.6287718  19.6209025   3.7350458  46.5824127  19.6383929
   4.7099474  45.4585123  19.9166071  31.1653566  25.8353114   2.4063769
  31.9391966  25.5707431   1.9089755  31.4806986  25.9355712   3.3045632
   0.8575701  16.0095131  25.2605057   1.0442963  16.8354285  25.7068539
  -0.0541611  15.8188736  25.4810381   5.4037523  20.8417296  59.1009951
   5.4806560  21.2786961  59.9491549   5.5538970  21.5360117  58.4593868
  30.4717139   1.4159231  37.6967764  29.8057757   0.7800512  37.4352074
  31.2684595   0.8969049  37.8065372   4.0487474  43.6461926  34.6632624
   3.4415710  43.4976149  35.3881693   3.7800923  43.0176926  33.9931583
  26.7297196  51.6586304  19.5740581  26.9712234  52.4366188  19.0714252
  27.1636033  51.7753172  20.4192567  44.0435791  30.4563570   8.3696651
  43.0993891  30.4574537   8.5269517  44.4316578  30.5346656   9.2411548
  21.9114027  32.5323455  54.4964482  21.7444381  31.6011254  54.6419861
  21.7671570  32.6578204  53.5585346  28.4461737  80.2220440  14.5343471
  29.0220070  79.9752140  13.8106596  28.1836247  81.1208344  14.3356860
   5.6678146  38.9447260  49.0055895   6.1564296  38.1588244  49.2502260
   5.6436193  39.4703126  49.8052168  13.2272232  44.8546124  54.7269773
  13.3914244  44.7533607  53.7894201  13.9786172  45.3523159  55.0493526
   2.6167700  67.7357960   4.6640056   3.1250685  68.1920958   3.9934412
   1.9668239  68.3776760   4.9500051  27.4659324  44.4495773   6.3798845
  27.3160672  43.5980368   6.7905563  28.4177542  44.5132780   6.3010550
  20.7770419  14.5017791  37.8277421  20.0496674  13.9013839  37.6643896
  21.2386727  14.5520985  36.9907236  29.1349769  27.7043128  42.2866201
  29.5416570  27.6984859  43.1531143  29.8369360  27.4425745  41.6908169
  33.4376121  33.6610937   2.4011713  33.6746573  34.3380761   3.0349982
  33.0101371  34.1380930   1.6898569  17.4390066  62.1935272  63.9103508
  17.7429843  63.0967188  64.0002108  16.7873812  62.2286797  63.2100773
  35.4019284  41.1011505  37.7092671  35.6489539  41.8641090  37.1866775
  36.0823512  41.0395622  38.3796859  20.2156115  73.4522533  31.5154314
  20.9992170  73.0444336  31.8840504  20.5157661  73.8543653  30.7002950
   7.9712040   2.5384156  52.6668991   7.0261628   2.3863380  52.6675357
   8.0709965   3.4243505  52.3184766  72.9677763  40.3100014  34.7353530
  72.9789260  41.1015177  35.2735066  73.7949350  39.8721552  34.9361825
  11.3424530   7.2416716  23.4175253  12.1819916   7.7011328  23.4003401
  11.1076155   7.1373110  22.4954677  36.2742901   5.4282486  17.1884346
  36.0605907   5.1874936  18.0898786  35.6378937   4.9512047  16.6558349
  16.9534283   0.4852037  61.8635368  16.4583414  -0.1594420  61.3580132
  16.5720909   0.4459124  62.7406168  82.4217972  51.7792082   4.5199296
  83.0212029  52.3625183   4.9854332  81.5496531  52.1055365   4.7415334
  81.6644862  19.2747915  57.3933363  82.3951289  19.7173786  56.9614649
  81.2111863  18.8153613  56.6864586  35.7441711  57.2078991  35.0451660
  35.7272840  56.3394594  34.6429801  34.9927926  57.6627254  34.6646452
  54.8408541  13.7903325  46.5058078  54.2645446  14.5191781  46.2758412
  55.7245103  14.1499726  46.4280691  13.6606538  21.3200092  26.7298460
  14.3448758  21.1835432  27.3851681  14.0158796  20.9346747  25.9288669
  37.2224474  51.4256525  34.5870924  37.8551197  51.1758995  33.9136052
  36.3760662  51.4036560  34.1405678  16.7291319  43.5881424  29.1169429
  16.1711347  43.4081411  29.8735595  17.5974071  43.2848072  29.3821144
  10.7887566  49.2187643  14.5801389  11.0133779  50.0178099  15.0569022
  10.6349790  49.5111179  13.6817431   8.9996672  46.4926434  55.4064035
   8.5818899  46.1696100  56.2047434   8.3082271  46.9741774  54.9522400
  52.5723165  13.5392504  31.4973378  52.4265593  12.9753427  32.2569394
  51.8470972  13.3370333  30.9062409  31.2495923  69.5773554   4.9886039
  31.0223866  68.9246273   4.3263659  32.1903539  69.4638252   5.1239258
  40.2795124  22.9872322  22.3509192  40.1129866  22.7655029  21.4347649
  40.9610558  22.3738766  22.6257277  11.5028441  75.9588242  54.2429352
  11.9499254  76.5559912  54.8427200  11.0032272  75.3753471  54.8140478
  31.4627099  62.9058409  32.8819585  32.1129131  62.4581957  33.4233284
  30.9360886  62.1998310  32.5071859  68.8510983  14.6096258  29.1378570
  68.3520382  15.0455503  28.4471035  69.5093577  14.0958338  28.6699295
  23.4586906  36.9941235  37.3641157  24.2321396  36.6842866  37.8352952
  22.7410531  36.4596939  37.7041316   0.7596191  79.2981863  11.0072052
  -0.0616726  79.3916655  10.5245328   1.4383167  79.3263912  10.3328133
  10.3211296  37.3515272  61.4559698  10.7708848  36.5170598  61.3232374
   9.3934429  37.1195197  61.4983988  56.2355614  70.7987070  34.8651958
  55.7294178  69.9978113  34.7287178  56.7515898  70.8952379  34.0648031
  13.2292652  56.3692904  19.0344512  13.0651224  56.0845757  18.1354368
  12.9711270  57.2909689  19.0447021  12.0098650  67.8785992  17.0711446
  12.2717857  68.7942362  16.9750392  11.2620974  67.9047775  17.6681280
  33.4492295  11.8034391  49.3607378  33.6372807  10.9126310  49.0652227
  33.1181055  11.6951494  50.2522850   6.6791010  43.3640718  18.6858463
   7.5665647  43.1250286  18.4184551   6.7955637  43.8282108  19.5148480
  46.7488310  21.4028232  53.3131065  45.8377442  21.1434810  53.4505619
  47.1821460  21.2045638  54.1432645  71.7853227  51.6833448  39.6215510
  71.9323757  51.5843010  38.6809134  71.2700369  52.4861717  39.7001910
  11.8054533  40.5158854  34.3203592  11.8733585  41.3708162  33.8952518
  11.6777503  40.7186699  35.2470756  32.1065068  65.1709270  48.5384130
  31.2823439  65.6283474  48.3718157  32.4545503  64.9796247  47.6674938
  72.7386639   9.2506187  61.5139373  73.6749110   9.1912667  61.7040690
  72.3176882   9.2253701  62.3732241  22.9994893  68.7300110  34.9206996
  22.6688766  68.6984777  34.0229630  22.5685668  69.4919300  35.3080153
   2.0926218  43.0814266  13.1575298   1.8025875  42.7069759  12.3257244
   2.9682228  42.7185392  13.2912016  30.5793858  10.3479350  68.5690117
  31.0867119  11.0457718  68.9835882  31.1714268   9.9780726  67.9140902
  31.8260025   1.3638811   2.3835070  31.2151440   2.0809107   2.2133309
  31.4814689   0.9367590   3.1677878  50.2583441  13.3083980  68.0438559
  50.1792905  12.6862590  68.7669890  50.8462104  13.9872853  68.3751567
  54.1623402  24.0906692  12.0650566  53.6594439  24.5741224  12.7204955
  55.0393438  24.4719028  12.1069717  86.7234868  81.0732174  28.2141423
  85.8471485  80.7751274  27.9704094  86.6394431  81.3411808  29.1292167
  11.7349327  30.8774757  39.2354679  12.4081147  30.3880262  39.7082233
  11.0418510  31.0160995  39.8809552   2.2925021  42.6182508   5.8907449
   1.8542983  42.3549271   5.0815052   2.9268646  43.2799911   5.6152123
  68.1562903  57.6107121  33.4321427  68.5436287  57.8509045  34.2738724
  68.0636110  56.6589308  33.4740186  25.7866478  27.1361041  32.8944111
  26.4209986  26.6236758  33.3956528  24.9344707  26.7994165  33.1713033
  18.1859243  31.4376950  28.7166667  17.9532361  30.5092120  28.7197089
  18.9607370  31.4886022  28.1569290  39.0551382   3.4601240  19.1317105
  38.2471012   3.5755949  18.6317348  39.4009798   2.6177340  18.8367677
  84.2627066  64.9749041   2.7358153  85.0035126  65.4950476   2.4245386
  83.8495436  65.5222321   3.4036207  10.6026256  50.4516077  22.3292923
  10.7463169  49.5162630  22.1853566  11.3052154  50.8799028  21.8402553
   0.0617090  59.9447298  37.4500585   0.7601812  59.3561411  37.1638227
   0.2858501  60.7897663  37.0603013   4.2615086  42.8729820   9.9413514
   4.5403343  43.5193825  10.5899334   3.3495864  42.6871204  10.1651454
   1.8690947  71.3741779  18.1762707   2.0746273  70.5471277  18.6121345
   1.2014360  71.7777443  18.7308848  25.7637072  33.6116219  37.6309609
  25.8960390  34.2901635  38.2930017  26.0852885  34.0033150  36.8189311
  41.0180140  63.6465216  20.5557275  40.7702589  64.0002441  19.7014880
  41.7706537  63.0840683  20.3729177  10.1411498  38.7932730  39.8291874
   9.4177884  39.1014624  40.3750801  10.8880699  38.7455487  40.4258966
  85.0426445  22.7454440  70.6648049  84.3854675  23.4376018  70.5922411
  85.8808860  23.2056443  70.6223235  51.5529728  26.3994598  18.4156644
  51.4416075  26.8690157  19.2423117  50.9686136  26.8482780  17.8046632
  82.4128351  28.7175099  59.7682776  82.9868135  28.6926143  60.5338885
  81.5903196  28.3343093  60.0730063  21.4447069  19.7002542  11.6095901
  21.6856623  19.1072798  10.8978641  22.0007944  19.4340181  12.3417890
   8.1603515  47.4705982  30.1324892   8.3180684  46.5366554  29.9942565
   9.0234590  47.8319740  30.3341913  77.0627102  16.3192689  38.1600523
  76.2779429  16.8622363  38.2346010  76.8479171  15.6798255  37.4809313
  49.1500902  36.5116668  11.4116681  48.8137770  35.6262827  11.5503097
  49.7162247  36.4352918  10.6436253  79.9722531  17.7493882  32.5442696
  80.0694522  16.9369745  32.0475125  80.3506973  18.4226274  31.9787955
  18.6502719  75.7444572  38.1316280  19.1526198  76.3132191  37.5482011
  17.7509260  75.8053732  37.8096056  35.2663255  27.5097680  12.2841954
  35.9354782  26.9034410  11.9666493  35.4094982  28.3102965  11.7793310
  12.9342139  68.9880800  28.5533977  12.2142351  68.9224052  27.9260612
  13.2921875  68.1016016  28.6008120  82.1253064  49.5863819  12.9643357
  82.8988072  49.6693563  12.4066222  82.0475366  50.4380608  13.3942533
  59.9215174  62.9200029  14.0641391  59.9434090  62.3200417  13.3186197
  59.0417719  62.8185844  14.4274437  51.4246290   3.3474569  34.1605544
  51.9022029   3.9968996  34.6766710  50.6361812   3.1673460  34.6725512
  37.2931933  77.7970266  19.3305039  37.0103645  78.4890366  19.9283016
  38.1197953  77.4852657  19.6989667  57.2947838  68.0191851  64.7288227
  57.4572590  68.1550169  65.6623030  58.1627157  68.0557251  64.3268394
  19.4631135  56.6836643   6.7312664  18.6772513  57.1942234   6.9261593
  19.2555785  55.7996273   7.0339805  68.6860635   7.4562329  45.9381437
  69.0832474   8.3068144  45.7510948  67.9207924   7.4178880  45.3644562
  40.1321936  46.3169289  40.5006886  39.7610879  45.4365253  40.4423761
  40.6607199  46.3016987  41.2985992  67.9535773  56.7035770  55.3196716
  67.7274993  55.7753181  55.2608299  68.4702602  56.7738342  56.1223745
  21.6656041  67.7802038  39.2645001  21.3602209  67.4735022  40.1182604
  22.4906063  67.3155451  39.1241431  17.4974573  69.1793776  16.2532413
  18.3853722  68.9702559  15.9632337  17.1868730  68.3765221  16.6717982
  38.2174068   3.3722143  28.5299492  38.3192837   2.7718382  29.2684603
  38.2778471   4.2442160  28.9200735  75.8901542   6.2618952  36.6709447
  76.0984748   7.1957140  36.6995978  76.7337840   5.8325415  36.5288901
  13.6675763  58.6815262  29.9093366  13.1854129  58.2228994  29.2212868
  14.2917264  58.0339050  30.2368331  42.2960631  80.6662571  45.9770955
  42.2460691  81.6191136  45.9009828  42.9800014  80.4120504  45.3575482
  85.2904440  32.2415257  19.2552769  85.6386014  31.7098165  19.9710298
  84.5093205  31.7705274  18.9650369  76.7373040  77.6489449  19.2123818
  77.5145843  78.0399847  18.8134360  76.0983017  78.3610821  19.2400789
  85.1252795  34.8845696  41.3693857  84.5178073  34.2559958  41.7593908
  84.5698836  35.6118560  41.0886335  85.5374393   0.7221858  55.7648792
  85.1824579   1.4987294  56.1975457  86.3700781   1.0142819  55.3938963
  45.1656715  75.6090223  65.5328985  46.0958914  75.4105460  65.4255303
  44.8704759  75.8548796  64.6561738   6.2651128  32.8527641  30.5840349
   6.4010739  32.8593731  29.6365643   7.0497966  32.4322248  30.9356737
  27.3735642  72.5525141  41.3076353  27.9965258  71.8988419  41.6252327
  26.7097425  72.0441866  40.8416128  16.9704723  79.2343092  56.9493532
  17.0287061  79.1889095  55.9950066  17.4837530  78.4870052  57.2564554
  86.4988903  77.3465157  34.5765734  87.3353135  77.2990799  34.1135621
  86.7399249  77.4746037  35.4940295  33.9852071  26.8326640  38.2317305
  33.7936425  27.1327400  37.3431969  34.3454814  27.6024389  38.6720490
  68.3791766  30.8960311  60.1873948  68.0925378  31.7990605  60.3238048
  69.0876422  30.9637229  59.5472946   1.3550861  50.4391003  57.6872826
   1.1688471  51.3329315  57.3998594   1.1311092  50.4351950  58.6179018
  59.4751837  34.1277385  55.6369066  58.8009598  34.6762085  55.2358675
  59.8669984  33.6546278  54.9028206  36.7207503  43.2858324  36.8593287
  36.1529565  44.0463066  36.7347527  37.5909162  43.6576653  37.0034814
  28.5416518   1.6904097  21.9679713  27.9297726   1.2512140  21.3772631
  28.1358953   1.6159849  22.8317165  -0.0604351  65.1683474  16.4781165
   0.2127098  64.4904327  15.8600140   0.0524433  65.9891176  15.9987140
  14.0034473  22.2970748  23.7015963  13.4620559  22.4700761  24.4717884
  14.8259318  21.9608927  24.0575910  14.8684025  56.6102552   7.5064278
  14.5832431  56.7267132   8.4127134  15.7051885  57.0724392   7.4573606
  13.0427074  55.9040117  16.3161218  12.9467690  56.4098120  15.5091560
  13.1386721  54.9984455  16.0212111  72.6574227  43.7809817  62.6153656
  72.9098866  44.2522971  63.4093131  73.4509287  43.3158080  62.3504259
  18.6902416  75.6359911  29.6858382  18.0426359  75.6030989  30.3899384
  19.4547749  76.0531902  30.0829101  73.7125394   3.5676686  52.1715822
  73.3328638   3.8019959  53.0184402  74.1629181   2.7384631  52.3322274
  83.5771200  41.9943571  40.9505224  83.6477342  41.0435867  40.8652067
  82.6360920  42.1606445  41.0057163  40.4140139  75.4846144  54.6651649
  41.2232351  75.7147646  55.1217031  39.7207975  75.6681919  55.2991819
  72.0740512  21.4759946  46.6249275  72.1175065  20.8443546  47.3428249
  72.5934937  22.2202754  46.9289923   0.1392628  47.0158958  69.4849777
   0.2970219  47.1454287  70.4201603   0.8417188  46.4302683  69.2024374
  42.0463614  64.5996153  69.0012403  42.2366993  65.4772436  68.6699212
  42.5937525  64.5143568  69.7818335  44.6489863  79.9757921  57.2282805
  44.6790127  80.3847181  58.0932142  45.5350570  79.6407997  57.0908381
  74.0103355  32.1317458  16.3060606  73.1009581  32.2483683  16.0309899
  74.0383544  32.4832773  17.1959329  48.1270695  62.9862022   8.5738581
  47.9999018  63.9344692   8.6030084  47.5616169  62.6472712   9.2678457
  19.8935413  65.8407736  48.1549549  19.8406720  65.6763124  47.2134733
  20.8236718  65.9961796  48.3190870  79.8133835  19.3093268  53.4505453
  80.1349291  18.5124461  53.0288507  78.8785681  19.3282668  53.2456149
  74.3573687   7.4885766  67.4849378  73.6179778   6.9473998  67.2080635
  74.3203780   8.2553021  66.9131057   5.6725907  48.9109468  33.8722277
   5.3968972  49.0987444  32.9750347   6.5146017  48.4660101  33.7758899
  73.3810308  80.5712891  60.6848145  72.8322497  80.0828362  61.2983990
  72.8135135  80.7309914  59.9307251  62.9045431  17.6943696   8.4698997
  62.3863728  18.4889424   8.3418737  62.2980283  17.0759356   8.8772188
   0.2104334  66.3568830  44.1425085  -0.6263122  66.4731884  43.6924410
   0.5363346  67.2469378  44.2760038  63.6298134  20.4016066  18.7080622
  63.6158779  19.5554829  18.2607245  64.5584896  20.5770802  18.8597262
  12.2218168  40.0128508  26.2751913  12.8732085  40.2435732  25.6128573
  11.4926016  40.6112146  26.1126065  23.6314964  60.1903296  13.2318902
  24.3716097  59.6467781  12.9616702  22.8957915  59.8697186  12.7101815
  86.0968828  54.3468475  66.2346792  85.9908339  53.4598684  66.5785503
  85.9270836  54.9164963  66.9849443   9.9573237  19.9363685  13.0810285
   9.3010843  19.9979830  12.3869205  10.0950396  18.9963365  13.1976771
  44.0150528  12.2048216  43.0547428  44.6407109  12.8651838  42.7569103
  43.2169717  12.3906546  42.5600100  41.4577103  67.2182941  39.2349720
  41.7627096  67.0826387  38.3378625  40.5039978  67.2529650  39.1610432
  24.9356055  47.5521326  32.1260142  24.0837479  47.1273041  32.0255661
  24.7261500  48.4641647  32.3274064  37.0869875  24.7885823  42.3784494
  36.4045119  24.3389463  41.8801641  37.4249935  24.1223049  42.9768324
  39.2499471  68.8825798  35.3748488  39.0711403  68.7488413  36.3056397
  39.0635896  69.8095751  35.2259326  47.8400564  46.5072918   1.5312190
  47.0374203  46.9933414   1.7203337  48.0093145  46.0050011   2.3282675
  12.3319352  78.6470938  63.8465309  12.8029323  79.2285013  64.4434929
  12.7996266  77.8139734  63.9048958  38.0214810  26.0679722   2.9855391
  37.6089954  25.2625179   2.6735616  38.9310050  25.8216453   3.1538266
  38.0665994  58.1943989  35.6869221  38.7399173  57.6548052  35.2725339
  37.2522140  57.7117014  35.5454612   4.8369830   9.5775061  18.5651886
   5.1289742   8.7928514  19.0291715   3.8955300   9.4501715  18.4482050
  77.6479831  37.0324683  33.4096193  77.6968702  37.1403241  32.4597716
  78.1397864  37.7748799  33.7605977   8.2633799  40.3909492  30.7373452
   7.9734260  41.2593555  31.0166883   7.6526439  39.7870898  31.1599398
  68.7113812  62.7728176  23.1682801  68.3089855  63.3637047  23.8048029
  68.8239017  63.3078337  22.3825788   8.0182844  70.0196791  48.7917471
   8.4363592  69.1689968  48.9251280   7.1302688  69.8076677  48.5041523
  15.5042732  30.7093930   8.1868565  14.5543242  30.8267808   8.1797600
  15.6410968  29.8926115   8.6668348  26.2418461  63.5960007  52.0825195
  26.9764066  63.6285400  51.4696646  25.9316111  64.5001411  52.1327591
  86.5615603  47.2184849  16.2972796  86.2683902  46.4570999  15.7967067
  87.4082599  46.9560909  16.6585004  29.6105003  52.0467663  39.3055582
  28.8465738  52.2709465  39.8369622  30.3599977  52.2653294  39.8593760
  75.1899907  13.6130874  53.9878871  74.3576429  13.2135598  54.2404880
  75.3209636  13.3399694  53.0798771  83.3501789   6.7551380  34.7354484
  83.7837097   7.2587121  35.4244304  83.6494544   7.1576500  33.9201880
  26.9740272  59.6613169   8.7808502  26.9192195  59.2021608   7.9427564
  27.4134445  60.4861021   8.5737950  24.1046453  37.9139566  17.8033829
  23.9037180  36.9781089  17.7962303  24.0796804  38.1713390  16.8817747
  74.7535739  19.2365186  58.5901930  74.3362138  19.9518172  58.1102051
  75.0764510  18.6470525  57.9086389   9.6249694  56.4428043  30.9889960
   9.0060568  56.2325907  30.2897167  10.3961611  55.9102440  30.7943845
  11.8512344  39.6935606   9.6554965  11.5337968  39.0736127  10.3121006
  11.4535153  39.3991804   8.8361108   0.8985279  62.2244835  35.8835793
   0.8223332  63.1199551  36.2130594   1.7900971  62.1709681  35.5393815
  72.2570262   4.2132108  69.3625735  72.4301264   3.4724776  69.9435871
  71.9960973   4.9224965  69.9499942  34.1037393  47.6607418  35.9916925
  34.7432399  48.3288479  35.7449031  33.3517098  48.1568623  36.3150334
   8.8556224  23.8047528  27.5112271   8.9213455  23.2079172  28.2566810
   9.2899793  24.6051097  27.8061795  62.3432827  61.3955069   9.9605370
  61.4587069  61.1172247   9.7232229  62.7896929  61.5151834   9.1223073
  86.4611827  62.9382801  23.8399792  86.8908495  63.0097008  22.9876208
  86.8220198  63.6624002  24.3515229  16.9992280  54.6581602  27.7768278
  17.6778269  53.9846897  27.8233981  16.2810433  54.3115330  28.3062553
  11.0750508  31.9425178  25.9257388  10.4146576  31.3362646  25.5902219
  11.1280167  32.6302648  25.2620864  62.3015311  46.9960308  12.3103607
  61.4979413  46.4773560  12.2722638  62.6870635  46.9047356  11.4390039
  11.7571449  46.1112165   3.4539825  11.1113942  45.5295801   3.0528140
  12.4489439  45.5253744   3.7612829   8.8029504  46.6488504  64.5831680
   8.5884058  46.0734415  65.3174067   9.5684940  47.1407747  64.8801327
   8.3184838  47.5694275  33.6951613   8.5131615  48.3436298  34.2233109
   9.0009224  47.5595331  33.0240345   5.2960491  31.6619682   6.1490762
   5.3236002  32.3087049   6.8542039   5.2628410  32.1833563   5.3470272
  23.1608020  14.3318713   0.8199821  22.9189573  14.8239720   0.0353895
  22.3283206  14.1559422   1.2584482  83.2462337  35.5881548  15.4776311
  83.5558766  34.6826124  15.4962540  82.9105430  35.7082748  14.5893097
  25.8105755  71.2228012  39.4737935  24.8927879  71.4732218  39.5795751
  26.0256648  71.4749336  38.5757971  20.0085568  78.9407063  23.6243963
  20.2878332  79.5995235  24.2601633  19.4455767  78.3493090  24.1239333
  40.2539873  42.6147270  22.6497960  41.0176849  42.3913860  22.1177077
  40.2951765  43.5667610  22.7401710  55.3766983  69.0678676  15.6346737
  56.2276857  69.1825207  15.2117000  54.7957342  69.6712692  15.1714073
  44.5011143  79.1914451  69.3962911  44.9423234  78.4875905  68.9207359
  44.6759562  79.9769532  68.8779865  17.9336231  13.7745695  15.4854751
  17.0861357  14.0078478  15.8643925  18.5729962  14.2432623  16.0219061
  15.9135258  71.7539978  11.9377768  16.2103426  71.1247349  12.5951672
  16.7194378  72.1399879  11.5946305  21.9545245  12.0062196  31.1168504
  22.1674252  12.8423548  30.7023835  22.7775192  11.7182481  31.5118003
  33.9075446  42.8126431  25.4432750  34.2140889  43.3583784  24.7190952
  34.6687341  42.7266073  26.0172272   2.5917161  71.4900255  36.0430050
   2.0970455  72.1929598  36.4642096   3.3568791  71.3658524  36.6045547
  10.6018937  37.9293060  27.2622180  11.0733211  38.5636878  26.7222667
  10.5821502  38.3244491  28.1338286   9.2047149  66.6435909  23.8701940
   9.6528590  67.4850512  23.9559126   9.8117769  66.0988617  23.3692217
  65.3148690   3.7897508  66.4351391  64.9984220   4.0155618  67.3098393
  64.5713315   3.9657752  65.8585985  29.5294523  27.8871608   1.7674515
  28.6458588  27.5190830   1.7639872  30.0891018  27.1638870   2.0501196
  15.8383310  78.7951756   6.4168584  16.4394450  78.0512047   6.4542586
  15.4771316  78.8559484   7.3012078  52.4840403  66.2504339  24.7610903
  51.7298555  66.3179827  25.3466487  53.2340813  66.4819098  25.3088951
  79.6930322  43.9077187   1.0194188  79.8661103  43.1365585   1.5594046
  79.2537722  43.5622597   0.2422838  84.7809039  32.4337220   4.6658245
  85.1548773  33.2683706   4.3834496  85.5358725  31.8530965   4.7613767
   8.6231440   9.6081285  10.2296567   8.1022971  10.4089003  10.1686645
   9.2867225   9.7013788   9.5461369  17.8632951  64.3566990   6.8210703
  17.7707839  64.0589428   7.7260649  17.5866282  65.2728271   6.8408793
  60.5514951  34.8843539   4.5566545  61.4028315  34.8545421   4.9931989
  60.6972812  35.4309380   3.7844978   6.1049182  19.3438689  67.3879271
   6.7898352  19.9697701  67.1526189   6.5554554  18.5003774  67.4299844
  13.3342457  54.3458462  61.0775757  13.0220699  54.1521358  60.1936913
  13.5808587  53.4935045  61.4366484   8.2344067  61.7559958   9.3555474
   9.0703464  61.4032602   9.6605337   8.2419002  61.6062927   8.4101564
  56.1637825  45.1080954   0.3583179  56.0546753  45.9148372  -0.1451649
  55.5703940  44.4834102  -0.0586857  34.6276808  68.6971807  17.6819599
  35.2674985  68.1587934  17.2161257  34.7949719  69.5880175  17.3742998
  23.3046651  46.1412382  24.8614597  22.9834461  47.0340300  24.9878550
  22.6241755  45.5857706  25.2417541  21.2912989  78.5954475   8.7233269
  20.8141661  79.3747663   9.0083462  20.9264278  78.3929300   7.8618813
  12.1514463  48.5364723  35.7846594  12.3536992  49.4714689  35.8180261
  11.7684495  48.3435822  36.6404271  53.7549608   2.1323519  54.8486137
  53.7000173   3.0632334  55.0646448  53.6245864   2.0982962  53.9009476
  50.3464740   5.0502615  18.8110876  50.0924342   5.9706621  18.7435222
  49.8838633   4.6206694  18.0915904   2.1209431  41.7124224  50.1946783
   2.8885913  42.0649529  50.6448650   2.1587858  40.7701492  50.3587675
   4.7990119  70.7207870  24.6307278   4.3912047  71.4356565  25.1194882
   4.5874164  69.9349022  25.1345587  30.2575564  77.5402152  55.2795042
  29.6242356  78.2258522  55.4917242  31.0444965  77.7814948  55.7681145
  36.6113019  78.8930655  22.7527452  36.6158485  79.4514418  23.5301948
  36.7210889  79.5003510  22.0210505  24.0467119  74.3740654  23.6671877
  23.1192017  74.4856548  23.4586000  24.4961047  74.4899750  22.8300238
  33.8489476  15.7997255  69.4122219  34.5031777  15.6440763  70.0933981
  33.1410065  16.2617903  69.8611689  36.4922690  76.4262152  26.8759751
  35.7965112  77.0066738  26.5673923  36.9679475  76.9458961  27.5239635
  72.6857569  76.0699415  24.0537977  72.8084829  76.8670416  24.5693564
  72.4930575  76.3835096  23.1701827  10.4871693   6.4511042  31.3899302
  10.7890883   7.0628672  30.7184935  10.0494042   5.7548742  30.9001827
  22.1941796   1.6555529  35.1833773  22.0786610   0.9541445  35.8244061
  21.6405001   2.3672037  35.5046463   9.2937079  20.3712683  42.6772070
   9.2488518  21.2173204  42.2317600   8.9550963  20.5447798  43.5555363
  73.7160334  38.9623849  66.9270306  73.8658187  38.2736795  67.5747033
  73.4158966  38.4962098  66.1467554  38.2899427  81.0790920  46.4934587
  37.9637170  81.4636421  45.6798697  39.2235279  80.9394169  46.3348866
  21.2534595  54.0468550   1.3356841  21.6774678  54.6298265   0.7059283
  20.4551411  54.5094633   1.5904699  81.0919795  33.5669868  70.1738322
  80.3134403  33.7785975  69.6587310  80.9080825  32.7026813  70.5417922
  73.4947088  80.7997894  34.6699071  74.2107263  81.1819553  35.1773572
  73.2212963  80.0365162  35.1787257  10.7892878  31.7586247  66.9003152
  11.0459096  31.8551747  67.8174062  11.0208995  30.8562486  66.6805198
  78.3530944  30.4596167  64.5674324  77.6003497  30.1820307  64.0453672
  79.0241902  30.6803732  63.9215755  80.2795985  43.5828638  32.1179986
  79.7083893  43.3728361  32.8568077  79.9120017  44.3874073  31.7521977
  50.4201269  67.7754641  49.3774891  50.4041529  68.6410666  48.9691830
  49.8796892  67.8705835  50.1617813  35.8671289   8.0634432  42.8515100
  35.9943699   8.9121847  43.2753897  36.3195305   7.4411039  43.4209585
  40.6459444   0.7278662   7.0537835  41.2966674   0.8994513   6.3730842
  39.8842435   1.2455492   6.7929190  54.6171188  67.2239828  42.4321890
  55.5440855  66.9871807  42.4619722  54.2193079  66.5635538  41.8649101
  52.1152633   7.0437651  69.8046303  51.6978090   6.9697218  68.9464474
  52.0728081   6.1595278  70.1687145  63.7812775   8.3714895  45.7990932
  63.8978928   9.2307119  45.3936672  63.0371874   8.4847097  46.3904858
  56.2527411  20.8294611  58.7374830  55.2986424  20.7584982  58.7673187
  56.5003102  21.1029177  59.6207523  14.8149037  37.5278878  26.8816137
  14.2287874  36.7845488  26.7396641  14.7800207  37.6835799  27.8254223
  19.8642385  60.7524347  11.5138018  20.5010676  61.1576796  10.9251928
  20.3307414  60.0093222  11.8964028  83.2021015  72.3750639  41.4385605
  82.6932793  72.0014524  40.7190180  82.6802250  72.1939373  42.2202682
  70.8692115  21.5329866  51.1580420  70.0093072  21.8026381  50.8354139
  70.7713359  20.6003695  51.3500547  14.2469668  73.8327074  10.9501863
  14.6663904  73.5831451  11.7736161  13.6254418  73.1263161  10.7742572
  81.9419538  28.5599530   3.7942634  82.8012525  28.8631976   3.5012088
  81.7778049  27.7705396   3.2783971  14.7253799  55.5211496  56.9024563
  14.0279293  54.9316263  56.6156530  14.3031216  56.1014700  57.5358248
  19.6109068  59.0030146  34.3484545  19.3966877  59.7105789  34.9564838
  19.6103883  59.4194651  33.4865952  32.5289869  36.0783267  30.4490066
  33.4414172  35.7901216  30.4742980  32.5791097  37.0163393  30.2650142
   4.8307770  57.5006533  26.2513995   4.5086926  56.9314194  25.5524921
   5.2368641  58.2363605  25.7930803  41.1941367  16.1537199  15.4627526
  41.1559432  15.9935026  16.4056742  41.0904699  15.2877741  15.0682688
  68.2356184   0.8327417  14.7431815  68.4602302   0.3885584  15.5607867
  67.4501818   0.3817110  14.4335139  11.7819405  72.4313593  38.6979723
  12.4476123  71.7963314  38.4336877  10.9494293  71.9966698  38.5130358
   9.1989607  61.9136810  51.5094042   8.9055657  62.7905607  51.7568636
  10.0817049  62.0452213  51.1634398  16.1508708   7.7952890  13.2699442
  15.2073806   7.7549581  13.1136394  16.4102107   6.8840532  13.4063900
  49.1264837  74.3319781  11.6507850  49.4681423  74.5984729  10.7972656
  49.8732369  73.9269431  12.0918499  19.0504634  59.6359777  18.2899725
  19.2221296  59.4632149  17.3642755  18.9561975  58.7679148  18.6821616
  39.3591642  62.6074743  30.0594068  39.0982771  63.5119772  29.8860693
  38.9226770  62.3857355  30.8819270  21.2247324  56.3963032  10.1430857
  21.2122917  55.5756044   9.6506119  20.3171253  56.5237093  10.4192197
  56.4572668  58.4863949   7.2933471  56.2258005  58.5042143   6.3647258
  57.0962191  59.1919041   7.3945045  15.0151765  58.6460304  54.2602062
  15.1542974  59.5461988  53.9659643  14.4198728  58.7269306  55.0053930
  46.3020802  56.2303066  15.6964719  46.8954849  55.6815672  16.2092936
  45.8220816  56.7394352  16.3496315  16.2120032  41.7490816  66.2767315
  16.7057896  41.1199856  66.8026972  15.6812787  42.2286987  66.9127560
  75.1580384  59.3412447  29.0339088  74.3934181  59.6847057  28.5717154
  75.8855024  59.4759083  28.4265423  47.8706217  63.1252098  33.3946204
  47.0696640  62.6596785  33.1538248  47.6324320  64.0511703  33.3488512
  33.8791537  47.0467997  21.2410879  34.0711427  46.2322855  20.7763910
  34.2232656  46.9061375  22.1231508  31.3646936  65.2157927  21.2410378
  32.1720195  64.7666597  21.4915085  30.7120609  64.5183563  21.1787009
  15.0624573  45.7981205  25.6137896  15.8412158  45.7458448  25.0596833
  14.8609149  44.8877430  25.8301735  37.2222519  63.9225388   9.8014164
  38.0051780  63.4827089   9.4700438  37.5476098  64.7416878  10.1747370
  34.9850845  68.9864492  11.9398487  34.7923279  69.4373894  12.7618778
  35.8104777  69.3703461  11.6439068  63.8215464   6.7553453  20.1334357
  63.7494271   7.5909452  19.6721327  63.6822360   6.9772081  21.0540867
  32.9239321  74.6260309  35.0693369  33.1363845  75.3998613  35.5911398
  31.9795656  74.6862411  34.9251795  33.7936425  60.6632948  62.4549675
  33.2480359  59.8918200  62.6078463  33.4036946  61.3447475  63.0025005
  65.8118582  64.5173407   9.8652422  66.5849400  64.8631239  10.3113496
  65.0779438  64.9925566  10.2548182  27.6697707  63.2835150   8.6460894
  28.4034371  62.7842760   8.2873052  26.9254827  63.0465889   8.0927968
   6.3042426  60.5674505  15.6062615   7.2316617  60.7031393  15.8004653
   6.2962687  60.1932335  14.7252798  84.2102370   7.3255603  63.5797413
  84.8491225   7.8512971  63.0984296  83.7811217   7.9482190  64.1665902
  29.1226196  33.6419344  35.8757162  29.2369390  32.7606940  36.2314892
  28.1890869  33.6987209  35.6719422  22.8558397  64.8602247  42.3495960
  22.7225018  64.2717600  41.6065216  21.9854999  65.2128601  42.5350380
  44.5714133  23.5946493  22.3377109  43.9952069  23.8454752  21.6156960
  44.0395623  23.0085306  22.8760695  44.7251993   7.9877691  21.5894914
  44.0473109   8.6523085  21.4666557  44.6530347   7.4264650  20.8175063
  17.4596202  27.7951384  19.5524502  17.9302394  27.5212121  20.3396702
  18.1298137  27.8208375  18.8695061  18.4179011  12.9716139  52.0397663
  17.7007571  13.3537321  51.5338755  18.0071583  12.6768618  52.8525686
  59.1424704  65.7633018  32.6476502  59.5405197  65.8719015  31.7839408
  58.2656860  65.4247141  32.4664402  55.9730714  20.5031996  50.3880596
  55.4473203  20.1401548  51.1008120  55.5605691  21.3440351  50.1904106
  37.0904827  52.7587652  40.2173853  36.9283724  52.0766020  40.8690023
  36.6148567  53.5217047  40.5459261  73.6883208  24.7455709  50.5773558
  74.4479153  25.0338857  50.0712695  73.0230531  25.4137628  50.4125108
  58.3071280  54.5885372  12.2358334  57.5847483  54.4443274  11.6246033
  58.0917168  54.0450096  12.9937327  66.7629336  42.6735080   6.0689626
  66.9031333  43.0965770   6.9160686  67.1945129  41.8231261   6.1515985
  14.1784322  48.1734324  16.8356085  13.6919200  47.3784399  17.0536041
  14.9975979  47.8562403  16.4553607   9.1852546  66.6828251   5.7902724
   8.8767213  66.7377806   6.6947168   8.4953326  66.2044430   5.3305024
  32.3270512  67.1235323  42.9352999  32.7748251  66.3862133  42.5204563
  31.7340946  66.7183256  43.5681057   9.4028909  42.4918143  36.4130201
   8.8761932  42.8652064  37.1196999   9.4170482  43.1720416  35.7397284
   3.4327674  55.9328270  46.5341949   3.6299792  56.1686134  47.4406958
   2.7734241  56.5698433  46.2590361  50.1031971  78.5832739  14.0207148
  51.0461140  78.5775614  13.8560915  49.8352337  77.6710176  13.9101923
  24.2320418  66.4246416  70.5198336  23.9741158  65.7711506  71.1699533
  23.5822797  66.3380003  69.8223114  78.2207355  33.8345353  69.1780424
  78.0179748  33.5030095  68.3032786  77.8144285  33.2044236  69.7731081
  49.5312786  65.4943323  42.9299355  50.4241610  65.7019424  42.6544523
  49.3910933  66.0294867  43.7110853  40.1865578  74.5170689  26.0203528
  39.2589664  74.7532415  26.0149622  40.1899529  73.5599804  26.0344791
  33.7971830  71.3664627  14.4548273  34.4445014  71.2545252  15.1510179
  33.0972052  71.8793440  14.8588240  23.0122876  63.1235743  26.4485240
  23.8056421  63.1710577  26.9819736  22.5315547  62.3743629  26.8003964
  17.2379548  46.6201369  69.1604281  17.6242835  47.2153155  69.8028826
  17.3820550  45.7471721  69.5256509  19.9866366  79.5814896  28.0833602
  19.6690845  79.3789768  28.9633489  20.7487345  80.1425743  28.2269669
  56.9105833   4.3584471  46.6532230  56.6548651   5.0708227  47.2391987
  56.1001080   4.1125231  46.2072611  81.6498699  63.9320326   6.8903589
  82.0451036  64.7647238   7.1485209  82.3731929  63.4296656   6.5153122
  47.0772552  64.6985197  22.7383113  47.9008389  64.6032047  23.2167006
  47.2068262  65.4724884  22.1902108  15.3672338  50.9549904  11.3034391
  14.9275172  50.2161169  11.7240918  16.1583292  51.0912991  11.8248022
  13.8967454  51.4654589  -0.0927421  14.7623467  51.5728092  -0.4870049
  13.8611925  52.1329212   0.5924311  28.3808637  52.1994257  22.0110154
  29.1038775  51.5930223  21.8505239  27.6755953  51.6472626  22.3485780
  84.1990337   5.0568931  51.4671184  85.0617752   4.6654670  51.3304033
  84.2621789   5.4832665  52.3217823  24.4425106  59.3707275  31.8797159
  23.7611270  58.9284658  31.3734055  24.2107892  59.2008352  32.7927732
  77.5166934   5.5383997   4.7380263  77.0349544   5.9008818   5.4815096
  76.9720119   5.7417040   3.9776191  41.7191172  81.2495995  31.9764328
  42.5859642  80.8545303  32.0698643  41.1754894  80.7881069  32.6149654
  33.5349664   4.9243848  69.8336863  33.5613904   5.8306615  70.1405979
  32.9066095   4.4935100  70.4131204   8.2649088  65.4419470  30.5984974
   9.1805440  65.7163811  30.6488037   7.8611290  65.8096457  31.3846231
  25.9712219  72.9471636   8.9750737  26.6719961  73.0292320   9.6219218
  25.9065199  73.8168097   8.5804087  18.7581372  48.3411884  25.7774615
  18.2795405  48.3880758  26.6050959  18.2846880  47.6868391  25.2637458
  76.4453134  21.3273541  69.4918467  76.9072709  21.5677278  68.6886983
  75.8754477  22.0747439  69.6732088  60.6756449  56.0394239  28.0199456
  60.8342266  56.2339878  28.9436507  61.3014889  56.5892363  27.5484991
  23.8879633  61.1066771   1.6923794  24.1321778  60.4631519   2.3575607
  24.0339398  60.6576586   0.8597286   8.7467116  53.4765434  64.2786884
   8.6569297  52.8928900  65.0320244   8.0956137  53.1607723  63.6521149
  27.9811025  59.6733093   1.1450408  27.3248506  60.1164865   1.6827774
  27.4715185  59.1226530   0.5506228  47.0247357  17.0720224  29.1251206
  46.5931695  17.5518732  28.4182072  46.3194364  16.5811377  29.5467997
  58.4309724  52.0528936  68.1178570  58.0681899  51.2797832  68.5501957
  58.5998132  51.7679882  67.2197723   6.2787551  40.6325006  42.2566032
   5.8091068  40.9644890  43.0217457   6.1310983  41.2930202  41.5797424
  55.5694723  74.6702099  39.8524547  54.6648884  74.6331453  39.5416689
  55.7160616  73.8190031  40.2649927  31.0400224  28.2792592  26.8385816
  31.2624002  28.5816050  25.9580326  30.9323788  29.0827012  27.3476267
  53.4508133  68.3100748  52.9941082  52.5818110  68.2674313  53.3931684
  53.5891819  67.4367189  52.6275921  49.2337942  39.7778463  14.4712591
  48.6530018  39.0209889  14.5491922  48.7869406  40.4733467  14.9537838
   4.8235589  70.2140188  28.4817147   3.8671729  70.2525902  28.4733772
   5.1009119  71.0872078  28.2045078   0.8961535  40.6428194  38.8089395
   1.3341418  41.0239124  39.5699692   1.3488500  39.8121333  38.6631298
  34.3303561  76.5164137  40.0911140  34.9171019  76.8715429  39.4233990
  33.8203526  77.2703457  40.3872919  53.6142056  26.8890696  27.5103498
  54.1120761  26.0734014  27.5654817  52.8141110  26.6501455  27.0423794
  63.1806868   9.8080854  32.8017497  63.2605045  10.7445841  32.9829717
  63.8769501   9.6260672  32.1706247  13.0394530  50.2073574  28.9346290
  12.2301877  50.3506947  28.4439397  13.7204719  50.1567316  28.2638955
  77.4465316  15.6461267  41.1111641  77.2896188  15.0683527  40.3643131
  78.2970183  16.0462027  40.9299374  44.9353438   6.9380693  12.4656153
  45.2978974   7.6713686  11.9685590  45.5409103   6.2150698  12.3019314
   3.9171371  43.6508703  23.4935808   4.1980493  43.1141329  22.7524781
   4.1730765  43.1460810  24.2655349  19.2884028  46.8945360  34.8911858
  19.8954070  46.2287760  35.2145147  19.4052184  47.6346731  35.4868197
  17.8914642  79.7691774  47.5986433  17.4794912  79.9503326  46.7538404
  17.8438914  80.6001282  48.0713987  15.0765371  61.7262983  55.1298380
  14.3179536  61.7398453  54.5462275  15.4748547  62.5903463  55.0249910
   5.6472874  59.2449236  34.4391799   6.0268396  60.0281477  34.8375893
   5.8022320  59.3543673  33.5009646  18.8145185  44.1464520  10.8913374
  19.2428911  44.8919821  11.3119495  18.8332617  44.3551064   9.9573439
  57.3589271  15.6289892  52.5888634  57.2379106  15.4604464  53.5233021
  56.7856234  14.9968939  52.1552563  39.4727898  76.1221457  32.4803233
  39.1726875  76.3221550  33.3669829  40.3090096  75.6736183  32.6059651
  49.6904278  59.2334175  29.1139007  48.8551378  59.6958828  29.0457511
  50.2558231  59.8309898  29.6032500  19.5025134  41.3113117  34.5394230
  18.9411092  42.0824528  34.4594193  18.9605200  40.5869818  34.2266607
  52.2434664  78.8001108  23.7762761  51.3519096  78.5972595  24.0594935
  52.1391821  79.1573763  22.8943944  57.5980418   6.4812593   1.3648795
  57.0243185   5.9537153   1.9205518  57.4885934   7.3755007   1.6882679
   0.8069476  67.7901840  30.3723359   1.6200157  67.9253674  29.8856354
   1.0881442  67.6672745  31.2790084  41.8098354  59.6346569  52.2848845
  42.0181942  60.4922819  51.9143438  42.2031164  59.6487856  53.1574440
  44.3786161  10.0460749  57.6383018  45.1230698  10.2014475  58.2195759
  44.4139927   9.1084032  57.4492168  49.1040342   5.4554586  59.5572853
  48.4195571   4.9284296  59.9695492  49.9089425   4.9579077  59.7015095
  27.0721388  81.2346840  34.6568537  27.4507904  81.4787483  33.8122916
  26.2879467  81.7781544  34.7337794  79.2542308  13.4945707  26.0157776
  79.3431895  13.8623743  26.8950009  80.1364844  13.5390406  25.6471539
  77.1369776  53.2551813  39.3464684  77.6891687  53.2068634  40.1268435
  76.6544678  52.4284983  39.3429255  62.0623805  41.7206824  13.5702930
  62.4770452  40.8655703  13.6845909  61.8083836  41.9838679  14.4548545
  25.6711459  68.1774426  26.9153166  25.9711552  68.9970589  26.5223026
  25.4552531  68.4098101  27.8184390  13.6981225  51.2778759  16.3531518
  14.6117461  51.5205288  16.2026823  13.7311423  50.3479671  16.5776718
   8.6040249  16.8593149   6.2988716   9.2075100  16.6089945   5.5993187
   7.9227581  16.1872034   6.2793839  40.5485201  69.2694330  29.9660134
  39.7611737  68.7991428  29.6918964  41.2709761  68.7666988  29.5897794
  29.2393970  76.4504337  42.2620106  29.0469861  75.7006598  41.6989374
  29.0581036  77.2141457  41.7141819  64.1149959  28.5690324  66.9770865
  64.4886974  28.4928577  66.0991477  64.6887836  28.0372111  67.5286012
  20.3080821  65.8521128  27.3792958  20.7762933  65.8346891  26.5446067
  20.9183955  65.4610872  28.0044723  40.1410437  70.6784582  23.7480927
  40.5554104  70.0684738  23.1378055  40.8321667  70.8990383  24.3725324
  39.9490428  52.3045588   0.6213758  40.4871368  52.0163298   1.3586733
  40.2699804  53.1835413   0.4198176  25.8238888  62.9497242   3.9074761
  25.3952670  62.0968628   3.9791945  26.3881874  62.8702688   3.1383958
  27.8006577  57.5582838  62.0398331  28.3991289  58.2352924  61.7240429
  26.9927955  58.0291939  62.2443628  45.6923676  40.7113838  14.4753885
  45.4970217  40.1384211  13.7339151  45.5946255  40.1497602  15.2443218
  65.7553809   2.0306711   3.5216150  65.7654374   2.3768835   4.4139513
  66.5216845   1.4587431   3.4779581  40.3253334  14.5117216  62.0189667
  40.7776790  14.2889147  61.2053490  40.1903670  15.4579096  61.9666004
  48.8876581  76.1541653  50.0519753  48.3174276  75.9871387  50.8024216
  48.4465265  75.7288599  49.3166161  34.3079376  50.0922489  31.3091898
  33.6695790  50.1597929  30.5991411  35.0386071  49.6047497  30.9287977
  65.3167205  11.8140328  10.0114475  64.8154865  12.6278603  10.0632034
  64.8767851  11.3046563   9.3308483  34.9121618  63.7315273  27.4301052
  35.7430768  63.3098125  27.6491261  34.6027541  63.2629299  26.6549182
  12.8164085  41.8388236  21.6785370  12.7949651  41.2903178  20.8943687
  13.4796270  41.4328635  22.2367130  17.6365960  57.4658680   0.4976994
  17.1605587  57.6846838   1.2987871  17.7797365  58.3083487   0.0664530
  26.7505217  74.0936184  66.2519598  26.2254190  73.3151865  66.0661077
  27.5266457  73.9963102  65.7002401  72.7491739  48.8685846  34.9603891
  73.5316005  49.3733740  34.7385073  72.1407678  49.0416670  34.2419767
  79.2579093  80.0000191  41.2673616  79.6110466  79.6324778  40.4571533
  78.3435109  80.1957989  41.0629654   3.2936919  75.2929258  37.6216102
   4.0143836  74.7812366  37.2541690   2.6434025  74.6396875  37.8797579
  85.0439494   2.1681719  36.8476033  84.3473666   2.5507097  36.3140678
  84.6348470   2.0106916  37.6985240  40.5628729  47.3133373  34.9337482
  40.7452679  47.6850176  34.0707183  40.3689051  48.0715036  35.4849195
  31.5039420  45.3854275  32.7427864  32.1009374  45.5931377  32.0239782
  32.0314550  44.8663759  33.3498621   2.4624982  46.7162371  31.6080928
   1.8936591  46.6152906  30.8449006   2.1985100  47.5510931  31.9948220
   2.4788699  28.3770418   9.7160858   1.7067243  28.8366199   9.3862212
   3.1236619  28.4570003   9.0131760  83.5059962  25.1190154  52.4599530
  83.7034926  25.7761352  53.1273498  82.6436171  24.7822969  52.7031674
  32.9837060  59.4515896  15.4870224  32.3270798  58.8323498  15.8057988
  32.4740744  60.1857758  15.1442683  39.8020267  57.8783798  51.0833931
  40.5728006  58.1581020  51.5772486  39.5902228  58.6269665  50.5257273
  12.1166551  43.3081007  33.9703417  11.7694342  43.8333511  34.6913004
  13.0635333  43.3051825  34.1104984  34.4974208  60.3043985   5.9054995
  34.4133663  59.4573164   5.4677504  35.0812864  60.8095264   5.3396553
  85.7174342   4.5201426  40.9551668  86.1331695   4.6918802  41.8000937
  85.2097362   3.7210112  41.0960579  69.0584844   5.6237345  20.8708620
  68.5551446   5.4878073  20.0681138  68.8676756   6.5271692  21.1231184
  78.1540387  18.0256586  44.2377043  77.4104684  17.9141550  43.6453342
  77.7802461  17.9241400  45.1130390  39.3190675  12.6244860  28.6942959
  40.0006025  12.3683863  28.0728841  38.9462864  13.4248285  28.3245373
  57.4615639   6.1937456  27.9030657  57.9787057   6.7013006  27.2776127
  57.0995563   6.8477182  28.5009861  30.2292728  74.5752001  35.5326796
  30.4842830  74.3812513  36.4346695  29.2723870  74.5537138  35.5444169
  36.8486028   3.7185316  24.0756750  37.1319967   3.4288149  24.9428463
  37.0025533   4.6632700  24.0766096  23.2740545  79.7752333  33.7024689
  23.9539337  79.1195488  33.5473204  23.3888197  80.4110050  32.9961729
  52.2555399  63.4600067  -0.3734959  52.9434633  63.9100218   0.1168920
  51.8224812  62.9054117   0.2754353  38.7003016  74.0373755   7.5902593
  39.5009232  73.5143661   7.5489968  38.6836338  74.5156193   6.7612618
  14.4478154  53.8764048   1.3835391  14.1357768  54.5759296   0.8094890
  15.0019944  54.3218040   2.0244271  78.6279529  10.1952772  28.1131196
  79.0274375   9.9903898  28.9585018  78.3167880   9.3518000  27.7845478
  78.6722061  64.4770718  43.1928396  78.6047676  63.8721180  42.4541140
  79.5957425  64.7278357  43.2135248  35.3376811   5.1979666  47.6122189
  35.5666011   4.4973116  47.0015526  36.1765485   5.5949049  47.8466749
  45.0027709  27.1820669  61.5562487  45.3920954  27.2362833  62.4290133
  45.5940907  27.6874094  60.9983921  30.1134777  40.0856304  23.7329960
  30.5741453  39.5738935  23.0680609  30.3490853  40.9935665  23.5422611
  33.4331036  55.8503866  32.3642302  32.9684496  55.1246595  32.7809453
  33.6433530  56.4450884  33.0841994  60.9529846  15.3083162  38.7711406
  61.0580438  14.8753862  39.6183491  61.4509838  16.1215239  38.8543391
  56.3634747   9.1589861  24.8140883  56.9613736   9.2523127  25.5557346
  56.7504137   8.4649878  24.2803550  36.7651700   4.1952162   6.0498923
  37.0780259   3.9121275   5.1906973  36.0845732   4.8398905   5.8564925
  12.3803139  54.9002028  21.0891628  11.8789566  55.1612282  20.3166723
  13.2640159  55.2285480  20.9233546  17.5349179  55.1580267  19.9328637
  17.2330370  54.5518331  19.2563868  17.5188151  54.6436148  20.7399273
  45.9344666  13.3538561  22.3035383  45.7460397  13.6740141  23.1857109
  45.7015234  12.4258261  22.3306966  70.1106351  27.9751520  24.5679188
  69.1949790  27.7439718  24.4118357  70.5799668  27.1424799  24.5167446
  31.8910432  78.3462238  39.6951413  31.3025498  79.0595102  39.9423909
  31.5673971  77.5887680  40.1827288  22.8331566  49.6268702  19.8637187
  22.6802611  50.1703024  19.0907121  22.0721793  49.0475988  19.9035883
  60.8443499  78.9985371  41.1293983  61.3423491  79.5212078  40.5008698
  60.0387096  79.4960594  41.2695599  77.1438783  10.4931002  47.7945995
  76.3968795  10.6746416  47.2242785  77.7446454   9.9862127  47.2483587
  42.8019619  68.3768797  41.1781645  42.0785379  68.0189800  40.6635809
  43.5300159  67.7765179  41.0177231  65.4900973  12.6481085  25.3223991
  66.2040728  12.0112734  25.2921367  64.7577827  12.2075682  24.8912644
  52.2063017  68.1639528  33.9705539  51.7288017  67.7828646  34.7074389
  51.7610025  68.9939547  33.8001299  74.4908183  37.5431089  39.2799973
  73.8850301  37.9685907  38.6731887  74.1035502  36.6827040  39.4411254
  14.2734194  66.4630985  31.8487477  13.7313151  66.5300083  32.6347971
  13.6690092  66.6316605  31.1259007  46.8823338  71.9990635  11.6117954
  47.4996185  72.6624441  11.3033938  47.3254919  71.1661053  11.4504814
  23.9254642  60.4105473  34.9702501  23.4199643  59.6395445  34.7128415
  23.8006783  60.4735661  35.9171867  55.3354662   9.7474699  32.3569775
  55.9553116   9.0183859  32.3358107  55.3930920  10.1362543  31.4841866
  11.2188196  58.4530878  31.5760064  10.6615150  57.7562761  31.2294507
  11.9441509  58.5112762  30.9541202  79.3481868  12.6645212  18.9828277
  79.1402429  13.1239252  19.7964287  78.8205951  11.8665724  19.0167630
  55.8620977  74.5056486  52.5454855  56.3428926  75.2946377  52.2953606
  56.3374090  74.1657734  53.3036423  25.3812194  55.3495121  16.7860079
  25.0262570  55.0993061  17.6390207  25.2041745  56.2877893  16.7187810
   0.9475842  16.2614183  32.2196078   0.5210486  15.8329229  32.9616928
   1.3400069  17.0510035  32.5921464  54.5216339  20.1692038  12.7908516
  55.1777690  20.6331091  13.3109534  54.9596780  19.9876814  11.9593477
  73.2537079  81.9061756  52.0545387  72.4941063  81.4404392  51.7047977
  73.1391191  81.8721485  53.0042458  86.4649068  17.8177083   1.7762075
  85.8989559  17.3136771   1.1915002  85.9561239  18.6010039   1.9855486
  38.7237883  71.0155201  17.4817848  38.3729434  70.8516121  18.3571565
  39.1085291  71.8901968  17.5378656  59.8339098  21.8721609  30.8622980
  59.0267532  22.3195772  31.1163664  59.7618239  21.0042124  31.2594008
  65.2218574  10.5768137  27.9093671  65.7751554  10.8104067  27.1640301
  64.4612425  11.1528711  27.8328586  59.4194317  70.2309370  49.4935226
  60.0664949  70.1790142  50.1969719  59.5936203  71.0711861  49.0694094
  75.9237998   4.9227648  11.0968602  75.2607863   4.2817907  10.8403361
  76.5230554   4.9589472  10.3513300   9.1923037   2.3050051  56.8581200
   9.9480811   2.1683340  56.2868452   8.8304272   3.1462030  56.5794420
  19.3586457  74.9281359  20.7350969  20.1742506  75.2828121  21.0889697
  18.6698973  75.4249716  21.1767030  39.2751765  72.9097128  32.2888899
  40.0332403  73.3174276  31.8701530  39.5482159  72.0068216  32.4515724
   5.5684431  44.6382010   7.6236997   5.4259380  44.5934165   8.5691724
   6.2132057  45.3367103   7.5114809  46.0084381  19.8261480  11.5943921
  45.2271881  20.0892096  11.1078870  46.2625542  20.6100206  12.0814157
  59.9437475  75.2800608   5.0444114  60.6539583  74.6942043   4.7824791
  60.3792477  76.1071301   5.2506340  66.1100905   0.0798922  27.0959020
  65.3703301   0.5361109  27.4969649  66.4140599  -0.5247946  27.7727914
   1.8329935  79.7878885  24.7054458   2.7294415  79.8819208  25.0275803
   1.4021032  79.2323494  25.3550148   1.8658549  39.2007510  63.2734438
   1.6680581  39.8844688  62.6334174   2.8220541  39.1633002  63.2961358
  48.7992525  65.5275917  30.7276964  48.6311769  65.8920240  31.5967011
  47.9325390  65.2980614  30.3925037  69.8648112   3.2234220  46.3006639
  69.0186160   2.9289274  46.6374969  69.6775239   4.0654116  45.8856726
  22.7369022  66.4640617  36.1045861  23.1580043  67.2385359  35.7316351
  22.8430915  65.7880163  35.4353213  68.6863678  10.8181601  28.7882066
  68.0145376  11.2779741  29.2916369  68.8213175   9.9976568  29.2623281
  29.5621943  71.5699768  16.3619244  28.9339709  71.9165134  15.7282996
  29.2719793  71.9213676  17.2036684  52.3542881  60.8276701  27.8942823
  52.5139761  60.2805805  27.1252418  51.9015503  61.5977955  27.5505233
  75.3611176   1.3922815   8.1104314  74.7241633   0.7490091   8.4214312
  76.1873763   0.9107714   8.0695546  38.7673497  75.3199577  22.3253274
  38.8491321  74.3665886  22.3505139  38.5496950  75.5655193  23.2245255
  28.6375475  70.9635592   8.6449629  29.4274807  70.4771090   8.4091586
  28.8568616  71.8778849   8.4656948  54.8804379  78.4494829  49.5955467
  54.0542030  78.4855461  50.0774813  54.8331165  77.6319742  49.0998936
  38.3802676  64.5603228  22.6106071  37.9906678  65.1137447  23.2874870
  39.3221831  64.6097183  22.7736664  66.1469858  39.8711710  22.2487545
  65.8834522  38.9644556  22.0917439  67.1036428  39.8502092  22.2242737
  28.5078955  69.8045874  24.2343926  28.6725020  70.7475090  24.2280054
  27.8251863  69.6851015  24.8945904  50.8176184  69.4795561  26.0632753
  51.2040997  69.5101786  25.1881027  49.9066925  69.7427273  25.9321737
  69.5344251   0.8551722  61.5768194  69.9114411   0.2018766  60.9875011
  70.2806180   1.1852865  62.0772696  20.3818948  68.4009997  70.9585465
  20.3967816  67.7949969  71.6993387  21.1816222  68.2031791  70.4711698
  73.5025916  20.2550475  44.8621954  73.7537441  20.8133332  44.1263499
  72.7200231  20.6718461  45.2228846  61.5693140  58.6571264   3.9069518
  61.5792608  58.2789850   4.7862372  61.9021559  57.9594517   3.3424142
  49.2549467  42.8448725  18.4864450  49.7174263  42.4031973  19.1986752
  48.3832741  43.0216932  18.8402152  15.4339695  53.6413383  39.4370317
  15.8888757  52.8824663  39.0717936  14.7819662  53.8712311  38.7750101
  61.1999124  21.1114817  60.4526138  60.5219691  20.8622293  61.0807085
  61.4578193  20.2876692  60.0390530  60.5012768   1.0574369  63.4808397
  60.4173368   1.8714361  62.9842567  60.4187124   0.3663759  62.8236866
  67.1211546   1.3956861  17.4195468  66.2105172   1.5775042  17.6517463
  67.3649829   0.6520586  17.9707181  21.0553551  77.0167971  21.6268277
  20.7751226  77.7612543  22.1592641  20.9827876  77.3270702  20.7242227
  46.8952656  67.3156595   0.1966334  46.6933966  68.1267786   0.6630810
  47.7874756  67.0992947   0.4675021  70.5994027  15.9061747  21.5173411
  70.1728433  15.4566984  20.7877874  69.9428027  16.5270548  21.8329716
  64.3983882   6.0397844  16.4712632  64.6922343   5.8995752  17.3713899
  64.5115774   5.1891832  16.0471165  82.1199029   3.8441019   0.2967982
  82.6915973   4.0713720   1.0301083  81.3204806   3.5165148   0.7089227
   4.5888066  67.1248436  37.0811129   5.1422751  67.0820856  37.8609061
   3.7735403  67.5219345  37.3875308  47.2892857  58.9973021  11.8027270
  47.7856922  59.6381092  11.2936318  46.8409204  59.5169401  12.4699414
  41.5885162  61.8608665  24.9279785  42.4339533  61.9371939  25.3702879
  41.7231655  61.1788702  24.2699647  28.2961350  26.3252954  62.8067398
  28.9830750  26.0776262  63.4256124  27.4916332  25.9747152  63.1889772
  67.9705208   9.8917131  13.5155523  67.7172010   9.3822985  12.7457714
  67.3520320   9.6228533  14.1948307  84.2501443   4.0855055  61.5865898
  85.0455516   4.5487719  61.8491554  84.3552773   3.2053595  61.9478846
  27.1954608  60.4859257  23.3346224  27.5334954  59.5944405  23.2496190
  26.5483427  60.4306698  24.0377712  51.5776961   6.4885454  46.7987347
  52.5200003   6.3222914  46.7731857  51.4220660   6.8514376  47.6706982
   5.1368370   2.6397638  52.7683878   4.3180504   3.0691557  52.5205040
   5.0167456   2.4085741  53.6894512  32.0908403  81.1557388  48.0138159
  31.7177105  80.6683254  48.7482786  31.8189979  80.6652737  47.2380733
  82.5216198  68.2638359  19.7516215  82.0716572  67.7687073  19.0670717
  83.4516525  68.1055164  19.5897150  61.4888477  72.7671146  33.8189244
  62.2300673  72.1882629  33.9971256  61.3532352  72.6985836  32.8738594
  34.3020780  72.2221438  46.0686578  33.6268146  72.8978889  46.0085120
  33.8153178  71.3981692  46.0878267  72.8961127   9.7462873   6.3755322
  72.0092242   9.8341684   6.7247242  72.9409974  10.3920870   5.6704402
  50.2929878  81.1787415  40.8677387  50.8324051  81.0064507  40.0960064
  50.2288103  80.3317642  41.3090420  13.8587105  50.0271416  61.3842821
  12.9930484  50.3519726  61.1366034  13.7041616  49.5144558  62.1776962
  44.0991783  65.2172279   5.1579040  44.0943766  65.6163645   4.2879027
  43.2970333  65.5356359   5.5719274  44.0181416  15.7197027  49.2368889
  43.3822470  16.1928873  49.7735167  43.7545591  15.9035139  48.3352423
  68.0582064  32.7091150  45.7411671  67.3612087  32.2579699  46.2175083
  68.8123029  32.1234255  45.8085918  10.5973947  64.0426207   1.3082452
  11.3040411  64.5244503   0.8784531  10.6590438  63.1570387   0.9502193
  61.8469763  69.2524195  46.9451618  60.9709978  69.5463181  46.6951323
  62.0964289  69.8297501  47.6667595  55.5662394  71.9933033  26.1154437
  55.0097942  71.8244553  25.3551197  56.3647890  72.3724937  25.7483459
  28.0468693  38.7853174  28.4845304  27.1838036  38.9734011  28.1157804
  28.5899010  38.5710268  27.7259636  57.4752426  77.4860716  28.6016941
  57.2908068  78.4241772  28.6483049  58.3057117  77.4284315  28.1292200
  30.8493137  67.6039696   3.2138860  29.9297547  67.5180197   3.4653875
  31.0800838  66.7477655   2.8534776  56.4420813  20.6627207  43.2211685
  56.0914367  20.5773382  44.1077280  57.3493760  20.9400778  43.3481312
  51.7340088  67.1911001  41.7877579  52.2095108  66.3820648  41.9764280
  52.1878958  67.8606081  42.2995949  57.1695185  64.9255800  38.5240173
  56.5378237  65.5404854  38.1510782  56.6318130  64.2306948  38.9038038
  53.9972609   0.7837324  33.6027265  54.3986910   1.4793806  33.0819869
  53.1680553   1.1566954  33.9019871   5.8784860  52.4310684  33.5097241
   5.8096570  51.4894867  33.6675811   5.4193807  52.5692225  32.6812482
  43.3561712   3.6825209  44.6300507  42.7648395   4.3396025  44.2628908
  42.9585641   2.8442411  44.3946218  66.0405254  75.1287127  40.1317596
  65.5768013  74.9826717  39.3072176  66.9027090  75.4501104  39.8679876
  58.4068697   8.2786398  40.8123922  58.7835043   8.8614588  41.4717054
  57.4770062   8.2342176  41.0351229  61.9084423  17.7829485  38.5179329
  62.5846189  18.1612711  39.0799713  62.3285382  17.6975565  37.6620913
  59.4725704  65.3098679  16.5791559  58.8222027  64.9965715  17.2077227
  59.0784597  66.0943079  16.1976290  73.7776232  73.8431406  61.5192127
  74.6392679  73.4326124  61.4466619  73.4557629  73.8851881  60.6187296
  51.9789600  74.6479177  37.0091653  52.5004339  74.2529964  36.3103557
  52.0073414  75.5873013  36.8275404  41.3828659  76.8657446  51.3133144
  41.4585543  76.0308266  50.8513403  41.2461472  77.5115013  50.6201077
  73.8266938   3.6148863  18.3608270  73.0156320   3.9678984  18.7265944
  74.4366639   4.3524294  18.3747613  77.6073735  26.6021280  29.8626685
  78.2242387  26.9702082  30.4953003  76.8939298  27.2391729  29.8252797
  55.8185571   1.3487940  65.7858181  56.2382715   0.9351282  65.0315285
  55.2538317   2.0220594  65.4063034  58.3866644  72.4929857  13.8839710
  57.4746704  72.7207756  13.7033916  58.8923311  73.0217934  13.2668066
  47.2690552  14.2438345  34.6606684  46.4088946  14.6628218  34.6323204
  47.8742927  14.9536924  34.8751974  20.1486874  69.0171576  62.1967173
  19.4336188  68.4487104  61.9107485  20.1674795  68.9179754  63.1485796
  27.8076681  49.3137706  29.7687946  28.2949813  49.5359195  30.5621372
  27.2774299  48.5566581  30.0175129  77.3152297  12.0230703  30.0064516
  76.4462798  11.6417150  29.8810315  77.8350251  11.6786890  29.2801976
  27.9172373  42.2712564  32.7266908  27.0767498  42.6525259  32.4728346
  28.4479094  43.0203152  32.9978442  31.8730140  78.9736795  26.6644287
  31.2826562  79.7253847  26.6129160  32.3865938  79.0167618  25.8578205
  26.4709761  18.0066233  63.1072235  27.3818266  17.8751593  63.3704758
  26.3012334  18.9316111  63.2855606  13.9956033  72.2048283  13.9659750
  14.5325744  71.4416075  14.1790223  13.2400298  71.8441200  13.5020447
  18.6814570  81.6032791  57.9911470  18.7130237  81.1578751  57.1444750
  18.0361164  82.3000050  57.8713417  81.7140573  35.6326513  24.1573477
  82.4535077  36.0597925  24.5897675  81.4411586  34.9489622  24.7691774
  50.1431411  10.9699278  30.0023079  49.7252005  10.5978422  29.2257071
  50.7950752  10.3178053  30.2591157  34.9154878  45.8750486  18.9063430
  35.0660658  46.4856482  18.1847274  35.6834054  45.9750986  19.4689465
  30.7097650  58.1646776  34.8350859  30.7384539  57.3051834  35.2554154
  29.8936129  58.1595993  34.3349838  60.9923761  13.6787920  20.7376814
  60.1755612  13.7371473  21.2333035  60.9959834  12.7886038  20.3858662
  10.2303290  72.4799204  29.4125676   9.9047369  71.6309214  29.1135216
   9.5062876  73.0846930  29.2505622  41.3632923  17.2802191  49.9499464
  41.3036793  18.1600790  50.3221226  40.5170386  16.8788176  50.1473475
  51.9645160  72.0543893   2.7030216  51.2876933  72.6118525   2.3191248
  52.5481050  72.6633461   3.1556020  41.9945374  11.0270243  50.9637594
  42.2585621  11.9173174  51.1959124  41.8316307  10.5986910  51.8041325
  85.4812040  80.3324127  62.2320080  85.2198126  80.8002663  63.0251122
  86.0580986  79.6353340  62.5442743   9.6657887  30.5679731   3.7577945
   8.8280049  30.1116972   3.6792681   9.7214880  30.8090143   4.6824712
  30.2840042  53.4682417  20.0375867  30.8336878  52.8531504  19.5520496
  29.5243216  52.9509497  20.3050327   6.6530457  44.6225290  20.9650660
   7.0182171  44.1177397  21.6917491   7.3729124  45.1844053  20.6781340
  85.7006877   5.5342131  20.7444072  85.0909465   5.9121828  21.3781214
  86.4565652   5.2687578  21.2682462   3.4549457  74.8648548  13.9062214
   3.2788718  73.9441061  14.0997541   4.2475191  75.0668049  14.4034886
   7.5829640   9.4015245  43.3790398   7.7892437   8.5524397  42.9882240
   7.6736298  10.0251799  42.6585770  59.3149846   9.6730070  43.5102701
  59.6804493  10.1083021  44.2804527  59.5944350   8.7614565  43.5951900
  70.2919906  28.3300524  57.7231312  70.1877587  29.1900473  58.1302786
  69.7282403  28.3610754  56.9501781  31.9592514  38.8767748  16.1292660
  32.3107090  39.7654276  16.0744226  32.7231541  38.3275347  16.3053870
  70.2606195  17.9686098  46.7343044  69.6972745  17.6687841  46.0208750
  71.1359733  18.0057936  46.3488197  61.4690828  71.3299561  58.8577938
  61.1609983  70.4368019  58.7041903  61.6860580  71.3515091  59.7898293
  30.8527025  39.3808806   7.3675666  31.4601119  40.0414145   7.7006946
  30.2323707  39.2431987   8.0834327  36.6624307  10.8598356  43.3755493
  37.4060147  11.2121420  43.8646269  36.9212579  10.9375505  42.4572897
   8.6255670  68.8960934  43.6874533   9.4948488  69.2800426  43.8021898
   8.0366558  69.6486950  43.6326170   2.7425804  28.9162855  32.2391343
   2.9069367  29.8589926  32.2619867   3.6132946  28.5226469  32.1831608
   6.1977043   4.2405157  19.1541529   7.0293990   4.2033987  18.6817741
   6.3296309   3.6763601  19.9160957   8.1460007  68.2384456  13.5968910
   8.8138827  68.6781085  14.1230617   7.4017461  68.8403380  13.6029277
   3.5005751  13.0432348  39.3475056   4.1264239  13.7604551  39.4482350
   2.7085152  13.3530550  39.7866845  59.8477166   5.8126764  49.1137314
  59.6486347   4.9948816  48.6578703  60.6610196   5.6322603  49.5851326
  67.3211186  12.8739004  45.8112383  67.3065274  12.7011614  44.8698711
  68.2505839  12.8760557  46.0399771  27.5642061  74.3765545  15.2111244
  28.0539346  75.1543856  14.9439645  26.7867732  74.3794918  14.6527147
  62.9166835  17.5842981   4.1686735  62.0995515  17.0879011   4.2146993
  62.6385754  18.4944181   4.0658218  54.0245598   7.3288946  18.6708713
  54.1251271   6.3772325  18.6493671  54.7381847   7.6325350  19.2319179
  28.8770700  80.7255650  47.7823591  28.8146162  81.2719059  46.9988823
  28.9176202  79.8298883  47.4471569  52.0475562  61.8129409  20.8331047
  52.9936012  61.9571555  20.8537231  51.8867858  61.1780227  21.5311466
  41.3183546  61.0324097  30.4352713  40.8948565  60.1825094  30.3146458
  40.6616354  61.6693497  30.1537418  72.3356676  80.4937553  38.5747099
  72.6723146  81.2951183  38.1738186  72.6534319  80.5255890  39.4770646
  53.5979652  67.6385117  22.1528268  53.2699347  67.1126270  22.8822589
  54.3218660  68.1411219  22.5264311   3.0849966  58.7949610  43.9266443
   2.8767461  58.8336134  44.8601151   2.6288691  59.5465755  43.5481596
  49.2682856   4.2194490   2.9726887  48.9471393   4.8862486   2.3656607
  50.0315469   4.6211367   3.3877975  35.5795479  56.3018942  30.5841589
  35.6260228  57.2559500  30.5221486  35.0593472  56.1380625  31.3707876
  80.9936326   0.6169062  58.5651398  81.8912023   0.2845697  58.5773516
  80.8040421   0.7606440  57.6379776  80.9657574  68.9251852  51.3111019
  80.4476166  68.1203508  51.3120842  81.2196159  69.0455008  50.3960562
  82.6808017  12.7687387  12.8860199  83.5800546  12.8292208  12.5636578
  82.1551173  13.1986361  12.2114217  52.7532261  15.9442549  40.6119442
  53.3315247  15.3699427  40.1099873  52.1107166  16.2542753  39.9737430
  17.8091135  22.3658304  31.0088062  17.5531187  23.1824999  31.4374638
  17.0983162  21.7569571  31.2095022  33.8806343  81.7953873   6.9237995
  33.2599473  81.9452572   7.6369059  33.8727808  80.8469582   6.7947984
  79.6046019  65.1312780   1.0715263  80.0647545  64.7694302   0.3141912
  78.6768293  65.0339794   0.8570267  48.3022976  71.9977474  58.9341068
  47.4050999  72.3047447  59.0645599  48.8370943  72.5886202  59.4642878
  27.8444409  73.2386589  11.1117101  27.1068931  73.7779522  11.3970530
  27.7830744  72.4468803  11.6460824  53.5701197   2.1505671  40.6168127
  54.2249411   1.4681845  40.7644081  54.0296667   2.9685430  40.8064699
  12.6651609  50.9442472   5.0806999  12.1281314  51.5793228   4.6068728
  12.7289629  50.1951599   4.4882253  47.8042364  81.0000134  44.3075800
  47.1570301  80.6003571  44.8886442  47.9711151  81.8610001  44.6910858
  52.9200933  68.4751861  70.3001554  52.4106995  68.0998008  69.5819377
  52.2633776  68.7697951  70.9311569  12.3497951  60.3344727  50.8752346
  12.9320669  60.6011629  50.1638508  11.7580223  59.6977568  50.4744434
  21.8928456  57.3388004  19.1922641  21.1142302  56.9051981  18.8430095
  21.9787359  58.1352854  18.6683667  82.2928041  11.6532068  31.7627263
  82.1393197  12.5758867  31.9660020  81.9715589  11.1819391  32.5314522
  27.0848012  60.2894735  34.3344164  26.3183045  60.5210352  34.8589110
  27.7296996  60.9659481  34.5411110  43.6543274  60.1167965  23.6504054
  44.1396379  60.5956984  22.9785728  44.0930367  60.3437281  24.4703245
   3.6955395   8.0690603  58.5174274   3.2559767   7.6694899  59.2680073
   2.9826346   8.3933191  57.9671049  50.4824448  70.6732845  41.9934464
  51.2299061  70.3439045  42.4924850  50.8420086  71.3869286  41.4665127
  15.4140520  65.3064108  50.0626421  15.2526200  64.5292759  50.5976486
  15.6245959  64.9605703  49.1952896  34.7327709  81.7023945  59.6451759
  34.5565820  82.4627781  59.0910959  34.3719077  81.9397259  60.4993916
  61.9806140  11.4259176  19.4691741  62.1640699  11.1257772  20.3593922
  62.8315800  11.4107637  19.0311611  17.6260018  77.7490711  43.3143711
  17.3709762  76.9253540  43.7299252  18.0857980  77.4832869  42.5180149
  35.2218080  54.6732521  28.3966279  35.6790948  55.0742579  27.6574945
  35.4177737  55.2454853  29.1385007  60.3823737  22.3047225  55.4741265
  60.0015588  22.2192876  54.6001055  59.6280062  22.3964421  56.0561480
  72.2759860  29.2932253  36.1558366  71.5186399  28.7660723  35.9013462
  71.9531529  30.1943235  36.1508799  37.9978323  54.3070507  22.4636126
  37.1494317  54.2944622  22.9066563  38.1115603  53.4139442  22.1385550
   8.4818640  14.6598654  46.6750813   8.1511298  15.4899816  47.0182419
   9.4246617  14.7973375  46.5831137  65.0801795  26.0107450  25.1720452
  65.4448741  25.6112032  25.9617257  64.6387833  26.8003206  25.4850602
  45.1082182  66.5831566  44.7125387  45.2344513  67.5314188  44.7456741
  45.3752947  66.2755680  45.5787325  55.0806999  80.3837872  55.9589672
  55.6617546  81.1423111  55.9019995  54.1988516  80.7547379  55.9279060
  83.9907830   7.3567896  60.6068468  83.4680646   8.0596189  60.9928989
  83.7445014   6.5754728  61.1019421  85.8200067  21.6815023  40.0086403
  86.0947984  21.1279612  40.7396078  86.5632003  22.2656183  39.8579454
  18.1950274  18.0304651  22.8306270  17.8551569  17.2247534  22.4413323
  18.6184588  17.7451925  23.6402893  59.9516600  18.0868654  43.1057358
  60.4888886  18.8001661  42.7610397  60.5787080  17.4918489  43.5168362
  30.7683411  10.6341009  51.1592913  30.8549919   9.7241049  51.4432573
  31.3260689  11.1269693  51.7611742  55.6666296  19.3538122  41.0132933
  54.9013846  18.8828878  41.3432360  55.9738915  19.8656015  41.7615557
  23.4313145  15.9219198  40.2730083  23.6913243  15.7321291  41.1744595
  24.1815510  15.6490927  39.7448516  54.8436301   3.2911425  22.0903754
  55.1207440   3.3260756  21.1748314  55.2112144   2.4714212  22.4207735
   6.6101828  33.9580851  11.1703968   5.8524552  34.4988756  11.3931811
   6.2721911  33.0625658  11.1655486  25.1950302  46.4099340   1.7823718
  25.6706181  47.1487074   1.4025551  25.2001038  46.5805654   2.7242267
  15.0001333  80.0622177  17.6878369  14.0796945  79.9889135  17.9401278
  15.2381036  80.9626198  17.9089260  33.4850597  64.3445969  36.7707896
  32.8934789  65.0656366  36.9861174  34.1209245  64.3346930  37.4861979
  32.5846764  16.0952311  42.9641151  33.1207990  16.7607050  43.3953333
  33.1694140  15.3439074  42.8649330  80.7195663  67.0376635  63.6045122
  80.7616806  66.9372463  62.6535273  80.1682472  66.3122129  63.8977718
  74.5024150   3.4897070  41.6826391  75.2821820   3.0352907  41.3637304
  74.6929162   4.4176226  41.5451241  56.6511536  81.7635727  36.0473323
  57.1032381  81.5662670  36.8676496  56.2596893  82.6251984  36.1908340
  50.3477669  69.0532494  31.7022824  50.8468914  69.7286129  32.1616197
  49.5441914  69.4947004  31.4272809  58.6885255  35.6688528   9.6028775
  59.4148820  35.6267099   8.9808935  59.0016525  36.2477236  10.2979231
  47.9391909  70.8365965  47.6433563  47.4831915  70.0284290  47.4084759
  48.1028700  70.7548571  48.5829067  67.0625680   3.6447935  13.2355237
  67.8956240   3.2495432  13.4924877  66.7140310   4.0169077  14.0456343
  74.0889686  23.6065130  27.2303319  74.5200150  23.3778315  28.0538225
  73.7696784  22.7718859  26.8872881  50.6988066  11.9421892  53.9754105
  50.3227489  12.0190649  53.0985403  51.3193124  11.2165575  53.9071417
   7.1977955  78.5368347  62.7810240   7.8799981  78.1397676  62.2395706
   6.4345640  77.9727459  62.6564741  56.5642970  12.8623037  36.7411900
  56.1452597  12.0998507  37.1403170  56.8847721  12.5449114  35.8969235
  71.5486234   3.6247473  36.2997055  71.7539971   3.2420950  37.1527195
  71.6150563   2.8927164  35.6865621  52.0384455  77.1113682  36.3071299
  51.4529657  77.6006460  36.8851089  51.4934206  76.8785143  35.5554938
  37.1560097  80.0111580   3.8177153  37.2851801  80.4828167   4.6405685
  36.6399598  79.2424774   4.0607139   3.3134070  29.2992144  16.1057305
   3.0764141  28.7669306  15.3462994   2.4993267  29.7366457  16.3550615
  12.0434609  25.2223139   5.7541972  11.0921994  25.1226263   5.7169002
  12.2884264  25.5132132   4.8757866  74.5249360   2.8428774  25.6200671
  74.7687285   3.2625036  26.4451170  73.6772340   3.2274656  25.3970766
  38.1212282  69.8803186  25.7445574  38.6436629  70.4010773  25.1345515
  38.5495615  69.0243864  25.7565284  36.3733330  24.3720274  52.9561996
  35.5746785  24.3879347  53.4835815  36.2956372  25.1330881  52.3808765
  64.6540277  25.2368097  29.9456906  63.9107483  25.8232908  29.8049760
  64.3449181  24.6113996  30.6010914  25.2400914  27.5789671  25.8786893
  24.4513359  27.8940039  25.4372787  25.4916420  28.2962160  26.4604998
  61.5280240  46.2370424  56.0253334  61.9429629  45.7943087  55.2850294
  60.7412522  45.7214098  56.2023973  75.9887409  72.3094273  10.5189264
  75.4047489  71.8068027  11.0868645  76.6121244  72.7190590  11.1187816
  30.4269719  74.5754719  32.7713251  30.2091503  74.5769930  33.7034106
  30.8080912  75.4391336  32.6130104  82.0337718  24.5547037  11.4433372
  82.3182624  25.3747778  11.0398912  82.7886575  23.9721327  11.3597202
   5.0274265  52.0367384  22.5751877   5.2138752  52.6171827  23.3131242
   5.6970501  52.2520351  21.9259715  61.7892244   7.4161601   9.7945762
  61.1795023   6.6905165   9.6607316  61.5646436   8.0469692   9.1105616
  12.6556158  45.2876282  17.6972425  12.7417219  44.6297884  17.0072675
  13.3631861  45.0863934  18.3096814  24.4371319  15.8135545   9.8199260
  23.9694762  16.5793145   9.4865453  25.1265502  15.6545186   9.1752231
  43.5235977   4.9968687  16.5999377  44.2858124   4.4267640  16.7011416
  42.8180695   4.5363832  17.0542634   7.5648612  18.2439137  41.7350626
   8.1546497  18.9820409  41.8885183   7.5050133  17.8047526  42.5834656
  16.7475080   5.3492701  31.6138101  16.0688567   4.7729743  31.9653058
  17.4747288   5.2669895  32.2307491  12.7910078  15.8121359  44.3208075
  13.6323333  15.3785360  44.4636154  12.9284608  16.3509727  43.5417080
   6.2801749  75.0997413  15.0235772   6.8254334  75.8387138  15.2934754
   6.6433031  74.8296155  14.1801310  74.0660498   6.6159455  60.8940937
  74.8952911   6.5267865  60.4243686  73.3956704   6.4963405  60.2214004
   2.9407459  40.7325602   3.3943999   2.6097447  40.5480289   2.5154126
   2.7575570  39.9353766   3.8915637   8.1035715   6.2520689  27.9513764
   8.4050274   6.8522400  27.2693563   7.3701787   6.7078519  28.3644462
  31.7897344   3.6687261  19.0499544  32.2812176   3.0448222  18.5157073
  32.3801088   3.8826257  19.7724056  22.5951028  26.4141703  17.2177851
  22.4927473  27.0253849  17.9472864  22.1414733  25.6213999  17.5040901
   3.9398956  20.8907914  40.0540924   3.0314553  21.1103463  40.2608871
   4.1105810  20.0883484  40.5472326  11.0356426  40.9206820  30.2026010
  10.2645922  40.4842997  30.5649328  10.6856835  41.5085173  29.5331168
  19.3865705  12.1458745   5.0111878  19.7707081  11.2836838   5.1702380
  18.9937687  12.0762599   4.1410768  62.9867342   4.2614034  36.6882133
  62.7056577   5.0239599  37.1939158  63.3071544   3.6432576  37.3450661
  19.4132900   8.9254349  30.2458096  20.0434470   8.8313222  29.5314717
  18.6164999   8.5077244  29.9188924  13.4431434  13.3261418  11.8551219
  12.6993501  13.1972098  12.4436629  13.4684074  12.5307107  11.3232541
  25.2672791  27.5636959  36.1839342  25.1155424  28.3370519  35.6406784
  25.8821821  27.0325017  35.6780124  16.3034455  79.4052708  63.4111567
  15.6012718  80.0451576  63.2939871  16.3300411  79.2490255  64.3551441
  80.3887084  11.7518640   4.4994068  81.2201085  11.8604410   4.0376541
  80.5470141  11.0336530   5.1120609  41.7077765   6.1368959  44.6923866
  41.6523561   6.8237035  45.3568091  41.8010149   6.6103427  43.8657154
  25.9363198   9.1037738  69.1803646  26.5230131   9.6468502  68.6539745
  25.6848240   8.3878148  68.5969400  20.2214384   7.5874579  19.3172967
  19.6483672   7.1759093  19.9641728  20.1025867   7.0641589  18.5246658
  20.5092692   2.2039825  44.1134310  19.7371757   1.8092267  44.5187330
  20.7710028   2.8961739  44.7205544  82.9986820  37.4996920  18.1138861
  83.4542808  36.6770716  18.2926369  82.0697150  37.2771902  18.1750870
  59.5519881  81.8969475  15.1913071  60.0970435  81.1101151  15.1977384
  58.6547238  81.5671653  15.2402163  18.2389552  79.8321776  20.5156064
  18.0209310  80.6502738  20.0690460  18.7083299  80.1069751  21.3032627
  36.9715953  37.8934431  31.5837407  36.0639977  38.0471063  31.8462038
  37.4036574  37.5898099  32.3820877  17.0450354  41.7432594  14.9700475
  16.1319864  42.0297813  14.9919701  17.5382340  42.5320244  14.7445738
  21.1749172   6.5710586  26.8367004  21.2275696   5.8316439  27.4422789
  21.4339566   6.2064588  25.9904170  30.3339267  48.4762287   4.2428610
  31.1240387  49.0165091   4.2500114  30.5854487  47.6779222   4.7072688
  74.2253396   9.7357099  65.9938307  74.3135366  10.1076619  65.1162739
  73.5336086  10.2538983  66.4051925  11.8415153  26.0950398  29.1366649
  12.7175522  25.7146263  29.0728164  11.9939029  27.0071507  29.3837714
  18.4230900  46.3039160   0.6743103  18.1045043  46.4087725   1.5708259
  17.9985225  47.0087719   0.1852736  20.9947610  18.1710470  24.4029641
  20.3007030  17.8394699  24.9726748  21.5184879  18.7383389  24.9687552
  79.6918330  61.7054720  16.7779541  79.3139467  62.1547837  16.0219431
  78.9401755  61.3188453  17.2271359  36.9429610  78.4207189  54.2264273
  36.2443797  78.4874451  53.5754551  37.5382249  79.1394317  54.0134789
  38.1047426  48.5805535  65.6950803  37.8231810  48.2436019  64.8445399
  38.6885808  47.9045546  66.0391595  20.0259268  54.1409822   8.0668769
  20.7969182  54.3681343   7.5470625  20.3134679  53.4112175   8.6155067
  52.8349331  10.9810364  39.5794630  52.6183584  11.8755841  39.3165731
  52.1384766  10.4447687  39.2005205  14.6924531  43.0416203  35.1436114
  15.5648649  42.6780462  34.9921346  14.3323898  42.5118589  35.8549070
   4.5500523  17.3188007  22.8991461   4.7864401  16.8811738  22.0813227
   5.3577864  17.7459216  23.1843901  28.5308504  10.8387589  37.8628731
  28.7426734  11.6491091  37.3995209  28.7164164  11.0326970  38.7816691
  55.1628304  68.0970907  28.8011384  55.9957314  68.2171822  29.2573023
  54.6270418  67.5893354  29.4105196  68.9805045  33.3373737   5.5039138
  69.7550860  33.8818836   5.6445020  68.4178617  33.5225725   6.2558228
  78.2779280  67.1359908  60.3159048  78.0118815  66.4951741  59.6565093
  77.7922455  66.8864333  61.1020752  26.5314102  20.1648855  33.6428237
  26.5735793  19.7848737  34.5203471  25.9998631  20.9538484  33.7487698
  47.3018127   1.8620329   0.5145251  47.5899308   2.6733808   0.0962595
  47.6997846   1.1675386  -0.0103793  83.9896956  27.9859591  38.2323432
  84.7244817  28.4006882  37.7803230  84.3655633  27.6573348  39.0490198
  23.3936715  32.2825408   2.9712346  22.7871585  32.9411674   3.3097392
  23.6767054  31.7968917   3.7460053  11.9960916  74.0546322   7.4240446
  12.7677655  74.4984388   7.7758819  11.4783227  74.7542000   7.0256096
  79.0386495   1.4150588  62.0816793  78.5620055   0.5858628  62.0432462
  78.7021670   1.8486135  62.8659250   4.3688551  42.8505325  51.8053102
   5.1866674  43.1142044  51.3835335   4.4732457  43.1179333  52.7184534
   6.4481050   8.5192662  16.5724337   6.3906240   8.0784661  15.7247174
   5.5438715   8.7520707  16.7831373  28.9305472  24.8347187  25.6224084
  28.3449817  25.2651215  24.9994349  28.3786082  24.6516252  26.3827181
  47.1974752  20.5159442  56.8249001  47.7442667  19.9604671  57.3805048
  47.2530529  21.3836829  57.2251119  35.6419230  65.8781910  29.4440699
  35.0475264  65.2381468  29.0525723  35.1181436  66.6756535  29.5211649
  44.1834354  67.0755768  22.9152894  44.0375090  66.2523842  22.4491405
  43.8551903  67.7493954  22.3199344  84.1710367  18.6092865  28.1283712
  84.1955390  18.8275695  27.1967149  85.0768756  18.3904517  28.3470011
  30.1435280  21.6942167  13.5227764  29.4793296  21.5144300  14.1881704
  29.6438789  21.8469691  12.7207482  39.4194214  75.5065071  43.5587420
  38.5355715  75.2281701  43.3188071  39.9687246  74.7445070  43.3747496
   2.2630742  14.2106092  34.8772049   2.6297149  13.6761367  35.5815816
   1.7549290  13.5949230  34.3490458  32.0672607  51.5542078   9.9248224
  32.0985651  51.1086369   9.0782297  31.8570352  52.4628973   9.7096008
  29.8011661  21.4146471  38.8873553  29.8787928  20.9413004  39.7156954
  28.9510012  21.8513393  38.9397979  18.7702143  17.6818907  39.7125793
  18.4266770  17.8271401  40.5941248  19.3629813  16.9361961  39.8063803
  31.8118739  45.7937860  23.2534838  32.3768711  46.2295055  23.8915753
  31.1039448  45.4185963  23.7772202  46.5840069  71.6487825  60.8762779
  46.8871037  72.4088037  61.3729997  45.7811550  71.3767445  61.3208641
  32.8398490  49.1625357  22.9091215  32.6801801  48.6673594  23.7125731
  33.0823874  48.4991503  22.2631168  22.3901248  54.6767855   7.0871788
  22.2381306  55.2270412   6.3188386  22.9379129  55.2125311   7.6608819
  16.6996801  24.7905183  17.3097205  17.1997547  23.9744020  17.3202395
  16.1533666  24.7265863  16.5263402  49.2236042  25.6451750  16.0611558
  48.3675289  25.3397655  16.3612986  49.4057655  26.4149356  16.6001546
  85.9060980  27.4149942  27.3139596  85.6173884  28.1786299  27.8136992
  85.1951502  26.7816520  27.4122596  63.9612643  65.5600655  60.2435960
  64.0319745  64.6374428  59.9986483  64.7865669  65.7537973  60.6880893
  31.8099403  26.5527081  40.1070166  32.1619987  26.7457938  40.9759283
  32.5433111  26.7074156  39.5116472   8.0589157  31.1069989  32.2471738
   8.7358403  31.1249137  32.9236960   7.2344369  31.1385918  32.7324247
  81.8071636  53.1907654  22.0022607  82.7336341  53.2272196  21.7644477
  81.6347959  52.2612476  22.1523166   1.2410004  63.7518311  21.6536236
   1.1823168  63.9484787  20.7186794   1.4358601  64.5944405  22.0638323
  13.3087552  28.4138727  51.8038511  13.1609941  28.6209512  50.8810759
  12.8475797  27.5862885  51.9404268   2.2664703  72.8949022  25.0282025
   2.1067944  73.7980032  25.3023243   1.9129033  72.8481531  24.1399264
  64.8729459  38.4063312  70.1400528  65.5176226  37.8645777  70.5951627
  64.1573469  37.8049048  69.9340475  47.8728676  34.1729498  14.5043194
  46.9805479  33.8750553  14.3275249  48.4315300  33.5042882  14.1080654
  31.2530088  39.4610381   4.7579655  31.3070846  39.3373466   5.7055980
  31.0829425  40.3965521   4.6478501  14.3935692  38.2590890  38.0468845
  15.0479710  38.4067035  37.3640966  14.5282423  38.9759612  38.6667156
   4.5746598  31.4164448  37.6084113   5.2501166  30.7948136  37.3371816
   3.7581238  30.9193420  37.5595236  73.2499036  50.9309788  10.1061225
  72.8628096  50.1057191  10.3982460  73.0096528  50.9942598   9.1817272
  68.7084148   7.0700757  67.5083171  69.3371830   7.3827474  68.1587927
  67.9716036   6.7437951  68.0249249  11.1337478  26.7831151  53.5731770
  11.3537652  27.0608394  54.4623865  10.2126271  27.0215909  53.4687855
   8.7638193   1.2223872  28.9021063   8.5000622   2.1362817  29.0091610
   9.3510950   1.0546809  29.6391368  69.7856490  61.2700092  59.4299354
  69.4454257  61.6487753  60.2405002  70.5857674  60.8163368  59.6949293
  53.0673313  30.3048611  53.8657427  52.9794121  30.8587098  53.0900145
  53.4077406  30.8912659  54.5413780  28.1620073  61.0920286  19.5613146
  28.5203481  60.2369881  19.7994876  27.3836923  61.1869144  20.1103640
  37.8289938  60.1565027  29.5191097  37.3775506  60.2904558  28.6857510
  38.4293509  60.8988094  29.5883107  10.2845883  16.3311779  23.6707306
  11.1561382  16.0982239  23.3507872   9.7689372  16.4757526  22.8773618
   9.5984823  70.0087733  28.2024765   9.4721801  70.5569632  27.4280286
  10.0742633  69.2436392  27.8793192  79.9136004   7.6368014  58.6896219
  80.8691630   7.6391618  58.7455370  79.6743593   6.7103879  58.7171413
  27.6976376  66.4965355  65.1514514  27.4405018  66.3643658  64.2389579
  27.6267227  67.4416053  65.2857925  20.6491041  15.9659064  39.9803996
  20.5579281  15.2430296  39.3596196  21.5809941  16.1835623  39.9593878
  33.0680966   0.6253247   9.8674679  33.4049559  -0.0509860   9.2797929
  33.2167101   0.2751030  10.7458127  76.6542212  64.7662746  33.3934869
  77.1663729  64.8724520  32.5918259  75.9982554  64.1050303  33.1728186
  77.6216141  69.3469226  57.7743687  77.8197924  69.4207251  58.7079157
  78.4322564  69.0222323  57.3823692  15.6294537  19.0754282  44.4347715
  16.0451674  19.8083401  43.9806175  15.7323694  19.2801380  45.3641462
  19.1530800  30.4908609  19.6170211  18.7707496  31.2909245  19.9775136
  18.4837294  29.8211718  19.7574389  16.7955792  67.7422428  31.4282036
  17.2377539  67.3926973  30.6545544  16.0043967  67.2101593  31.5127444
  19.7146557  74.7885859  61.1647846  19.7011075  75.1097118  62.0664086
  20.4775528  75.2120053  60.7711663  52.7132360  53.8048386  68.9121029
  53.6364380  53.7401354  69.1565298  52.3743240  54.5243632  69.4446944
  13.7590516  39.6499991  12.8413081  12.9839301  39.8422360  13.3690059
  13.7053335  38.7096953  12.6704955   5.4812038  22.2487521  10.0969744
   5.7013053  21.4797997   9.5711446   4.8406798  21.9290471  10.7323873
  22.4339366   4.0966100  38.8787556  22.1607614   4.2786342  39.7779083
  23.1644702   3.4848076  38.9695811  10.4557133  38.1770515   7.8697449
   9.6430689  37.9456806   8.3195311  10.2728426  38.0120802   6.9447726
  22.5497770  15.8859468  33.2649946  22.8718805  14.9906743  33.3697248
  22.7795243  16.3207531  34.0862083  29.9697614  13.9407575  32.3411989
  30.7030582  13.5233772  31.8892026  30.2308989  14.8578036  32.4252582
   8.9648545  25.1198149   8.7778395   8.1590325  24.8145747   9.1946250
   8.8180375  26.0537267   8.6278808  36.6632652  51.5327549  22.6034498
  35.7070899  51.5169144  22.5620747  36.8596911  51.8192387  23.4954000
   7.8189355  12.3940706  23.3988023   6.9317722  12.5154853  23.0605268
   8.3047718  12.0150173  22.6663327  33.4099722   3.9137113   9.8703390
  34.2525887   4.3320718  10.0469851  33.5887170   2.9759866   9.9407256
  66.0562232  20.2382064   0.6908639  66.1335256  19.4126904   0.2125573
  65.6750467  19.9919212   1.5336448   2.1935602  39.1331053   1.3033062
   1.7708556  38.2754135   1.2594941   1.5495205  39.7367263   0.9330548
  34.0365553  42.7490282   5.8560199  33.2859445  42.6592827   6.4431810
  33.6810040  43.1752443   5.0761795  10.6219876  35.9078193  15.4555607
  10.9172678  36.6590428  14.9410641  11.1747646  35.1838636  15.1613569
   7.1473510  67.1782787  35.5669188   7.9601104  67.4209697  36.0104918
   6.4600904  67.6140423  36.0709167  58.4583047  34.3727469  12.3350596
  58.5797217  35.0855231  11.7078125  58.7665155  33.5926938  11.8738055
   4.2441270  31.2066054  63.9801216   3.9363298  30.3545761  64.2892122
   4.0613788  31.2008500  63.0405474  32.8779897  12.0500056  52.2056474
  33.4867153  11.7153041  52.8641774  32.5491366  12.8684442  52.5774624
  74.6531596  32.7456594  37.2317290  74.9001351  33.6504769  37.0405722
  74.9652639  32.2474980  36.4763117  43.8398457  15.6998551  46.3452959
  42.9160738  15.5156076  46.1752176  44.1462660  16.1398315  45.5523539
  29.7312450  19.1624069  32.9298520  29.1385603  19.2834210  32.1880198
  29.8170161  18.2129109  33.0154800  29.7036648  42.6677084  35.1765585
  30.5276322  42.5162840  35.6395745  29.4869208  41.8194199  34.7896981
  19.4711328  28.7925482   3.0325052  20.3389740  28.9522934   2.6616088
  19.5929945  28.8884187   3.9770633  34.5599985  18.8604248   6.1323398
  35.2001309  18.1792355   5.9263188  34.4093943  18.7708521   7.0733643
  78.9433291  54.4818020   6.0434771  79.2310085  54.9528456   5.2614349
  79.7497949  54.1330481   6.4232343  32.8029370  55.1432991  26.5940332
  32.1384716  54.8226643  27.2038770  33.3077788  55.7783461  27.1020460
  37.1718931  37.4566436  25.3978491  36.4055872  38.0289865  25.4356456
  37.1694636  36.9973660  26.2376642  44.8832750  41.2634325   8.4605348
  44.5452642  40.5194759   7.9620242  44.1028643  41.7563200   8.7140077
  16.5765917  43.7707090  32.2793961  16.7195642  42.8563118  32.0351338
  15.6988823  43.9710522  31.9542503  70.8325073   6.0010402  46.6543855
  70.1158509   6.6027419  46.4529123  71.5994856   6.5656440  46.7502989
  59.0467405  42.0718479  16.7175126  58.8604641  41.2113762  16.3418508
  58.4201527  42.1603870  17.4356925  13.5807061  31.5622687  57.7704239
  13.5581803  31.5937972  58.7268400  13.4513521  32.4706388  57.4977255
  22.6096869  44.7035694  37.8293085  23.4091115  45.2117157  37.9669261
  21.9455123  45.1566029  38.3487988  61.6510383  52.0351052  66.6791939
  61.8195073  51.3315379  66.0524203  62.0662634  51.7388272  67.4891572
  19.6739399  61.3193560  35.9869576  19.1568804  61.6774511  35.2653980
  20.4575992  61.8682575  36.0155368  12.8071821  49.1848278  33.2831001
  12.7668881  48.8039494  34.1603327  13.3304906  49.9790668  33.3906388
  33.2071662  70.0706720  39.7692680  33.1765509  70.6138659  40.5568218
  33.9071989  69.4405603  39.9399805  55.0541618  56.9098902  18.0899787
  54.6328762  57.1601868  18.9122331  54.4208195  57.1499252  17.4135959
  52.0689252   9.7147338  70.3547503  52.1594015   8.7623851  70.3220516
  52.4625770   9.9641578  71.1908477  84.5050940  58.9027734   4.6596238
  84.2450032  59.1711421   5.5408514  85.0786576  59.6058030   4.3546498
  73.8289592  17.7492015  48.5337152  73.4541044  18.5684173  48.8571395
  73.3756170  17.5886457  47.7061071   8.6472362  45.9538507  19.4529903
   9.4059718  45.8782816  20.0316453   8.8385081  46.7153263  18.9054441
   2.9285104  73.0392803  16.4808464   2.6199729  72.4148203  17.1374178
   2.5066239  72.7603830  15.6681585  33.6793346  59.7968864  67.4923070
  32.8705702  59.6045184  67.0178323  33.5850642  60.7091736  67.7663113
  37.3598957  52.7331734  19.2895770  36.9817567  53.6098957  19.3574142
  38.0982757  52.8365946  18.6893022  66.4440441  21.3607836  19.2178333
  66.9486952  21.2531996  18.4116161  66.8073463  22.1473932  19.6246386
  15.9382963  43.8363600  10.9971845  16.8833125  43.9416122  11.1071837
  15.7955289  42.8910255  11.0440397  17.9343259  40.5919266   7.8952533
  17.1973455  39.9816871   7.8688198  17.7661276  41.1374664   8.6635804
  78.0101105  43.5782194  33.5009265  77.6908734  43.5889626  32.5985932
  77.2199383  43.6563492  34.0354872  32.1064067  17.5291061  45.9184313
  31.4878869  16.8528211  46.1946630  31.5814376  18.1342578  45.3945684
  75.5449560  47.0303965  31.4029598  74.6368482  47.0434713  31.1006355
  75.8546343  46.1493492  31.1929846  86.1254715   7.0080972  32.7865362
  86.7790678   7.7022129  32.7014089  86.4926050   6.4121807  33.4394741
  36.8806458  60.8238506  27.0619416  37.5331950  61.1717033  26.4541531
  36.1291575  60.6090164  26.5093613  84.9615430  37.3965859  32.8179169
  84.2657178  38.0339527  32.6572204  85.2041357  37.5326490  33.7338138
  24.8990822  45.6870794  27.9426956  25.4362488  44.9412298  27.6754975
  25.4267478  46.1384678  28.6015201   7.9443061  30.7974792   9.2568207
   7.9791826  30.1477051   9.9588245   7.1349144  30.5984116   8.7861949
  50.2939987   1.2203436  29.9448180  50.7892179   0.6308606  29.3760467
  50.8879137   1.9537374  30.1049089  41.0045147  35.6387639  23.0573559
  41.8903399  35.7559729  22.7141285  40.9618855  34.7136474  23.2993793
  33.2827449  27.1533656  45.1115608  33.4284544  28.0735326  45.3313208
  34.1526437  26.8184137  44.8940420  17.2939146  23.0462790  51.5813065
  17.9933000  22.4129009  51.4202976  17.7480245  23.8328791  51.8834257
  24.8971057   5.8827436  27.1626854  24.8366356   5.4541701  26.3089299
  24.8692489   6.8185592  26.9634247   3.3832252  22.5301170  48.4883595
   2.6920190  22.6419282  49.1410208   4.1411108  22.9791498  48.8628101
  64.0948942  25.8826756  56.0680532  63.4308913  25.2024484  55.9557199
  63.7691834  26.6223478  55.5551910   8.7390536  20.9150410   2.0277232
   8.9982539  21.7133331   2.4879140   9.4727713  20.7270026   1.4424609
  85.8579783  24.3723559  31.5944266  86.7813659  24.2397332  31.3799548
  85.3831610  23.8922977  30.9159541   3.2310909  51.7318773  12.4336767
   2.4483874  51.3245392  12.8047335   3.0863479  52.6718092  12.5423348
  11.3251913  24.0161252   0.3419587  11.9774115  23.5394216   0.8553726
  11.6601014  23.9899325  -0.5543569  64.5019629  28.6457515  60.4047203
  63.8486197  27.9812074  60.6232548  64.3246081  29.3646026  61.0113764
  84.1376864   4.8374313  64.2099142  85.0177958   4.6753508  63.8702536
  84.0229389   5.7848090  64.1354847  21.0389113  41.6240740  18.4268761
  20.2827263  41.0409927  18.3603048  21.7961335  41.0400820  18.3844876
  75.8662245   1.5912168  60.7136478  76.4789436   0.8559434  60.7271685
  76.4037451   2.3465697  60.4754331  81.5075323  33.2398367  25.7059431
  82.3699036  32.9682398  26.0202408  80.9520432  33.2220221  26.4852691
  49.5180941  47.4687147   4.1894314  49.8620701  46.6313457   3.8784242
  48.5788965  47.3173428   4.2953897  71.7980065  56.1987686  39.7139716
  71.8792751  55.8375883  38.8312626  72.6440087  56.0202408  40.1246309
  18.6615324  43.6901474  13.8134992  19.3016529  43.3368731  13.1957030
  19.1714585  44.2650509  14.3841970  74.1372421  24.6295166  56.8876362
  73.6400809  24.1267753  57.5328636  74.7505703  25.1477480  57.4086952
  22.9554605  33.3284545  24.9795556  23.3758903  33.9780354  24.4160700
  22.0180273  33.4905481  24.8738313  82.1030655  41.1236477  43.9040565
  81.5142235  41.3027859  43.1709766  81.6545096  41.4893866  44.6664619
  16.7841339  40.2171755  25.9901285  17.5287211  39.7638893  26.3855410
  16.5794933  39.7045922  25.2080703  49.6977472  20.7543755  25.3544927
  49.7896242  21.5411520  25.8918667  50.5972147  20.4808211  25.1745915
  12.4417078  31.6495252  16.1348760  11.5464222  31.9407582  15.9620178
  12.3729372  31.1240005  16.9319487  63.8311937  52.3517466  29.3189979
  64.0568617  52.1248674  28.4168720  62.9788354  51.9407701  29.4632721
  24.7047782  22.1254325  34.2038417  23.9463782  21.5433788  34.1561580
  24.7527075  22.3814034  35.1249361  84.0887260   3.1612366   9.0717161
  83.3130139   3.3766463   8.5539311  83.7560689   2.6199618   9.7876716
  39.0264392  24.8787856  24.3372297  39.5788240  24.6272111  23.5970855
  38.9284801  25.8270955  24.2515445   7.0620359  50.1767796  64.6401544
   7.1547426  51.0681307  64.3038060   7.3523344  50.2329123  65.5505421
  63.5963027  74.7321736  54.6731724  63.9562122  74.7694718  55.5593480
  63.9318124  75.5198133  54.2450501   0.6874055  40.7329035  14.3761134
   0.9467492  41.6423512  14.2282009  -0.2533061  40.7203770  14.1996574
  51.5961519  69.0286953  14.7233808  51.6067878  69.5406778  15.5320787
  50.6801459  68.7735910  14.6134400  84.0216359  30.4819465  16.2102222
  83.3156177  30.8253598  16.7577970  84.3219327  29.6981239  16.6703045
  17.4369144  10.6797862  25.4593134  18.0076075  11.1405969  26.0742903
  17.3555219  11.2762487  24.7151113  18.1829858   1.4101849  45.1515293
  17.7132046   0.6032942  44.9406624  17.5449371   1.9412586  45.6280613
   1.8126447  78.2259337  46.1154175   1.5685660  79.0134366  46.6017246
   1.4082081  78.3405153  45.2554560  16.1595023  75.6901884  37.6888585
  15.7781267  76.4776134  37.3006034  16.1547518  75.8611107  38.6306643
   8.8993913  39.7772694  42.1850681   7.9447305  39.8129153  42.1252060
   9.1656590  40.6880426  42.3108625  76.5347495  15.3446829   8.9962846
  75.6340614  15.2335811   8.6919034  77.0680025  14.9119091   8.3295161
   3.2186505  15.2564788  24.4749379   2.4294086  15.4724121  24.9716282
   3.3510524  16.0079682  23.8970399   2.2204827  50.4532623   2.9635704
   2.6760671  51.2365246   2.6550654   2.5986198  49.7387409   2.4510244
  41.1545134  27.8075457   1.2403654  41.7821693  28.0358052   0.5546691
  41.6968441  27.5320458   1.9794255  47.5243521  28.0699134   4.9262285
  47.1021366  28.1764221   5.7786500  47.2989798  27.1794581   4.6569103
  72.3064830  57.6172352  18.6344957  72.9021540  57.2924519  17.9592741
  72.6708927  58.4654188  18.8875294  61.5761292   9.8980681  59.9588801
  61.4638224  10.8436172  60.0566449  61.1252210   9.6865670  59.1414561
  36.8154788  44.3183899   3.7872830  37.6490331  44.0705347   3.3872986
  36.9823360  44.2844486   4.7292164   6.9253409  24.4609952  10.8287060
   6.4171576  23.6685729  10.6553650   7.7890110  24.1397667  11.0877764
   8.3219987  40.4765987  27.9625010   8.3769625  40.2217674  28.8835192
   8.0551493  41.3956022  27.9837775  47.6089430  38.5177827   6.9308466
  48.1857300  37.8709435   6.5244585  48.0131006  39.3610454   6.7264003
  56.2850467  73.4413373  57.8430499  56.9898621  73.5292470  58.4847202
  55.4816333  73.5082447  58.3590724  85.6909008  36.6752005  15.7465076
  85.6618931  37.0653987  14.8729312  84.7982502  36.3658047  15.9003913
  13.1628520  81.7762427  37.4374962  12.3966844  82.0643062  37.9337215
  13.1339032  80.8206855  37.4854994  23.8287878  23.4369969  19.0276372
  23.5254478  22.6141167  19.4111514  23.1667900  23.6536455  18.3710897
  60.0644922  12.0976877   3.1039721  60.1598024  11.3203335   2.5536367
  59.2594242  12.5129044   2.7946329  32.5529313  41.9456816   8.1764507
  32.6505542  41.1996222   8.7681431  32.7367401  42.7100801   8.7224758
  12.3639035  40.8016205   1.2265423  12.0457721  40.2466917   1.9386366
  13.0512023  41.3342619   1.6267256  17.3485763  81.1218837  23.3250189
  16.8008430  80.3372173  23.3477926  17.5222070  81.3195683  24.2453504
   5.9304726  30.2214003  14.6603334   6.4426637  29.5014405  15.0285041
   5.1679301  30.2910709  15.2347076  25.3444266  41.9692707  22.8214812
  24.9154139  42.5024462  23.4907365  25.6819391  41.2114573  23.2990050
  19.2039609  38.9116263  26.2929797  20.0230265  38.5479927  26.6293311
  19.4638622  39.4121027  25.5195427  35.8117628  29.6780276  10.9468901
  34.9874878  29.9267149  10.5286086  36.4748406  29.8163652  10.2705622
  76.3489947  14.9153964  60.4816415  76.5017888  13.9737765  60.4026117
  75.4590425  15.0420634  60.1527454  30.6003356  45.0551891  38.4912181
  29.9298763  44.4024134  38.6927032  31.3929701  44.5429468  38.3313298
  20.8115792  62.2620392   1.9498105  21.4335632  62.1324110   1.2338728
  20.3242946  61.4394283   1.9956365  75.6649747  44.1567087  15.4775703
  75.8273294  44.9932480  15.9135413  75.1623609  43.6484289  16.1141717
  80.5279060  56.4763887   1.1775146  80.3618093  56.9607981   0.3688179
  81.4155551  56.1336477   1.0733925  19.1117120  34.9484134  12.8228092
  19.8198056  34.9288797  12.1790278  18.5110605  35.6191564  12.4979186
   7.8865653  30.8800864  61.3163567   8.0552119  29.9975896  60.9862232
   7.8137416  31.4203000  60.5295277  14.0513813  66.8883133  37.6657844
  14.0242875  67.6361322  38.2626677  13.3331263  66.3252926  37.9544806
  35.9343266  21.6949201  64.2491055  36.8054557  21.3754058  64.0139866
  35.3439569  21.2506461  63.6405706  20.9996223  37.9132867  10.3234541
  20.4962730  38.3265924  11.0249162  20.4692268  38.0460715   9.5377839
   9.1130209  30.7142019  24.1421223   8.3903593  30.0910330  24.0669441
   8.8737690  31.4305019  23.5539842  43.1066227  43.2259226  23.8382602
  42.6983356  44.0344715  24.1477346  43.8657284  43.5187006  23.3340073
  26.2158203  23.4541225  32.3891973  27.1495104  23.2863927  32.5169396
  25.7856512  22.9553747  33.0837750   9.0013975  32.6036596  11.2534380
   8.9334399  32.2511482  10.3661096   8.1043559  32.8444982  11.4848340
  15.9563691  52.4977366  64.6592309  15.4910953  53.1614844  65.1683261
  16.4049346  52.9926364  63.9736004  72.1462962  15.8433644  49.8235716
  72.8852543  16.4163653  49.6190037  71.6661474  16.3073365  50.5094423
  24.1065955  32.0594668  14.0725088  23.9454293  32.8334379  14.6121633
  23.3359456  31.9961739  13.5083044  51.5072012  39.7484350  13.0573308
  51.7269516  38.8202691  12.9770219  50.6556416  39.7560072  13.4943902
  84.1308763  62.7653217   6.1317027  84.4424450  62.0461941   6.6812599
  84.1956430  62.4290943   5.2378404  16.6630208  47.0323277  11.5270150
  16.5753794  46.0791731  11.5333760  16.4848995  47.2831869  10.6206071
  20.8098197  67.1081924  12.7044094  20.2966905  67.7949142  13.1302524
  20.7032180  67.2753811  11.7679715  60.5036824  15.9620504   8.5548335
  59.7994416  16.5831404   8.7406546  60.1604693  15.1169424   8.8450289
  86.3417897   9.5499913  64.9333747  86.4400420   9.2329948  64.0355505
  86.9851884   9.0500228  65.4356654  46.3725615  52.4563694  25.4599571
  45.5008554  52.8087950  25.2806449  46.4198351  51.6564131  24.9364448
  28.1862416  59.5938503  70.0277026  27.6643454  59.9609959  69.3142182
  27.7343615  59.8739254  70.8236888   3.6412433  36.3680506   6.8519723
   4.5108485  36.0451889   6.6157937   3.6551395  37.2936678   6.6085148
  12.7376831  76.3813210  16.7408228  11.8044102  76.1774492  16.6802442
  13.1668735  75.6915569  16.2346101  11.9260705  36.0643268  11.2555254
  10.9782815  35.9534097  11.3305247  12.2895622  35.2348804  11.5655649
  24.7621870  35.7941794  31.4244866  24.4596624  36.5579605  31.9157600
  24.0654254  35.1471734  31.5346575  71.7599949   3.5805623  49.9283256
  72.2369394   3.6033361  50.7579269  71.5600810   4.4978683  49.7417297
  31.1630249  54.2195940  28.9831781  30.6746578  53.8435411  29.7155142
  32.0378661  53.8383913  29.0577745  15.1682317  67.1438122   1.9017163
  15.8981013  67.6343822   2.2796874  14.9991965  67.5738478   1.0634272
   8.8479471  63.1082201  29.3344092   8.4225982  63.7591076  29.8926663
   9.5452696  62.7440119  29.8796844  37.8201222  33.8272834  31.4521408
  38.1469202  34.4549537  30.8075738  37.8634620  34.2955947  32.2858310
  38.9653635  49.4475412  19.0717781  39.6377993  49.8620844  18.5312104
  38.5463381  48.8142729  18.4890103  31.6171503  45.2393293  20.2720857
  31.8066549  44.4794607  20.8224654  31.3002849  45.9045553  20.8830690
  36.2986612  56.2126780   2.4844588  35.4752922  55.7265997   2.4394676
  36.9771314  55.5431795   2.3968329  34.1514015  50.8591938  28.5727978
  35.0519609  50.8417559  28.2488847  33.6272764  51.1040878  27.8102016
  34.6610713  14.4442964  24.7789478  33.7561679  14.6637583  25.0008035
  35.1873350  15.0819266  25.2613449  32.4662399  62.2750378  18.9245260
  32.3351645  63.0154228  18.3321774  32.1094155  61.5234900  18.4511507
  30.9309554  68.0902719  24.4994926  31.3145113  68.1608343  23.6253428
  30.0694156  68.4990931  24.4167399  86.6564712   1.7194764  69.2410387
  85.8380541   1.5792815  68.7648346  86.8942055   2.6261489  69.0469727
  48.4832382  38.9263129  21.0023451  48.5987616  39.1651750  20.0826526
  48.1186104  39.7119379  21.4098644  38.1880617  36.0419273  29.8362875
  37.9517984  36.6783333  30.5111194  38.7059689  36.5424681  29.2058420
  20.9089088  11.0460937   0.9168214  20.5027175  11.9099867   0.8466203
  20.1754117  10.4471838   1.0565384  30.3853774  34.7527361  15.2923572
  30.8290315  33.9089203  15.3782558  30.6845450  35.0960183  14.4504035
  17.9407692  47.2161770   3.3481413  18.3347452  48.0187559   3.0062640
  17.8705013  47.3665762   4.2908362  42.6724577  21.3292837  15.6106806
  43.5966301  21.3475394  15.3620791  42.4271822  20.4058266  15.5532622
  41.4710999  30.0947261   9.3599856  40.6096125  30.2289081   8.9649385
  41.2953329  30.0187945  10.2978396  19.1397101  18.0530231  55.5319263
  18.8024718  17.2033660  55.2480473  20.0301988  17.8694169  55.8311810
   0.1077396  23.2372348  62.0874490   0.3441531  23.0006425  61.1905851
   0.4875357  22.5432174  62.6262690   3.3156088  55.4874563   4.4070321
   3.7998796  55.9690380   3.7363645   3.3272293  54.5792055   4.1050828
  67.2164154  57.5477505  15.6151664  67.8119755  57.2195196  16.2888122
  67.1049261  58.4749508  15.8251810  14.2691338  50.0463629  37.7561688
  13.6425173  50.6601191  37.3729134  14.6990144  49.6413469  37.0029116
  21.2867308  25.1351595  27.9989624  21.5972304  24.2417574  27.8518081
  21.0135055  25.1457214  28.9162803  13.7037086  52.8565025  12.5510168
  14.2687559  52.3206520  11.9944072  12.8220320  52.7110147  12.2079241
  19.4468629  37.3898029  43.9020586  19.7080648  37.7376866  43.0494261
  20.2443004  36.9940376  44.2537594  31.7062861   5.0844304  53.8865353
  31.9936854   5.5810229  53.1203546  31.0226447   5.6263082  54.2805364
  22.4221683   6.7118257  12.6088810  21.8900251   7.2320354  13.2109094
  23.1860566   7.2600508  12.4295604  68.6564342  77.5279891  49.7139730
  69.5373789  77.8499567  49.5229020  68.1867901  78.2951605  50.0412549
  39.4577865  77.7447640  35.4116430  39.4664411  78.4679067  36.0387148
  40.3333441  77.7526128  35.0249018  67.4502590  19.6836805  46.5479374
  67.5913968  19.3091094  47.4174261  68.1443789  19.3050063  46.0084629
  31.1637568  36.4377189  25.6700230  31.2840867  35.5894589  26.0968781
  32.0477319  36.7087150  25.4222679  42.0150797  69.4927156  59.7594537
  41.9088678  69.6329391  58.8185562  41.2742631  68.9381206  60.0040891
  18.7691200  69.4123030  20.9163523  18.6876583  69.4100094  21.8700767
  19.1914999  70.2471113  20.7140541  71.7566888  75.4077971  57.0716669
  70.8496062  75.5584299  57.3376502  71.6943852  75.1174151  56.1617054
  38.3861760  77.3863899  65.7537492  38.0110852  78.2391727  65.9735187
  37.8596983  76.7584812  66.2485053  46.6874695  41.3652134  10.6082523
  47.1861553  40.5522299  10.6894934  45.8310843  41.0892630  10.2816200
  16.7198140  20.9376447  63.8526561  17.0303256  20.0431697  63.9931204
  16.1436469  20.8743207  63.0909141  82.3526215  24.7105432  23.1715512
  83.2807132  24.9445224  23.1601191  81.9044515  25.4926658  22.8495908
  18.3728421  30.5960870  34.8283648  19.1245031  30.1691508  34.4173169
  18.7550783  31.1532855  35.5063462  24.1086745  35.8028936  34.8683977
  23.7474561  36.0413122  35.7221603  23.4334016  36.0625601  34.2416501
  17.4872458  47.9810715  33.3807206  18.3026433  47.5084591  33.5480380
  17.7673101  48.8642502  33.1403160  86.3928572  60.7502985  14.4035101
  86.7365361  61.6425276  14.3583131  86.7611571  60.3923988  15.2112806
  85.0105247  32.2793881  60.9912421  84.6671734  32.0025174  60.1417221
  85.4325018  31.4967172  61.3456436  43.9812509  75.9362495  70.2769921
  44.1252689  75.2624261  70.9414110  43.0864469  75.7850349  69.9725370
  62.1462766  66.5548527  64.7823824  62.7185170  66.8617522  65.4856487
  62.7194873  66.0395014  64.2148651  85.7606611  23.0113046  64.3776591
  86.1297569  23.3033912  65.2111371  86.4367613  23.2155864  63.7316026
  16.7063022  58.0255985  13.4861684  16.2076724  57.7280283  12.7252150
  16.1955726  57.7272987  14.2387664  56.3795996  22.8884816  10.6873012
  56.8391180  23.7273526  10.7243121  55.4916382  23.0885243  10.9835064
  17.3770630  33.9385557  34.1215014  18.3140314  33.9777756  34.3132925
  17.1439910  33.0194855  34.2527246  15.4027891  49.3313837  35.3148198
  15.6771588  49.9910831  34.6778369  15.7057726  48.5016966  34.9459672
  23.4023881  42.7860022  36.0931492  23.1131315  43.4400606  36.7293644
  24.0055346  42.2263956  36.5823221  80.9264960  41.9816542  53.3297396
  80.7713636  41.0433722  53.4383535  81.8753317  42.0784950  53.4107590
  20.5556750  63.6071634   7.5174892  19.7272551  63.9456749   7.1778429
  20.9772754  63.2015276   6.7598957  76.1223523  51.1315119  62.3552992
  75.2930705  51.5238058  62.6284822  76.7319457  51.8680405  62.3089136
  44.8800659  42.0558500  25.6454587  44.2125320  42.3310757  25.0170612
  45.3314638  41.3308287  25.2132344   3.3566535  67.3740721   1.4712097
   4.1081604  67.3264933   2.0621456   3.6971056  67.0793152   0.6265543
  63.2084624  54.1022574  61.9811209  63.1813113  53.3773672  61.3565977
  63.4797160  53.6982274  62.8053858  17.3960745  64.3443060  42.9536200
  17.5735879  63.6466169  42.3227835  16.7158556  64.8748684  42.5388432
  72.5761620  56.4225173  70.2875517  73.2599513  56.5141570  70.9510740
  71.7660157  56.6451239  70.7461816  26.3643384  67.5819445   9.1316968
  27.1571422  67.0470381   9.0920538  26.0859156  67.6654720   8.2197016
  81.3877329  59.8281908  17.9948807  80.6995752  59.2141056  18.2509446
  80.9181317  60.5639172  17.6019239  45.5664158  49.8652649  20.8764935
  45.6456280  50.7349396  20.4845405  45.2942896  49.3004513  20.1531959
  29.4177628  63.5843706  20.0561452  28.7190175  64.2056656  19.8512638
  29.1942596  62.7991962  19.5563674   1.6537441  57.5509405  23.3126807
   2.1400560  57.3741055  22.5074100   0.9140235  58.0898619  23.0323100
  46.1179099  31.8418567  56.8931844  46.5587923  32.4189202  57.5167658
  45.5158350  31.3255183  57.4290289  58.2182693  57.6282072  14.9675512
  57.9995489  57.9031086  14.0771449  58.7585878  56.8467283  14.8510361
  17.8121877  47.2440147  42.0883894  16.9340360  47.2031307  41.7096949
  18.3053148  46.5682268  41.6232300  40.0506020  37.9503942  15.4836154
  40.1992226  38.2803488  16.3697720  39.2576623  37.4190950  15.5557168
  28.2333207  20.3033757  15.3266954  27.5686908  20.7330751  15.8650768
  28.5045171  19.5436740  15.8419979  37.0100403  67.0388079   7.0312190
  37.2527361  67.4708796   6.2122887  36.0531497  67.0189285   7.0171010
  36.1574435  35.1197433   8.3841538  37.0949578  34.9673867   8.5028559
  36.0701966  35.3713012   7.4647307  71.4701287  50.8604109  70.9896481
  70.5184571  50.9258705  70.9104816  71.7982785  51.6791391  70.6178484
   6.7845500  45.5407715  24.2057633   5.9925544  45.7054615  23.6940479
   7.2159863  44.8162222  23.7528563   6.2995064  49.4442129  13.2462871
   5.4201245  49.2597675  13.5762846   6.8853146  49.1053391  13.9232087
  45.4450178  36.4774275  14.0055335  45.2283573  35.5698729  14.2191577
  46.3963985  36.4781141  13.9001501  31.2524581  42.7884102  30.6335735
  30.2963352  42.8266191  30.6090736  31.5146518  42.7592945  29.7134423
  35.8873210  62.7643239  60.4490151  36.6189949  62.6857841  61.0611572
  35.1254992  62.4679863  60.9470548  18.9584851  29.4055629  22.3798871
  18.5968518  29.4358659  23.2656264  19.0752757  28.4725738  22.2006559
  -0.3447262  34.9989200  43.7637281   0.1240717  34.2096329  43.4926462
   0.2232795  35.7199788  43.4922934  48.9822960  54.5567036  17.6790094
  48.3796692  54.8602819  18.3579147  49.0490961  53.6127138  17.8227258
  37.8729543   5.9447686  70.0648659  37.3620329   5.5959050  69.3344638
  38.5178790   6.5197866  69.6529733  79.2618808  21.2414233  62.0634212
  80.1289091  21.1037557  61.6819223  78.6655149  20.7759349  61.4769925
  24.1301227  47.4968243  14.5017445  24.3182635  48.1137419  15.2090263
  23.1743765  47.4635935  14.4608200  75.9684625  58.1710672   0.5756926
  75.8660140  57.3671484   1.0850593  76.0357001  58.8639450   1.2326763
  36.7069578  54.7615623  15.4254186  36.0936403  55.2908468  15.9352565
  37.4994707  55.2959299  15.3743601  24.3368173  22.9028130  10.6508267
  25.0711370  22.7210832  10.0643289  24.0045953  22.0385575  10.8935630
   6.1561209  52.4410105  28.4494972   6.1214423  52.7553654  27.5460529
   6.7631137  51.7013693  28.4226036  10.8597493  61.5683031  37.4720049
  11.4995956  60.9541988  37.1118546  10.0506485  61.0609055  37.5362968
  15.1821601  47.4113846   9.2106807  14.3864930  47.9434347   9.2023474
  14.8797381  46.5251112   9.0124613   8.0042207  28.3534908  20.1676369
   7.8601724  27.7067947  19.4767916   8.9482862  28.5110235  20.1551795
  83.8644377  50.6834399  61.4625265  84.6049897  50.3863591  61.9912620
  84.2476908  51.2997698  60.8384373  25.2777934  48.4499931  20.0675988
  24.4433618  48.8772440  19.8741794  25.4691768  47.9329443  19.2851257
  83.1292662  10.0539462  41.4865913  82.2447595  10.3826253  41.3258089
  83.1657085   9.9176185  42.4333300   3.3473456  16.1315298  18.8906920
   3.2521993  15.5495656  18.1367052   2.4562263  16.4247060  19.0809202
  40.2197838  16.4017546  27.3047996  40.4355001  16.3956487  26.3722444
  40.6141043  17.2083974  27.6365733  80.3155145  28.0292193  61.2733092
  80.0985679  28.1706397  62.1948119  80.2866850  27.0787684  61.1635931
  78.9737138   7.2002236  66.5304841  79.7601280   7.7457110  66.5456866
  78.5467658   7.4185435  65.7020618  32.7339482  27.1565557  20.1143384
  33.1428027  26.6361427  20.8058882  32.5423169  27.9976821  20.5290890
  17.3152411  29.4655967  41.2851858  17.6166272  29.7959709  42.1315002
  16.8197584  28.6751080  41.4993238   9.4831288  25.0536799  30.6602621
   9.5970875  25.1065230  31.6091847  10.3137231  25.3661561  30.3015113
  27.9886937  20.0024867  19.4246888  28.6627364  20.6809926  19.3855846
  28.2341361  19.4641328  20.1771283  58.6351839   6.0594146  54.0387692
  57.8926046   6.5217130  54.4274737  58.3381771   5.8258979  53.1592883
  36.8540668  66.9177103  16.0494792  36.4073396  66.4150143  16.7306268
  36.5112472  66.5654802  15.2281129  48.2057238  65.1461220  36.8336415
  47.9204988  64.7767782  35.9978986  48.5347652  64.3951130  37.3275614
  19.7342026  69.0424967   6.8719268  19.6948540  69.3621111   7.7733320
  19.1082191  68.3187914   6.8468696  43.7421560  74.0377235  24.5068145
  44.1944504  74.2189217  25.3307247  43.0194759  74.6650839  24.4873047
  78.7085345  30.9377861  33.3101964  79.5630297  31.3684344  33.2854843
  78.1771895  31.4235187  32.6793504  52.3472881  56.7161322  26.3881350
  52.3328018  55.7642174  26.2887526  51.4246655  56.9710970  26.3873744
  16.1715782  50.6455278  45.6786394  16.1783254  50.7123327  44.7237968
  15.4198980  50.0861263  45.8742905  30.4180717  47.6471472  38.6732173
  29.7043753  47.8156090  39.2884350  30.5591559  46.7017174  38.7231135
  14.0387821  56.9682407  23.4653759  13.8972044  57.7920866  22.9990458
  14.9554539  56.7512941  23.2954359  32.0513463  75.4402876  22.6959658
  32.7507877  75.1924372  23.3006024  32.4577212  75.4001379  21.8302417
  31.7166567  59.1378975  22.9828453  30.8773661  58.6794758  22.9419589
  31.5571737  59.9697590  22.5369668  29.9143815  63.3114243   6.0786289
  30.5732822  62.8281403   6.5771443  29.9101901  64.1845989   6.4707750
  30.9081960  46.0660076   5.2491778  30.7564640  45.5137539   6.0161358
  30.3715253  45.6728268   4.5609719  76.1650292  80.9644281  64.8084428
  77.0207993  81.2188088  64.4632186  76.0503594  80.0586736  64.5208796
   6.5256971   2.9383066   9.2818069   6.6907030   3.7900209   9.6862668
   5.5768746   2.9116017   9.1582984  32.8541899  30.0605321  20.5850172
  32.1337080  30.4291248  20.0738621  33.6236119  30.1667452  20.0256062
  28.9726782  54.9258661   3.8906986  29.4765425  55.6066036   3.4446621
  29.4353271  54.7882414   4.7172853   2.6769951  40.6659412   7.9172522
   2.6085404  41.2608910   7.1705377   1.7935336  40.6402063   8.2847637
  22.5074441  19.5295589  62.3626776  22.8431899  19.0301292  63.1070395
  21.6682727  19.8762004  62.6657696  34.2085624   9.0041053  16.9445348
  35.0821257   8.6942339  17.1834862  33.6670113   8.2148373  16.9413829
  16.0546196  41.3950300  47.1045923  15.5240560  40.9386730  47.7576447
  16.4146125  42.1484756  47.5725222  33.4639406  64.2501402  30.7115555
  32.6081824  63.8218832  30.7339931  33.2732964  65.1747179  30.8697867
  71.0491006  54.5450556  56.2131049  71.4321057  55.4209911  56.1653795
  71.0684077  54.2257273  55.3109469  24.3107629  44.7382593  18.4606528
  24.2373538  44.4461441  19.3692279  23.7203693  44.1619539  17.9753315
  36.4103937  36.4926958  21.0943723  37.1167970  36.5381932  21.7386985
  36.0402632  35.6170630  21.2061810  27.2120285  31.9776845   1.4310133
  28.0005312  32.1279311   1.9524759  26.6662025  32.7466893   1.5951379
  24.1555810  44.4802237  14.2546165  24.0588498  45.3209162  14.7019517
  25.0988579  44.3869686  14.1213393  22.8495717  39.6633697  36.6891384
  23.6509562  39.9609542  36.2584949  22.9837871  38.7251139  36.8229151
  30.9916284  79.2327702  69.2626788  30.4645183  78.8201654  69.9468892
  30.7739275  80.1630652  69.3208938  23.7300825  78.6866760  36.3772488
  23.5499763  79.1068363  35.5362606  24.6730447  78.5225868  36.3659334
  24.1272020  36.3843846  43.1251144  24.6309614  35.5951071  42.9263687
  23.9469337  36.7750978  42.2700834  32.5672340  10.0625348  30.1177239
  32.6941299  10.2821505  29.1947412  33.1517601   9.3199468  30.2697873
  49.8257351  73.9985418  24.2282891  50.3594208  74.1144419  25.0144076
  50.4600620  73.8375998  23.5297465  67.6778093  45.7353465  46.7529835
  68.4199605  45.9284846  46.1801495  67.1597949  46.5402572  46.7534747
  39.5804358  51.5565395  21.1495113  39.8953795  52.3029423  20.6396818
  40.3665638  51.0412884  21.3304734  27.6814866  46.7780924  37.1439123
  28.6163473  46.6876411  36.9592905  27.2811437  46.9243479  36.2868452
  32.7638769  44.3111181   9.7534716  33.0829144  43.8477945  10.5279231
  31.8591881  44.5396709   9.9668664   6.3897961  69.9759960  30.8432174
   7.2347724  69.5370102  30.9408879   6.1434180  69.8211145  29.9313259
  71.1648359  56.7638826  23.5762286  71.6495600  57.5122690  23.2281017
  70.7642105  56.3591433  22.8068662  41.9998312  55.7392836  21.9835782
  41.0679436  55.8977604  22.1342492  42.2206736  55.0240469  22.5801468
  80.5893675  62.6702106  67.2435279  80.5017201  63.6229837  67.2156962
  80.8762948  62.4302423  66.3624384  54.9332047  11.8640554  14.0050113
  55.0457525  11.1511338  14.6337485  54.6072102  12.5959969  14.5286727
  57.3042918  46.7956225  63.4685029  57.5609074  46.2324206  64.1987022
  56.9195150  46.1971633  62.8281702  27.2835565  42.9511261  36.3758898
  26.7317772  43.4497356  35.7732630  28.0691743  42.7473831  35.8684206
  56.1935226  49.1859001  63.8049056  55.5925576  49.2701304  63.0646493
  56.4272515  48.2577854  63.8192560  43.3132315  62.2070312   4.8985222
  43.7240744  62.7023888   5.6070858  43.8601351  61.4272881   4.8029715
  26.3388736  25.6935994  38.1148042  26.1170918  26.4005153  37.5087346
  27.0965297  26.0220162  38.5988845  38.9229465  44.8979664  17.2567654
  39.3188787  44.0792656  16.9581044  38.6645508  44.7229290  18.1616545
  85.3353971  57.2958279   8.4583849  85.6492544  57.9409456   9.0920651
  86.0674989  57.1790314   7.8528959  22.3900986   1.6280504  19.6325910
  21.9583321   1.1920471  20.3672409  21.6752052   2.0294735  19.1386080
  27.4709272  38.3298349  14.4822204  27.0320964  37.4825239  14.4065726
  28.3373308  38.1205368  14.8311734  25.1090360  22.8518820   4.9721378
  25.6704903  22.2443795   4.4905347  24.6757412  22.3076057   5.6295961
  56.0880423   4.5081109  26.3223219  55.4433346   5.1366806  25.9975481
  56.7109299   5.0388294  26.8188953  21.9081450  28.5149884  22.0089078
  21.9421506  28.3567667  21.0654879  21.3494849  29.2866063  22.1023750
  79.4883427   9.9522082  55.8062317  78.9363942   9.2276876  56.1006095
  78.9346442  10.4440705  55.1998319  37.1496181  78.4774291  69.8407774
  37.5071524  78.2896101  70.7086054  37.6919774  79.1924631  69.5079054
  72.5130245  36.7115848  69.7189477  72.1692500  35.9401481  69.2684657
  73.4443972  36.7225329  69.4983654  21.5883660  29.4795179   1.1102217
  22.2410750  29.9507999   0.5924437  20.7866406  29.9926472   1.0093970
   7.7301830  17.1699750  19.6484220   6.9709438  16.6493046  19.9105108
   7.4356639  18.0776262  19.7236466  19.9048162  40.6434584  31.4511871
  19.3824708  40.1531315  30.8163929  20.0857186  40.0142717  32.1494889
  30.2715778  36.6752672   6.5344781  30.4915357  37.5794458   6.7587894
  29.3598199  36.7151308   6.2457913   1.9882423  68.0028772  16.9228625
   2.8548390  67.6710367  16.6880763   1.5417986  68.1210756  16.0844421
  52.1971464  60.4284334  17.9275799  52.4845123  59.7447395  18.5327411
  51.8048859  61.0964966  18.4897637  84.7531733  17.3299996  66.8310078
  85.1787696  18.0849139  67.2374632  85.4726634  16.7363660  66.6161491
  29.9109101  34.3455315  38.3872938  29.7550201  34.2144966  37.4520063
  30.3448558  33.5415125  38.6727333  84.1429021  22.8228784  11.5295625
  84.7160531  22.5060773  10.8314466  84.7386270  23.0533481  12.2424638
  49.7612715  72.8825092   6.2186158  50.7143068  72.9573393   6.2671989
  49.4503641  73.2379436   7.0512211  23.2766318  77.2653866  53.8369179
  23.8132620  77.1978140  54.6266603  23.4653473  78.1385422  53.4930944
  45.5921221  48.1687355  14.7656882  44.8827839  48.7638474  14.5229650
  45.1913452  47.5581408  15.3843844  31.1498833  52.3455954  15.8771753
  30.5233097  51.6394567  15.7190466  31.9865489  51.8989277  16.0064375
  41.5691376  53.1191015  26.9242144  41.2912273  53.4201956  27.7892804
  40.8168221  53.2906389  26.3577986   3.9118154  12.6123826  61.5500863
   3.0779225  12.6341168  62.0195355   4.4027431  13.3561914  61.8993356
  10.8304123  56.6971516  60.9644641  11.4753799  57.0611929  60.3580632
   9.9850921  56.9665777  60.6051947  14.9654293  57.0281410  10.1025724
  14.6023381  57.5253057  10.8355296  15.3133035  56.2311935  10.5026841
  35.3188968  76.8183756  17.5601494  36.0075092  77.0544386  18.1816947
  35.4108453  75.8721304  17.4488032  11.1964852   3.8243644  71.2871238
  11.0234839   4.3161218  70.4843330  11.3966329   2.9378907  70.9865515
  84.0321183  45.6158066  12.1803772  84.7862547  45.1382923  12.5260508
  83.6352726  45.0135946  11.5510237  62.5264824  14.8135011  41.4987339
  62.5627405  14.9520223  42.4451627  62.1260152  13.9499251  41.3982334
  17.2463465  35.9312558  36.4590120  16.9621694  35.0193548  36.5215397
  17.0403612  36.1851716  35.5593848  32.7975202  58.0705118  19.6513069
  32.1399117  58.4844446  19.0923381  33.6273360  58.2257366  19.2001522
  20.4330802  60.8885050   7.9277080  19.9171650  60.9311199   7.1225697
  20.5471492  61.8026161   8.1877470  38.3237217  75.3004181  38.2627167
  39.0249209  75.3628170  37.6141347  38.6522291  75.7877576  39.0182413
  84.9557416  71.8458235  56.7981853  85.2976958  72.5385177  56.2329652
  85.2453438  72.0893275  57.6774289   4.3466973  21.7478824  35.4129767
   4.7550312  21.0785413  34.8639059   5.0814104  22.2533560  35.7607174
  62.5392119  61.0351669  62.0998396  62.0098821  61.0183012  62.8971841
  63.4317891  61.1916005  62.4081679  32.9531622  35.1837254  23.6870337
  32.8341103  34.2514896  23.5053825  32.3131466  35.6208396  23.1253052
  32.6892304  45.2876663  17.4950731  33.4351087  45.1916361  18.0872524
  31.9248176  45.2903652  18.0711794  17.9798546   1.4595537  27.4107981
  17.2495928   1.7658834  27.9484892  18.2693282   2.2376184  26.9342923
  18.7107956  56.8876123  26.6142273  18.7316418  55.9900808  26.9462466
  19.2190063  57.3903370  27.2508001  49.5616048   1.3750677  11.1862385
  49.5932310   1.9404058  10.4144716  50.4505604   1.0292940  11.2664449
  12.9266936   9.2441337  68.7707694  13.7620122   9.5967834  68.4639873
  12.4015338   9.1469352  67.9764210  56.2323380  72.1664190  21.0108519
  55.6906557  72.2683573  21.7934227  56.0994196  72.9775047  20.5202341
  54.4518391  55.4324019  63.9274092  54.8850147  55.3802788  64.7793915
  53.6334435  55.8968246  64.1028293   8.2702929  42.8633356  57.3069382
   9.1794884  43.0016041  57.0414639   8.2044882  43.2839775  58.1642389
  12.9484899  13.7559669  58.1231655  12.0744187  13.8666265  58.4973051
  13.4484250  13.3136098  58.8091852  76.8961284  45.7790153  47.1497406
  77.7695617  46.0949771  47.3810591  76.6207406  45.2609794  47.9060711
  11.1171925  68.3679867   8.1354392  10.6582248  67.6028013   8.4819484
  11.4054120  68.0996466   7.2629982  35.3030086  41.2743282   9.9376726
  35.6689453  40.5452061  10.4383731  34.6920919  41.6967773  10.5414534
  54.8574591  62.4595499  25.9630585  55.7148838  62.4012709  25.5415606
  54.9490786  61.9443941  26.7645884   3.0474088  76.5442324  28.1655145
   2.7560899  75.7631159  28.6358619   2.4160859  77.2207212  28.4105325
  36.7492461  32.3484755  34.2588735  36.0866475  32.2509956  33.5749936
  36.2600231  32.2761178  35.0784206   0.9170593  65.2950656  24.7801461
   0.8992352  64.9213469  25.6611933   1.5670980  65.9958922  24.8303570
  57.5135565  64.1595984  18.2542562  56.9767046  63.3815002  18.1039762
  56.9363165  64.7618532  18.7236321  38.8352919  81.0735226  34.2295599
  38.8381577  80.5882549  35.0546312  38.8668466  81.9933414  34.4925761
  26.8130732  46.0127640   4.3088543  26.9501495  46.9548655   4.4082701
  27.0539641  45.6446552   5.1589715  49.6763897  45.2946758  18.5266876
  49.9925613  45.6253767  17.6859128  49.4376516  44.3844175  18.3515549
   6.1575681  45.2273512  13.7433493   5.9402084  45.9195852  14.3676889
   5.6644416  45.4527760  12.9545259   3.4017649  17.3105364  38.8528705
   2.9186097  17.2172193  38.0318451   2.7228585  17.4082022  39.5205355
  86.8297831  66.3887918  66.9111996  86.6971079  66.7211377  66.0234078
  87.5159852  65.7277786  66.8194352  14.6523631  78.8292408   8.8682598
  15.1713729  78.5998964   9.6391439  14.4125891  79.7457838   9.0049684
  39.7463679  65.7398367  10.9669709  39.5237041  66.5105963  10.4448736
  40.1217604  65.1243258  10.3373241  53.5795593  68.2568359  47.0528793
  52.7874374  68.4328175  46.5451336  54.0779972  67.6425838  46.5139151
  10.7409484  24.0733306  53.2381656  11.3698728  23.5546081  52.7365507
  11.1666972  24.9232976  53.3500590   9.1684277  55.4909102  57.3860242
   8.5411770  55.3794925  58.1004300   8.8066656  54.9732081  56.6667511
  53.5614840  80.0601565  64.9256440  53.0570070  79.9573195  65.7325884
  53.5814110  81.0051238  64.7744175  76.8355513  51.2575817  12.2076249
  77.2492647  50.5262518  11.7491174  77.5331736  51.9060373  12.3028052
  69.4260940  17.9491536  63.5928686  69.9433813  17.8061978  62.8002723
  68.6065588  17.4816291  63.4315791  38.5702062  75.6607199  30.0484991
  37.9353762  76.2684250  29.6691418  38.6686850  75.9521580  30.9549165
  67.8738594  78.3841228  31.5316296  67.2976494  79.1480732  31.5559864
  67.7374554  78.0088806  30.6616759  20.6468391  80.5156231  14.5345116
  21.5299010  80.8634377  14.6588683  20.1459289  81.2529564  14.1857052
  35.2887726  61.2375402  15.5124319  34.9574566  62.0244217  15.0796747
  34.5191741  60.6772709  15.6126606  50.9250021  50.4990482   7.8272265
  50.8941269  51.2084246   8.4691501  51.8580866  50.3161001   7.7171344
  74.0458529  15.1810102  15.9407699  74.8060935  15.2234678  15.3607106
  73.3482879  14.8177652  15.3951716  59.6260922   7.1026640  30.6382465
  59.7855728   6.1645727  30.5344725  58.6794656   7.1977739  30.5329490
   5.4467362  57.5446653  42.9141760   4.5916682  57.8910589  43.1693316
   5.6089109  56.8297625  43.5296774  28.4359026  54.3071795  27.6962471
  28.9783597  54.4016695  26.9132757  29.0487003  54.4035101  28.4252381
  51.9403315  23.0829859   8.7267768  51.9214725  22.6029849   9.5547110
  52.7156591  22.7503014   8.2746518  48.1279230  49.1564274  12.0074415
  47.6106691  48.3664513  12.1643281  48.6371803  48.9571714  11.2218308
  35.4922366  68.4709454  40.2216101  36.1221933  68.9570522  39.6895528
  36.0044074  68.1461382  40.9621572   9.2323363  61.0546207  16.5218878
  10.1610625  61.1447144  16.3083863   9.1614991  60.1878548  16.9218051
  17.8561401  72.2041464   4.2093322  17.7689636  73.1430244   4.0445921
  18.7882638  72.0248556   4.0859121   2.6726547  54.1000366  28.0056024
   2.8646633  53.9321852  27.0830035   1.7752242  53.7888384  28.1239438
  49.0974896  23.8976889  10.5584288  48.9862078  24.0679674   9.6230924
  48.4462493  24.4563417  10.9827209  37.9930401  63.8512278  34.4666982
  38.0731988  63.2983446  35.2439570  37.2504044  63.4840918  33.9871788
  86.0621342  58.2072703  61.0333981  85.7544098  57.9808871  60.1557352
  85.5935464  59.0130393  61.2510743  56.9327133   1.6236620  26.1232567
  57.4277847   1.6637259  25.3050089  56.5966933   2.5118189  26.2436271
  23.0367827  69.6088648   4.7769737  22.2552109  69.2499638   4.3567735
  23.2535410  68.9750624   5.4607451  37.9669404  64.7191525  29.1694808
  38.4196711  65.1398706  29.9004126  37.0537066  64.9891758  29.2660499
  36.3544536  29.2844391  29.5115805  37.1813440  29.6960998  29.7626114
  36.2959576  28.5066652  30.0664449   8.7377191  15.1895523  31.5754676
   8.8299930  14.6441734  32.3566699   8.0159706  15.7834482  31.7818618
  46.4037943  50.2897930   4.8703775  47.2238922  50.5654764   4.4609010
  46.6722918  49.6792793   5.5569768  18.5375297  48.6672115  12.8451705
  19.3251812  48.1390047  12.7154422  17.8442502  48.1755972  12.4048185
  32.6789117  78.7396669   6.7189449  33.2862949  78.1965160   7.2212434
  32.2520137  79.2908955   7.3747915  62.4719143  62.8567934  12.2897363
  61.5595007  62.8294563  12.5778115  62.4789238  62.3637581  11.4693117
  21.6073346  79.7454023  44.4209719  22.4780154  80.1423073  44.3961239
  21.2414217  79.9161482  43.5531092   3.9231527  45.2732944  11.9571996
   3.6165953  45.5550289  12.8191054   3.1880903  45.4530239  11.3710153
  86.4858297  48.8433027   6.1409968  86.5516577  49.4351387   5.3915799
  87.2012092  49.1083813   6.7190951  13.4317744  74.6632338  38.3711553
  12.8605199  73.9078951  38.5103059  14.2195034  74.2969561  37.9692149
  55.7585589  54.7851193  66.3851591  56.2626378  55.0812840  67.1430652
  56.3242618  54.1420888  65.9576954  24.6678233  55.1899147  30.4076743
  25.4443765  55.6435108  30.7354641  24.1786313  54.9526691  31.1954808
  47.5777292  56.6011238  30.7567596  47.3676252  56.7021799  29.8283887
  46.8554831  57.0318031  31.2140465  43.3975649  44.6936321  19.8087013
  42.6195097  44.8987389  20.3271580  43.3621264  43.7446404  19.6887529
  18.5538108  10.0074832  64.4248189  18.7098271  10.9424035  64.2913415
  17.6014668   9.9291865  64.4808354  24.5363993  79.7067797  63.8777711
  25.0302292  79.5268380  63.0777808  23.9243327  80.3999722  63.6306055
  12.5405490  39.1740084  41.3513756  13.4009898  39.1026449  40.9381199
  12.4977291  40.0788260  41.6607332   0.6409470  71.7959785  29.4249654
  -0.1257366  71.5499926  28.9073539   0.9652816  72.5942707  29.0081143
  23.2906270  77.7571630  15.8904898  23.0673218  76.9478464  15.4307413
  23.3895969  78.4079170  15.1955366  57.3487202  81.0661399  63.5707857
  57.1273724  81.7197930  64.2340918  58.2860462  80.9125220  63.6893221
   8.1262714  21.1280124  67.0752721   7.9420883  21.3888804  67.9776334
   8.7736876  20.4275863  67.1558394  19.5971525  69.7662020  29.3369412
  18.7280893  69.4899654  29.0459895  20.1913142  69.1095400  28.9736247
  86.1495393   2.1908121  23.8338637  86.4749377   2.4793558  24.6865582
  86.4651959   1.2911539  23.7489724  45.7552481  61.8168736  32.4168587
  45.2677631  61.8559551  33.2396984  45.1022243  62.0039558  31.7424750
  53.5108089  49.4151592  10.2324295  54.4118261  49.4644880   9.9131018
  53.1713104  50.3042269  10.1297879  64.3736267  29.0205932  14.5187438
  64.3158340  28.3960152  15.2417886  63.8998556  28.6004925  13.8009083
  81.6257668  68.1098700   1.2621446  81.7008114  67.3253536   0.7188824
  81.1764526  67.8115177   2.0529291  73.3139703  16.4342420  69.9448949
  74.0825281  16.2678830  70.4906741  73.3813975  15.7954948  69.2351871
  57.2339725  75.1765728  35.1604986  57.3595524  74.5776033  34.4244957
  57.7557182  74.7987461  35.8684969  61.8007278  77.0324326  30.2570391
  62.4785519  77.0348549  29.5811796  61.8548393  77.9019260  30.6536317
   8.1876451  22.7009646  64.8591651   7.3291118  22.4111907  64.5506408
   8.2527692  22.3525111  65.7483061  79.8435578  42.2376029  66.7739494
  80.5132637  42.6309840  66.2145014  80.0147209  42.5997703  67.6433005
  16.8324947  73.1474495  24.2517352  16.5007234  73.2548380  25.1431537
  16.8078017  72.2028112  24.0991545   3.3677132  12.1213452  56.4067389
   3.9736325  11.8486611  55.7177271   3.7729151  12.9005115  56.7874493
  25.0240850  68.9771700  14.6667564  24.5143819  68.7194300  13.8986385
  24.6826196  68.4312487  15.3749967  62.9610062  73.5795641  12.2774911
  63.2361984  72.7256632  12.6111937  63.5997868  73.7874269  11.5955901
  16.7877567  80.6318855  15.4714394  16.4969718  81.4094448  14.9949098
  16.1435544  80.5250454  16.1713111  59.5715472  69.8198478  66.4837908
  59.2387349  70.5480926  65.9592565  58.7861412  69.3633716  66.7854376
  65.0137346  20.0196104  63.2581949  64.5027082  19.7477465  64.0205431
  64.9827021  20.9761076  63.2777691  80.2796826  28.6021630  50.9104885
  80.6622991  29.4748895  50.8199920  79.3440828  28.7624375  51.0337676
  52.1365070  80.5553436  38.8209653  52.1725178  81.5065002  38.9221025
  52.3173046  80.4061413  37.8929114  48.6900953  66.1342823  54.9578633
  48.7926547  65.7558262  55.8310677  47.9870526  66.7763865  55.0561799
  85.3202098  20.7684164  29.2448664  85.9907191  20.3510027  29.7856259
  84.7766727  20.0437765  28.9355111  25.6748772  74.7588921   0.3333060
  24.8424196  74.4984722  -0.0609395  25.5951524  74.5029831   1.2522100
  70.2456913  17.2000901  60.8238639  69.6956274  17.7477662  60.2637603
  71.1405012  17.4731414  60.6213989  33.4812808  62.4966908  34.9019241
  33.4751654  63.1211329  35.6273675  34.0741038  61.8020725  35.1888013
  31.2326264  57.8056526  16.8824279  30.4957199  57.2585201  17.1541762
  32.0076036  57.2820330  17.0860577  74.8699984  35.9091012  66.4795177
  75.3348133  36.1027400  65.6654640  74.7482607  34.9597756  66.4658206
   4.8004944  18.0864827  59.2509474   5.2989776  17.7467887  59.9941542
   4.8721296  19.0377824  59.3292274  11.6262197  57.5109386  28.3807611
  11.4934587  57.4532938  27.4345684  11.2653601  56.6932917  28.7235022
  49.8932600  71.5244293  36.4098024  50.1209497  72.1350241  35.7086873
  49.4159555  70.8212519  35.9693980  15.7659299  69.0262191  66.5904863
  16.3194854  69.3791072  65.8938720  15.3886945  68.2299583  66.2164547
  37.0055485  66.0632658  24.5855045  36.8966246  66.5569448  25.3983068
  36.2402678  66.2957811  24.0596604  46.5018272  46.9689608  12.1298540
  46.4059782  46.0645866  11.8312764  45.7614946  47.1057653  12.7209747
  26.9035554  70.1425552   1.6064157  27.1200705  70.4910612   0.7416062
  27.3577714  70.7215261   2.2185521  23.7725401  63.9093781  19.0765774
  23.6403584  63.2061481  19.7123682  23.9211416  64.6899700  19.6102679
  36.8124390  37.2132778  10.3081989  36.5294909  36.3792443   9.9332833
  36.8994689  37.7972960   9.5548195  32.4888062  77.9227734   2.9514214
  32.1642685  77.4740601   3.7321675  33.3618522  77.5565958   2.8102311
  27.2370076  59.0085506  29.1660833  27.9767156  58.9804173  28.5592294
  27.4765491  59.6801186  29.8047161  37.2799063  57.6366711  12.0744205
  37.7605891  56.8275309  11.8998671  37.4769592  57.8398085  12.9888260
  43.5066605  57.1141624  29.8760748  43.8394976  57.3947716  29.0236020
  42.7432251  56.5749931  29.6694565  63.7840319  66.2685299  24.9523091
  64.4867086  66.7747736  25.3599763  63.6842823  65.5008078  25.5152345
  50.7912350  74.4501829  26.6591883  51.4387369  75.1098776  26.9077277
  50.7335281  73.8725615  27.4202752  78.9651585  65.8589554  19.3996179
  79.0357351  65.0422001  19.8937404  78.0488062  65.8945036  19.1252780
  42.1200657  67.8632212  28.1707525  41.5474224  67.5062418  27.4918723
  42.6191139  67.1089172  28.4841442   2.1042306  20.8789317  57.8748896
   2.0557863  19.9246852  57.8174688   2.8538806  21.1140315  57.3280968
  45.7904434  63.2419920  38.7156653  45.9971809  62.4007797  38.3084130
  46.6338921  63.5717344  39.0256643  21.1275387   3.1958804   4.5940590
  20.4902005   3.5834771   3.9942265  20.6493235   3.0909377   5.4165733
  55.3661411   2.7768259  15.2276015  54.5819681   2.5680666  15.7352710
  55.1557057   2.4981527  14.3363702  70.2395439  56.1947584  12.4334133
  70.9006310  55.5031586  12.4036598  69.4879246  55.7891989  12.8656459
  36.4107943  49.5418072  36.4704490  37.0125151  50.0029135  35.8860302
  36.8408084  48.7046289  36.6449499  35.8938885  81.0677719  12.5672066
  36.3277006  80.8663845  13.3963513  36.5843940  81.4426422  12.0204818
  55.0957672  73.4899628  49.8552312  54.6561901  72.6766789  50.1033654
  55.3005902  73.9152181  50.6879582  19.9685717  54.2365599  27.0360732
  20.7522130  54.7122669  27.3114610  20.2692914  53.6710262  26.3247561
   3.0730755  31.9614665  56.8627002   3.4961063  32.3157422  56.0805454
   2.2049911  32.3647277  56.8689646  20.5016815   3.0539160  24.6353436
  19.6681862   3.1253557  25.1005459  20.5503845   3.8508635  24.1073918
  73.4683809  21.0712497  68.1970115  73.0627927  20.4076831  68.7550512
  73.9380691  20.5694263  67.5308307  66.5472439   8.9599626  70.3750298
  66.3877818   8.4055678  69.6111913  67.2936997   9.5041959  70.1243358
  30.8982760   7.8655259  52.0031263  31.6620643   7.6586692  51.4645483
  30.2654941   7.1779887  51.7954852  54.7774029  78.1102467  54.3024302
  54.8221159  78.8516903  54.9061632  55.6543207  77.7273750  54.3279505
  15.8908725  50.6283951   8.6210614  15.7351124  50.8120728   9.5474696
  15.0320625  50.3811359   8.2782185  45.9328035  64.7386515  58.6069717
  45.1639108  64.1716873  58.6668720  45.5858735  65.6245839  58.7118234
  81.4385935  37.2443652  26.8927765  81.9526997  37.2024488  27.6991057
  81.9407972  37.8222871  26.3182950  47.0442247  53.0540657  22.2553611
  47.6232004  52.4263430  22.6877713  46.1614895  52.7595186  22.4795222
  10.8390546  46.5924597  15.1177835  11.6650891  46.2059450  14.8270810
  10.8819032  47.5011492  14.8199987  39.9996138  40.7634878   9.1793156
  39.9739718  39.8198128   9.3375874  39.5864964  41.1473751   9.9527472
  40.8761065   2.1153097   9.5979297  40.8774000   1.8142347   8.6893123
  39.9552100   2.2916441   9.7905058  51.4954894   2.5437670  25.5825090
  51.2202542   3.1907968  26.2319970  51.9055384   3.0602770  24.8887420
  14.6765101  50.9249401  22.4277520  15.2533543  50.4371738  21.8399024
  13.9829147  51.2597275  21.8593526  40.7572174  74.4493675  29.8980594
  41.1852026  74.9382496  29.1951656  40.0928688  75.0493526  30.2370191
  44.4914722  62.9737043   7.6631856  44.6107864  62.4675941   8.4668338
  43.5460520  63.1117105   7.6051879  38.3317995  54.1131067   2.2690335
  38.6699533  53.4945965   1.6214776  38.8510633  53.9445066   3.0552715
  34.4631529  38.9390063  32.6963854  34.4555116  38.7368417  33.6319613
  34.1825175  39.8527813  32.6464987  38.7282133  70.6236744  39.9114394
  38.2938027  70.0025940  39.3268228  38.1495214  71.3860369  39.9236941
  84.6303749  79.2453623  29.9889755  83.8716888  79.7759008  30.2321887
  85.3059006  79.4891548  30.6217957  38.2991052  58.8813877  23.3286214
  37.4156046  58.6024714  23.0880713  38.3701992  59.7727442  22.9870653
  58.5449505  69.5736027  43.9415169  59.1088772  70.1221275  43.3962250
  58.8003635  69.7855759  44.8393250  36.1116433  39.5785666  17.3182893
  35.5226064  40.1214266  16.7942953  35.6391597  39.4350767  18.1382906
  65.2732303  29.2533302  21.9550872  66.1768105  29.4849944  21.7403650
  65.2098348  29.3874526  22.9007220  79.5501518  70.5920076  52.9844952
  80.1813793  70.1587200  52.4100018  79.9699974  71.4190340  53.2211161
  80.6680393  67.9829788  23.8005137  80.0559616  68.0139542  24.5357895
  80.9430599  68.8917828  23.6793685  14.6366334  61.7805672  38.3235407
  15.4783142  61.6435146  37.8887749  14.0404940  61.1705923  37.8890538
  39.2327619  39.1012216  25.7948971  38.6336160  38.5093832  25.3399420
  38.8094592  39.9580812  25.7416201  74.7693580  -0.0153322  26.6168451
  75.0394290   0.7794313  27.0768905  74.5595782   0.2802877  25.7309389
  20.6785512  47.3670101  19.8456466  19.9359024  47.3577213  19.2418110
  20.3169751  47.0540476  20.6748319  34.4457912  73.4377670  65.0958157
  34.6816349  72.7151775  65.6775999  35.1728678  74.0553904  65.1741171
  37.6869583  68.5999107  38.2077026  37.8736424  67.7914000  38.6848783
  37.0335746  68.3475542  37.5552917  12.3225307  54.0884018   7.0046234
  12.8557336  53.4895420   7.5274014  12.1378481  54.8204517   7.5930333
  66.8643597  17.8275506  69.0730666  66.0323873  18.1920163  69.3750917
  66.6610387  16.9191567  68.8501038  34.8826909  51.8861437  10.6146228
  34.0224814  52.0210028  11.0122228  35.0348139  50.9438658  10.6867349
  58.5761595  58.5953140  28.0513716  59.1413021  57.9318666  28.4472036
  58.7442446  59.3880320  28.5608602  25.0736165  60.8137703  19.3041301
  24.1184330  60.8628130  19.2660809  25.3224277  61.4811659  19.9435914
  64.9988317  76.7916727  23.0175138  65.9344864  76.6021681  22.9477429
  64.6214533  76.4341402  22.2137809  68.9825583  74.0112782  10.6915414
  68.7913465  74.4800568  11.5038919  69.7568512  73.4863758  10.8944798
  26.0443115  47.3752832  34.8507881  25.9808636  47.1712542  33.9177394
  25.1776218  47.1686459  35.2006197  31.2055588  41.0975266  18.0162978
  31.3347936  41.8027449  17.3821092  31.1429334  41.5434837  18.8609457
  40.0541441  79.0396893  55.9182419  39.9874429  78.7778937  54.9999585
  40.1436965  79.9922692  55.8898272  28.7591321  14.4010751  37.0836725
  29.2814643  14.2744176  36.2916102  28.8641507  15.3289573  37.2940029
  58.7215631   6.2266378   8.8320959  58.7098759   6.0590105   9.7744316
  58.9370459   5.3800230   8.4408790  28.2751894  30.2927256  21.2543488
  27.5176191  30.4391384  20.6878853  29.0217400  30.2731299  20.6555939
  29.0841579  46.8880701  28.1416655  28.6301327  47.7218246  28.2639432
  29.8946428  47.1208811  27.6887321   7.7146089  19.8157394  15.2424455
   8.5391271  19.9649239  14.7796869   7.9048580  19.0967941  15.8450687
  30.2302623  64.2642403  38.6670399  30.6716204  63.4149027  38.6593652
  30.8863807  64.8781061  38.3370185  18.6645133  22.6253335  68.9493640
  17.9104144  22.8988807  69.4716086  19.1339643  22.0087497  69.5112078
  37.6902032  72.7479172  26.2924695  37.9292846  72.7365732  27.2192621
  37.7471828  71.8323278  26.0191941  64.4869184  23.2773757  22.9818082
  63.8878393  23.3484077  22.2386503  63.9615774  22.8789639  23.6757183
  63.3213917  27.0418469  40.6668653  63.9266441  27.3896853  40.0119509
  62.5667718  26.7417924  40.1601614  57.3287217  77.4801933  63.4975000
  57.2529570  78.2080662  62.8804978  57.0692722  76.7098033  62.9921092
  81.5867433   2.2467010  68.7204281  82.4885878   2.5509088  68.6186190
  81.1734256   2.9052417  69.2787542  46.4353149  13.7823896  30.6812525
  47.2975438  13.8216619  31.0950756  46.2218910  12.8495150  30.6604767
  82.5977370  42.1888494   2.8594512  81.7545935  41.8097687   2.6111820
  82.8917053  41.6559362   3.5982481  24.8518467  46.2544918  21.8670368
  24.6330881  46.3306618  22.7957869  24.7774959  47.1471024  21.5294695
  13.4028518  45.2426958  22.4042463  14.3315935  45.4486132  22.2981000
  13.3864927  44.5355701  23.0491805  41.3666526  72.5035822  59.1975011
  40.8102922  72.2921407  59.9471595  41.0385458  73.3471524  58.8861062
  21.9576573  21.9943571  14.8495257  22.7882862  22.2182560  15.2692389
  21.9862080  22.4458122  14.0059590  53.8116360  47.4732256  15.2278149
  54.6989536  47.6244688  15.5534279  53.7519884  48.0094814  14.4371784
  41.0772953  21.3423268  58.7042107  41.6536936  20.7952849  58.1705989
  41.4952585  22.2034518  58.7025287  54.7154856  48.4824657  19.8384500
  55.0820923  47.9119825  20.5140090  55.3982496  49.1340637  19.6788180
  26.3769913  38.2703018  20.0859904  26.6844845  39.1714382  20.1841331
  25.6302571  38.3355284  19.4907045  23.1314325  69.0377569  25.5244374
  24.0120482  68.6723042  25.4396272  23.1274056  69.7921228  24.9352431
  57.2831726  53.9872074   4.7445843  57.7007532  54.6706867   5.2687174
  58.0116510  53.5225821   4.3326682  45.6291048  70.7687270  56.4167871
  46.0564856  70.8383715  57.2704424  46.0260574  71.4644467  55.8927299
  47.4162845  78.5563385  55.9094204  47.9272954  77.7520930  56.0004796
  47.3737256  78.7074506  54.9651827  44.4868326  61.6114616   9.9909925
  45.2563143  61.9453907  10.4520977  43.7488508  61.8519783  10.5511439
   1.5696413  38.4461705  68.7431594   1.4676816  38.1308143  69.6411498
   1.0195786  39.2283504  68.7000868  84.6451800   6.2215929  48.9660740
  84.0759461   6.9670992  49.1569138  84.7807019   5.8002787  49.8148155
  57.0770351  70.0845277  51.7663957  57.6392619  69.3271553  51.9292404
  57.6676075  70.7495629  51.4125850  30.8789301  30.0075841   8.8139647
  30.3421354  29.5205522   9.4391727  30.3797674  30.8056736   8.6404014
  17.1259219  30.7606046  59.4626858  17.9424531  31.2373464  59.6117582
  17.3989350  29.9410407  59.0503623  53.5606670  59.3632650  22.1943069
  54.0658617  59.0361261  22.9386115  52.9126453  58.6793041  22.0255089
  75.0769472  72.8256798  15.6089985  74.6232367  72.5736475  14.8047221
  74.8930550  72.1131039  16.2210858  63.3531380  57.3024654  14.3736684
  62.9341555  56.6286564  13.8382578  64.0867519  57.6097250  13.8410950
  39.9826088   3.7845831  30.8548236  39.1786423   3.3470755  31.1349225
  40.6865921   3.2508306  31.2232661  80.1915639   7.3248701  28.0199122
  79.2954820   7.2268324  27.6979423  80.7339995   7.2934084  27.2318745
  75.1099771  25.9956675  24.3266249  76.0365432  25.9658270  24.5649910
  74.6569531  26.1815863  25.1490831   9.6021595  30.4960375  18.9592803
   9.9492159  30.5825644  18.0714202   8.7328902  30.1133280  18.8404119
  34.2149472  58.1102276   1.4445868  34.8046184  58.0610752   2.1969853
  33.8537788  57.2273350   1.3652615  79.9764770  21.2906866  55.2345181
  79.7976869  20.4568415  54.7998047  79.3025678  21.8835287  54.9019194
   1.1178872  71.8809843   4.7192279   0.8143709  72.0074654   5.6181777
   1.8720720  72.4646187   4.6367171  59.0239334  70.5445099  27.7765942
  58.4487200  70.1786804  27.1046329  58.4601784  70.6499720  28.5429454
   2.1537111  75.8537388  19.6125138   2.4341581  75.9589624  20.5216384
   2.5379464  76.6017246  19.1552281  68.1089585  20.4435854  42.5870180
  67.3189967  20.5035238  43.1242323  68.7481206  20.9947138  43.0386400
  68.9113760  59.4419336  35.7038546  68.1108856  59.0805864  36.0844851
  69.5426130  59.4359493  36.4233923  70.2248096  35.3187871   0.9320832
  69.4224882  34.8041201   0.8447475  70.9195995  34.6662450   1.0197581
   6.6804392  22.8578536  48.5231723   6.9037158  22.4564902  47.6833548
   6.5720636  22.1181027  49.1208829  40.2904224  66.9446659  20.3875327
  40.2068377  66.5457392  21.2536168  39.5118952  67.4948072  20.3010917
  66.5075588  66.7944145   7.9344845  66.2551594  66.1010265   7.3247826
  66.8525696  66.3293076   8.6966342  63.0293036  71.9821405  51.4460802
  62.3666286  71.5676165  51.9985819  63.8224363  71.9815302  51.9819593
  39.8044944  74.5173502   4.6472996  39.3557692  75.1417065   4.0771621
  40.7335949  74.7224903   4.5428178  47.1627903  63.3793354  26.5468383
  47.8705168  63.9085388  26.9146633  47.5534964  62.5155830  26.4145017
  16.9870877  41.2242317  31.3031435  16.7265224  40.5978394  31.9783998
  17.1858060  40.6835079  30.5387092  14.6066260  42.4806213  14.3749559
  14.0623653  42.5621891  13.5917830  13.9916122  42.5635719  15.1037276
  35.2528667  63.8841629  33.1266999  34.6789718  63.6710167  33.8625288
  34.8571348  63.4388304  32.3774934  32.5211007  70.0940387  68.5661534
  31.9643027  70.6031100  67.9770457  32.8860099  69.4030540  68.0133198
  40.8427715  73.3452988  20.8945107  41.7055321  73.7441587  21.0075974
  40.9014130  72.5114393  21.3608456  61.3980436  68.9039993  51.1799908
  62.1083593  68.2865286  51.3543987  61.3505793  69.4435978  51.9691753
  71.7825651  63.0729961  24.8313379  72.1002054  63.6165476  24.1103053
  71.3712215  62.3226213  24.4024205  39.3515212  61.1765639  71.0159403
  38.8112933  60.5845992  70.4925293  39.4753892  61.9442908  70.4578268
  63.9392989   3.8604765  19.1480029  63.8974588   4.7311621  19.5434570
  63.4319370   3.3042841  19.7391641  81.4020824  74.1478443  14.3141389
  81.9293690  74.7207642  13.7574065  80.4996109  74.3130922  14.0412426
  37.8464341  69.4971704  15.3801394  38.3201122  69.9056768  16.1046958
  37.3101735  68.8216019  15.7951903   7.6022807  23.8119154  15.9291387
   8.2214346  23.2449274  16.3889360   6.8057194  23.7758570  16.4586890
  25.7120943  71.5608931  23.0308652  25.1550674  71.6379690  23.8054705
  25.9192300  70.6279469  22.9766822  51.1489456   4.1573362  28.2564545
  51.7903297   3.6147909  28.7152624  50.5186146   4.4063597  28.9324021
  53.8616610  68.4314775  60.7523775  54.6294069  68.0832529  61.2057447
  54.0363646  69.3690729  60.6710005   6.3986013  79.2528725  30.1320624
   6.6865537  78.6973906  30.8564639   6.4328573  80.1423550  30.4840326
  81.2223181  38.8883321  68.3176934  81.6005144  39.7197883  68.6038427
  80.3359875  38.8913648  68.6791326  40.4308128  45.8223152  22.6904130
  41.2375832  45.9827852  23.1799054  39.7567463  45.7290888  23.3635926
  51.4467239  60.1776457  34.7718048  51.3617563  59.7414160  35.6195760
  50.9584332  59.6204424  34.1657257  85.5822739  37.6326339  70.1135882
  85.2552256  38.4621732  69.7655408  85.3642735  37.6611869  71.0451956
  78.9756060  74.1278267  25.4707527  79.7508574  74.1079950  26.0318422
  78.6289358  73.2364559  25.5096340  21.1911654  37.6411033  22.3800182
  21.7452216  37.8351498  21.6239762  20.8583283  36.7593074  22.2130156
  74.4439077  64.8944521   6.3721210  74.7984695  64.6868658   7.2366583
  74.7820663  64.2036057   5.8023727  76.9231360  21.0548429   6.7589557
  76.2113326  20.5135756   6.4174950  76.8548482  20.9683733   7.7097929
  76.0784435  81.2454796  35.7016921  76.0142326  81.2601566  34.7467613
  76.5827656  82.0292282  35.9199095  51.0734606  67.1681643  29.8735213
  50.8968353  68.0175972  30.2778769  50.3107929  66.6340208  30.0954771
  30.5304742  79.4834328  49.9344873  30.0926208  78.8936758  50.5482483
  29.8298120  79.7976255  49.3630123  72.8462601  76.2886620  11.0744703
  71.9384670  76.5774632  11.1679125  73.0691195  76.4894390  10.1654840
  64.2422199  76.1694002  42.3977041  64.3860960  75.8928442  43.3027172
  64.9017763  75.6926155  41.8938303  34.0871191  66.5028524   9.3514258
  33.5838771  65.6955814   9.2451739  33.6806488  66.9418955  10.0985909
  48.4376097  27.8828263  10.3688180  48.0262947  28.7333393  10.5226994
  49.1776609  28.0753350   9.7930592  75.8746386  46.6107082  16.7450368
  76.7633057  46.9353867  16.8902600  75.5621052  47.1003056  15.9842181
  25.4408875  10.1702337  65.3733206  25.7695904   9.8628645  64.5285082
  24.5536080   9.8153810  65.4285765  40.9771204  69.7048712  16.4606237
  40.2316809  70.2703953  16.6624355  40.6056738  68.8235140  16.4223576
  68.5659075  72.1144152  18.7321401  69.0406084  72.7875042  18.2444489
  69.1906881  71.3941288  18.8162649  75.4821062  66.2119675  21.0583782
  75.7090425  65.3069305  21.2720203  75.2848721  66.6153765  21.9037127
   9.5734620  47.4393559  23.3401513  10.4845572  47.5687027  23.0766964
   9.5356536  46.5286732  23.6324954  68.9039230  39.8129630  22.1639514
  69.1148615  39.0157533  21.6779542  69.6691132  39.9648786  22.7186012
  57.4980920   1.0051470  12.9899025  56.5448754   1.0362940  13.0713844
  57.7182310   1.7705755  12.4589705  77.2750521  48.5627031   9.3104202
  78.1255054  48.8821316   9.6119606  76.6887331  49.3128490   9.4091165
  44.3109941  45.6498003   6.1619449  44.6756935  46.4845991   6.4557827
  43.3680725  45.7381868   6.3009351  77.0188134   7.0191889  12.3072958
  76.7059844   7.1152716  13.2068157  76.7006391   6.1588793  12.0336676
  71.9921080  69.7606790  48.5629811  72.0470921  70.2143371  49.4040551
  71.0602442  69.7732079  48.3445610  50.9326887  66.9905233  27.1583652
  51.0372257  66.8937349  28.1049037  51.1425304  67.9085541  26.9868541
  39.5546579  79.7915649   8.3544368  40.2056694  79.5781422   9.0229172
  39.7524381  80.6949043   8.1072700   0.6841650  21.4842730  33.7155080
   0.7005444  20.9605722  34.5165706  -0.2434740  21.5435438  33.4870267
  78.5137081  39.1135645  19.5329142  79.3337345  39.0769529  20.0253010
  77.9831839  38.4055090  19.8981988   5.3478026  64.5656013  23.3596277
   5.1423460  64.1580391  22.5182533   4.8186514  64.0833187  23.9949489
  79.8010731  59.9211359  31.6688228  80.0614262  60.6639242  31.1241031
  78.9726019  59.6258640  31.2910938  14.0997789  79.4410658   4.3510169
  14.3610856  79.3479824   5.2671421  14.6564576  80.1426888   4.0132725
  19.0624917  61.8996286  21.7443919  18.5401440  61.1143970  21.9080949
  19.0712380  61.9870615  20.7912350  70.6860876  75.0312281  31.9258332
  70.5525541  74.8986244  30.9873152  70.9186888  74.1647243  32.2594500
  78.5828393  14.8421698  52.7013016  78.7573951  13.9088850  52.8227091
  77.8059953  14.8698740  52.1427536  70.5269759   7.4669390   8.7495875
  69.9809878   7.9994421   9.3280047  71.2975543   7.2544889   9.2761904
  39.1966748  67.2922611  25.3293014  38.5986400  67.0790005  24.6129870
  39.2986989  66.4701986  25.8089232  12.9164400  15.3305941  28.1551719
  12.9906884  14.5849447  27.5595784  12.6129618  14.9496489  28.9791918
  33.6992216  54.0747118  12.7699268  33.0317760  53.7061357  13.3486319
  33.6360812  55.0204706  12.9032922  50.5735588  71.0817051  47.1335173
  50.5577755  71.6009617  46.3295555  49.6881866  71.1624765  47.4882364
   4.9711838  24.3311338  26.4497352   5.9002152  24.4800310  26.2737870
   4.9438706  24.0381746  27.3605919  75.6751606   8.0566947  56.9383110
  75.9288439   8.7813012  57.5099947  76.4789090   7.5497882  56.8231239
  83.3446258  18.7335424  13.7373674  83.3621257  19.6371107  14.0527749
  84.2649644  18.4720545  13.7085044  61.6605711  80.7400799  47.6318121
  61.0083723  80.0424194  47.5675344  61.9848251  80.8479404  46.7376900
  81.6357224   5.0258760  51.3904715  82.5817578   4.8904924  51.4445734
  81.2654489   4.1436892  51.4200640  67.6192444   2.6620417  32.4292326
  68.5372274   2.4280004  32.2922277  67.1563333   1.8242197  32.4320936
  77.2591155  12.7381735  10.8445382  77.3917001  13.6806040  10.7422280
  77.9279130  12.4691896  11.4742947  64.1588300   5.6185083  11.2225175
  64.3708866   6.2467794  10.5322003  63.9312523   4.8154955  10.7538831
  20.5136514  52.2248030  14.5466769  21.3293767  52.1448708  14.0522742
  20.7686377  52.0697451  15.4561663  27.8618121  79.7968197  18.5087144
  27.1617889  79.6143532  19.1355348  27.7459407  80.7195759  18.2821715
  78.1125110   9.5199423  13.6479247  78.5023015   8.9608030  14.3199754
  78.8588851   9.9554377  13.2362163   2.0672932  32.1217089  11.8174815
   2.5153914  32.8730421  12.2059929   1.4313116  32.5074129  11.2149990
  26.8846297  77.4495220  14.1996276  27.0034742  77.7352190  15.1054335
  27.7743292  77.3279285  13.8681448  39.0073848  40.0992823  13.9375591
  39.4526911  39.4269681  14.4532442  38.7647772  40.7695770  14.5763648
  82.0696395  34.4861917  17.8985167  81.9488996  34.8863440  17.0373929
  81.9936555  33.5455542  17.7383077  22.7474332  72.7175713  15.2380955
  21.8623662  72.9662848  15.5046153  23.1999278  72.5258112  16.0595012
  61.2262028   6.0787611  21.8148422  62.0557731   6.0916738  22.2922087
  61.2797611   5.2987604  21.2626076   2.1822777   5.8970385  33.3329892
   1.9907847   6.3225584  34.1687465   2.7531281   6.5141611  32.8752589
  33.9027452  73.9901114  10.1031590  34.6570325  73.9126301   9.5189643
  33.5730982  73.0955410  10.1886201  34.7386217  43.8362026  20.8772421
  34.1180182  43.9167070  20.1529455  35.5232596  43.4588528  20.4795241
  66.4517403  60.7548761  12.1832359  66.2801266  61.0404825  11.2859011
  65.6755781  61.0259724  12.6734507  60.4331064  79.2552471  14.6246397
  61.3814974  79.2982721  14.7468662  60.2943754  78.4642029  14.1038454
  74.4011545  74.7295666   7.3931509  75.1265049  74.7648716   6.7695701
  74.3767881  75.6039047   7.7819574  39.8711252  65.7193089  33.7156606
  40.0950050  66.2886429  34.4518447  39.3020582  65.0496960  34.0951514
  24.4029179   7.3343401  16.6734576  24.3840733   8.0265360  16.0125887
  25.3260460   7.0895128  16.7376125  16.3523328  75.1731825  45.6389475
  16.3814938  74.3280745  45.1904154  17.2133577  75.2567005  46.0486937
  64.7560876  27.6864271   8.3189785  64.3978160  28.3434610   8.9157897
  65.4978769  27.3110514   8.7933946  68.5644913  57.0301819  25.4822493
  68.8977194  56.9746304  26.3778520  69.3498898  57.0640755  24.9361420
  18.4444418   6.3312464  27.4977374  18.9092770   5.4960566  27.4465370
  19.0309229   6.9017057  27.9945850   2.3440924   1.0278254  31.7127323
   2.7859631   0.7965784  32.5297427   2.2045508   1.9727449  31.7750454
  56.7561674  75.4448366  17.4059188  56.2215090  74.6527195  17.3517978
  56.1213207  76.1585426  17.4677515   7.9368961  64.3989944  25.3961611
   8.2005340  65.1818657  24.9125934   8.6080903  64.2969131  26.0709286
   9.2252061  80.4852772  39.6142650   9.5389840  79.5848179  39.5308805
   8.2939145  80.3965855  39.8169160  58.0723667  78.2753801  16.0585117
  58.9554834  78.0233622  15.7886541  57.6972151  77.4756622  16.4272249
  49.2198437   2.3337965  23.9934397  49.9126952   2.2111635  24.6423984
  48.6433928   2.9928808  24.3801522  44.9789744  10.2079992  53.3991146
  45.0545638  11.1357527  53.1759596  44.6702748   9.7923880  52.5940084
  22.6951361  77.8195620   5.3964269  22.4099374  77.0698738   4.8740637
  22.0040369  77.9337263   6.0487938  40.1946313  65.4337852  58.4827794
  40.8995063  65.9124438  58.0465807  40.6353099  64.7068469  58.9227714
  82.1984380   1.3055544  14.8171616  81.5394204   1.7558603  15.3455079
  82.0521729   1.6264563  13.9272964  78.3227110  67.5235319   5.5417025
  78.8638401  67.8553295   6.2581670  77.4228764  67.6664925   5.8351284
  36.8001676  65.0608969  41.7425108  36.9674635  64.2594004  41.2466860
  35.8698320  65.2384424  41.6039896  69.1693211  62.2403860   7.6653069
  68.3530331  62.0114708   8.1097174  68.9466667  62.2287035   6.7344368
  78.7952089  78.5756016  17.8285348  78.7670517  77.9269552  17.1251869
  79.6996975  78.8888597  17.8293848  52.6115244   4.3741350   1.4960247
  51.8480914   4.8429518   1.1589535  52.9866069   4.9652510   2.1488078
  60.6601351  18.3030157  34.3930006  61.5237515  18.2669477  34.8042178
  60.4054587  17.3860865  34.2899251  63.3534050  76.5444994  14.7729337
  63.4977055  75.5984879  14.7946835  62.4257517  76.6501904  14.9839318
  44.7823381  60.8648157  25.9246016  44.5216227  61.6144943  26.4596128
  45.5719042  61.1581182  25.4698586  40.5727625  63.0986309   4.5356950
  41.3926506  62.6055527   4.5654914  40.4735327  63.4520197   5.4197228
  43.7079811  60.4259777  14.8789036  43.0744076  60.3743696  14.1632557
  43.1772327  60.5976868  15.6567550   2.5312319  13.0967836  28.5872436
   2.2219124  12.8938799  27.7044153   1.7991772  13.5571127  28.9976263
  33.9482117  53.6531925  21.0945630  33.6042738  54.5055008  21.3619781
  33.7197900  53.0659485  21.8151188  82.2502559  10.3845434  23.7467527
  81.6296666  10.4323893  24.4739413  82.9828589   9.8731928  24.0903401
  37.0549829  47.7590911  69.8104897  37.2528417  47.5022952  70.7111229
  37.7486522  48.3769862  69.5797192  41.6550350  81.5681744  26.5993524
  41.3688946  81.8382168  27.4719548  41.5848255  80.6135941  26.6090083
  22.4909925  72.6117563  27.1693683  22.3155403  72.2273922  26.3104653
  21.7679834  73.2229710  27.3104620  60.3580625   1.7867724  58.7470807
  59.8733575   0.9695785  58.6309912  61.2729794   1.5145461  58.8181533
  31.1198807  63.0207777  29.8663235  30.8764601  62.4556351  30.5995321
  30.6385732  62.6647663  29.1194439  24.2662182   5.4445009  24.5783257
  24.1585389   5.9210138  23.7551785  23.7829533   4.6286325  24.4477582
  16.2170210   5.9939890  16.4792991  15.2708044   6.1150866  16.4002931
  16.4930239   5.6926661  15.6137025  30.1101398  68.0027246  31.5218902
  30.2929735  67.2283983  32.0540738  29.9265623  68.6932373  32.1588564
  17.7550602  45.2149343  17.7809298  18.5637748  44.7054672  17.7294207
  17.0710838  44.5635271  17.9360926  45.0341702  61.5202808  35.2646875
  45.1785803  60.6132126  34.9952412  44.2345524  61.4896965  35.7899570
  54.8410177  60.1919603   8.5411644  54.1142035  60.0145388   7.9440922
  55.4949236  59.5265961   8.3268499  45.5213213  67.6373720  48.3520174
  46.1006117  68.0238676  47.6952982  45.5062151  66.7043686  48.1386948
  77.4840927  79.5817184  30.7441711  78.2389879  79.1785002  31.1728621
  77.8424597  79.9755430  29.9487424  13.2106090  78.3728313   0.8890738
  13.6965549  78.0647182   0.1241196  13.8637185  78.8285351   1.4201207
  76.1949778  69.2736101  47.8504372  76.5786839  69.1895199  48.7233257
  76.8451643  69.7660255  47.3494196  50.7027435  52.8440428   9.2978287
  50.7049465  53.2709360   8.4410977  50.0161076  53.2955551   9.7886413
   1.5366640  18.4643869  26.0897779   2.0983782  18.6928682  25.3491664
   1.2157431  19.3053465  26.4153790  10.2249947  19.8767881  24.0171409
  10.9528866  19.2836504  23.8311601  10.6144371  20.5770235  24.5408201
  73.7812376  75.0917721  13.2809353  73.4973383  74.2622185  12.8969121
  73.5769844  75.7469463  12.6136565  76.2062168  65.3915787  18.2987928
  75.9232616  65.9376097  17.5652969  76.1771536  65.9751368  19.0569782
  85.4471438  24.2783956  50.6426716  85.1697677  23.3652716  50.5685043
  84.7876876  24.6840696  51.2054968  50.9113843  21.1769073  53.5711743
  50.8643872  22.1308009  53.6353185  50.6289060  20.9827487  52.6774516
  71.4636564  47.5428867  25.0391793  70.8929348  47.5566769  24.2708588
  71.3599157  48.4103966  25.4302001  28.0343556  64.0971279  23.2142639
  28.9349341  63.8501310  23.0040741  27.9673409  63.9750862  24.1612840
  49.2909225  25.6248677   4.0250574  48.4206756  25.3066361   4.2651258
  49.7903427  25.5951798   4.8411022   1.8166676  12.1605425  45.9667587
   2.2409716  12.6627760  45.2710915   2.4445382  11.4705877  46.1811590
  14.1297760   9.0975027  23.9663982  13.3957043   9.6720915  24.1836953
  14.5947161   8.9792376  24.7946954  70.9045172  63.6344814   1.6406141
  70.8058739  63.1748295   0.8068160  71.5057039  64.3539524   1.4478233
  14.5016518   1.4678888   9.2143559  15.0240555   2.2698240   9.2291892
  14.2141238   1.3861303   8.3050287  66.9620132  50.6538868   2.5540677
  66.8252468  49.7937536   2.1569571  66.7838764  50.5190372   3.4848273
  -0.1000414  20.6787233  55.9961700  -0.0269756  19.7329836  55.8678484
   0.5765190  20.8859377  56.6408062  67.3901108   4.5524613  61.3322015
  66.7339048   4.3646543  60.6611158  66.9721762   5.1983611  61.9017418
  31.6629696  32.9481649  18.2511401  31.5337324  33.0580163  17.3090875
  31.8672848  33.8276172  18.5690248  40.0766230  58.5308790   3.9247295
  40.3703690  58.1304550   3.1064379  39.9029875  59.4439316   3.6957714
  37.5635672  76.1044884  11.8920481  37.1033859  75.3028870  12.1408546
  37.7314353  76.0033131  10.9551299  66.8809080  60.8282518  26.2214422
  65.9684038  60.5413723  26.2571263  67.1820402  60.7824373  27.1288848
  15.5343444  12.4575965  56.7717304  15.6044251  11.5494124  56.4775838
  14.6077592  12.6729505  56.6654696   7.1931846   5.2789228  65.7999195
   7.0008070   5.1226060  64.8753722   7.1646196   6.2311761  65.8928313
   6.4861042   5.5927960  54.0840639   5.6410534   5.2789037  54.4059231
   6.2959439   5.9425323  53.2135727  71.0587883  67.1228552  17.9126930
  70.3148890  67.5711298  17.5103343  71.0367632  66.2411118  17.5408375
   1.9342175   8.7874727  22.8238416   2.5933972   9.3977575  22.4932885
   2.0289793   8.0108099  22.2724414  34.8941524  32.0466916  61.8006988
  34.2549331  32.2793262  61.1272671  34.3697507  31.8980710  62.5875576
  55.1753443   3.4430342  28.7475801  55.5307286   3.8767080  27.9717827
  55.7494753   2.6895456  28.8848972  17.8072023  65.9474468  25.5197072
  18.2832527  65.7363272  24.7165632  18.4435487  65.8036470  26.2201452
   5.9590752  21.6196744  63.6417987   6.7189629  21.0566680  63.4940584
   5.7517678  21.9739883  62.7770932  71.1858892  64.9769783  14.1213119
  70.3293324  65.3230000  13.8707006  71.0293436  64.5289421  14.9525690
  83.3623752  33.5824124  46.7593874  83.7556824  34.1114966  46.0654010
  82.6986513  33.0567710  46.3128414  20.8676113  78.9190447  65.5844130
  20.6738962  79.5192182  64.8643430  21.6038050  78.3953273  65.2682366
  63.9480346   6.3341646   5.0190723  64.0754717   5.7004385   4.3131095
  63.6915415   5.8038740   5.7735491  29.1957211  73.2455492   7.2109461
  29.5375896  72.6929665   6.5080863  29.1677833  74.1243649   6.8326217
  61.1387975  13.4492986  65.5552925  60.6862409  13.0508821  64.8118611
  60.5268628  13.3571689  66.2855538  40.1629925  79.2302227  40.7566166
  40.4369497  79.2303085  41.6737747  40.4122925  80.0955391  40.4321003
  45.2597141  43.9115047  22.3147154  46.1882591  44.1354465  22.3770022
  44.9376535  44.4285059  21.5763235  21.7172885  61.9124889  54.9054813
  22.5788283  62.2113848  55.1964140  21.8511558  60.9964705  54.6621180
  60.1732063  57.5802803  23.0628920  60.4218960  58.5040951  23.0937171
  60.1587725  57.3054075  23.9796615  84.5955563  56.0170412  55.9888411
  84.0658379  55.3526974  55.5480719  84.0476513  56.8019056  55.9844828
  18.4305055  27.9038922  61.1854817  19.2401845  28.3590428  61.4167591
  17.9426772  27.8504006  62.0073058  66.5583008   5.2074842   8.0879235
  66.8238204   4.8339300   8.9282721  66.6202157   6.1540155   8.2163042
  27.8717303  75.7169104  31.5998673  27.1953559  75.1422215  31.9583082
  28.5344982  75.7654905  32.2887850  66.1312532  67.1835756  60.9874964
  66.8717337  66.7479944  60.5653715  66.4597178  67.4304914  61.8520069
   9.6627894  33.7521296  29.4602871   9.0352145  33.0915003  29.1671109
  10.5098000  33.4324865  29.1494393   1.2401619   4.3973570  21.8659234
   1.0660878   3.4752016  22.0544720   2.0445958   4.3880682  21.3472342
  17.4238339  36.4411192  55.8139849  17.7210608  35.5716352  55.5458832
  17.0062914  36.8030577  55.0323868   1.6574326   6.8334227  38.6465883
   1.3471308   6.2463884  39.3360353   2.3737135   7.3218565  39.0523124
  13.8403788   6.9120150  39.3121767  13.4201708   6.6789083  38.4843373
  13.9832011   6.0742121  39.7525382  78.7792008  34.6708803  58.7879372
  78.3241551  34.4012766  57.9901409  79.2418569  35.4715757  58.5408306
  78.7750762  24.6385508  25.3981900  78.2332700  24.5758181  26.1847925
  78.5696023  25.4995279  25.0338674  13.7390516  71.6092587  32.7152514
  14.2016694  72.3088503  33.1765461  14.2281244  71.4954853  31.9003320
  52.7170372  78.1115818  16.8623424  52.1786690  77.3605156  17.1119094
  52.3331451  78.8494253  17.3361015  73.7452126  78.7887239  32.7061415
  73.0578756  78.5970449  32.0681310  73.4412670  79.5769978  33.1561065
  67.0113366  34.9572306  32.7381134  67.5191229  35.7410650  32.5284052
  66.1247819  35.2814703  32.8966045  63.1760073  70.4180956  18.1586838
  64.0842676  70.3542233  17.8633654  63.0679941  69.6827459  18.7618625
  44.1134644  51.9312048  14.4743109  43.8037586  51.0652161  14.7395921
  45.0180340  51.7872858  14.1963327   5.1772013   7.1872263  41.9562483
   5.1696720   7.6250582  42.8074121   5.7288447   6.4162188  42.0883846
  82.4995702  21.5422373  61.1368752  83.1026643  21.3526945  61.8556166
  82.0681375  22.3568563  61.3947392  41.7836332  67.9707479  34.4525886
  40.8563280  68.2080030  34.4594145  42.2150469  68.7032747  34.0126801
  55.5731147  10.2919512  16.0635722  56.5213244  10.1620798  16.0798669
  55.3227513  10.3450327  16.9859242  35.6521153  54.6745825   0.0722467
  36.2961531  53.9685774   0.1270359  34.8099422  54.2419863   0.2130905
  68.6609381  17.8833990  12.2682977  69.1698163  18.1504087  11.5028036
  69.2969554  17.4549990  12.8411710  75.0294488  11.0458212  32.9209709
  74.2794793  10.9967928  32.3282027  75.1323503  10.1533537  33.2513595
  40.3892868  12.9393129  31.5166664  40.9895962  12.3338346  31.0816336
  39.8163634  13.2527475  30.8168411  61.3065475  13.1202345  33.7918782
  60.9061020  13.9502554  33.5331798  62.2389620  13.2370977  33.6097288
   4.5167008  33.4036379   8.0797321   4.8448267  34.2972403   8.1799805
   3.8944760  33.2948809   8.7989277   4.8117915   6.6655855  24.3998551
   4.7376671   7.5692301  24.7067022   4.7687903   6.7322664  23.4459496
  83.3164399  15.8272486  26.9209552  83.1508964  15.9576254  27.8546715
  82.5419467  16.1862974  26.4879680  85.8796638   3.2642298   6.9082850
  85.2758973   2.7809362   6.3442522  85.3982347   3.3848219   7.7267665
   5.2048204  71.4805079  19.7750568   5.2708242  70.8149672  20.4598427
   4.6136758  72.1399879  20.1381898   9.3199816   2.3275022  24.9084210
   9.7618761   2.0454817  25.7093096   8.9999428   3.2071524  25.1085067
  60.0533056  65.7638454  29.8259544  60.0410843  66.5995216  29.3593407
  59.2121649  65.3589964  29.6142507  74.4073391  72.3324680  31.1862564
  73.7580395  71.6820812  30.9185958  75.1394701  72.2020817  30.5835867
  29.1952076  10.2565889  20.8215928  28.3291951   9.9786882  20.5232191
  29.8060074   9.7950487  20.2470183  13.7382593   1.1034231  24.3617058
  13.7071839   1.8376856  24.9749923  12.8249636   0.9595423  24.1138744
  79.7183793  16.4592581  21.7838883  80.4644340  15.8986311  21.5709734
  79.9923890  16.9350557  22.5679588  73.7584298  14.9888067  11.3765061
  73.4186547  14.3222361  10.7794523  73.4012168  15.8123808  11.0443199
  74.5026350  61.5808630  26.1665177  75.3189230  61.9282818  25.8070660
  73.9315462  61.4755106  25.4056048  66.6180342  18.2167082  65.5936432
  67.0869368  17.7420263  66.2799597  66.6357058  17.6271563  64.8397589
  30.4343644  17.5019865  10.8326805  29.6528473  16.9627218  10.7115448
  30.7393780  17.6847200   9.9439704  19.8246470  14.2376356  10.8016312
  19.7213164  13.2929068  10.6874001  20.5712834  14.3270330  11.3938916
  65.1530450  19.0743761  54.8175812  66.0168164  19.1574411  55.2216005
  64.5816629  19.6180754  55.3599310  26.1585942   2.8349333  64.8609447
  26.5143624   3.5683088  64.3591309  26.8999710   2.5139551  65.3743315
  40.9763082  72.4804271   6.8813835  41.6313156  72.8018725   6.2618099
  41.3831647  72.5937999   7.7403627  84.6780597  42.0037139  11.3754879
  83.8445841  42.4638427  11.2763153  84.5612823  41.4621795  12.1560894
  75.1305240  15.6952219  30.2723455  74.4552415  16.2829618  30.6111336
  75.8854096  15.8442812  30.8416986  18.1126626  25.3392327   4.0137325
  18.4413179  24.5516837   4.4473014  17.6070197  25.7912028   4.6892152
  79.6372979  26.1948614  40.0981045  78.9923614  25.6267290  40.5194330
  79.1798108  27.0266371  39.9752593  23.9095345   4.6418123  59.4084311
  23.8934460   4.3044596  58.5127926  23.3156243   4.0672331  59.8915052
  42.7574925  69.0551889  69.3874003  42.3256628  69.7834432  68.9408611
  42.2361092  68.9159691  70.1779755   9.6029067  49.0788603   8.6483788
   9.2972285  48.2518816   9.0210772   9.9595124  48.8388348   7.7931291
  30.2911568  41.2378263  14.1984344  29.7628856  40.5424833  13.8064408
  29.7974730  41.5056467  14.9735343  51.2355320  60.0973379  64.7386338
  52.0552484  60.1341879  65.2315249  50.7689325  60.8944463  64.9898984
  22.7328205  20.1479626  34.5543480  22.2490263  20.3876185  35.3447533
  23.0174518  19.2476702  34.7114849  39.9122953  10.0090623  24.7373557
  39.5028949  10.4708087  24.0056372  39.5370984   9.1290456  24.7052693
  49.0219736   9.8424578  27.8405380  49.1542673   8.9998901  27.4060130
  48.1788111  10.1525521  27.5101590  32.7364404  74.8909223  46.3132204
  31.8454532  75.1939046  46.1383595  33.1392411  75.6043994  46.8081297
  71.3556496  44.8381286  65.1670350  70.7601229  44.2945838  64.6511533
  71.5416590  44.3156582  65.9472002  28.4796143  14.3518829   7.5088722
  28.2077932  14.8261797   6.7231321  27.7379394  13.7824249   7.7134854
  30.9570074  15.6166995   1.1737031  30.2682734  14.9520051   1.1660945
  30.4858088  16.4495981   1.1957496  60.1503441   9.7465293  69.6351531
  59.3775130  10.2131192  69.9533660  59.9077498   8.8217418  69.6815048
  73.0783036  43.8039732  22.0510745  73.0935612  44.7584963  21.9811916
  73.5965731  43.6127329  22.8327751  69.5132462  62.6728808  61.8363484
  68.7935630  63.2645833  62.0558365  69.4936673  62.0067346  62.5234409
  42.0096922  29.0072680  18.3232379  42.5081968  29.8071742  18.4901834
  41.6200733  29.1437078  17.4596322  60.0479046  65.6252801  66.0281523
  60.7974187  65.9599959  65.5357881  59.5857755  65.0619924  65.4073651
  79.5644681  62.5147426  64.4715031  79.2528216  63.0327737  65.2136280
  79.6366231  63.1438768  63.7537183  54.0749518  42.3156637  60.0710024
  53.9265434  42.7780561  59.2461385  53.5731045  42.8120702  60.7175030
  63.1149570  22.2354853  58.7770237  63.6260811  21.4441681  58.6073150
  62.5111167  21.9852101  59.4762875   6.3674797  68.5074055  70.0611375
   5.7048906  68.7290680  70.7154094   7.1537365  68.3151996  70.5721038
  34.1292429   4.0254983  16.1130977  33.4900165   3.5851568  15.5529916
  34.1900516   3.4696615  16.8900013  85.6524262  11.8714206  56.6910340
  85.3789553  11.5570085  55.8292963  84.8451147  11.8946950  57.2047843
  48.1225348  21.8846440   2.9979450  47.1825838  21.9722390   3.1561974
  48.2087708  21.0615158   2.5170559  48.5180616  46.0782909   7.0275015
  47.8635406  45.9221554   6.3467294  48.0066490  46.2087917   7.8260350
  13.9023101  19.0123796  12.9559422  14.6775889  19.4954646  13.2419574
  14.2424393  18.3443558  12.3607206  37.6938827  63.1779022   3.6701527
  38.5795600  63.1410272   4.0313208  37.3103387  62.3287053   3.8892239
  39.2024112   5.6296045  20.6872129  40.1159573   5.4317468  20.8934140
  38.9465976   4.9533999  20.0598860   8.0884218  36.8297076  20.8783245
   7.4318081  37.5230360  20.9445500   8.5880435  37.0473719  20.0914097
  56.2192027  46.2836903  69.9457179  56.5255443  46.1965292  69.0430613
  55.2650372  46.3079941  69.8735315  50.6907558  39.1827464   2.3545161
  50.4749584  39.4137549   3.2580072  50.6716299  38.2258344   2.3408663
   1.8029068  20.9500456   8.7279999   1.2695962  20.5334568   8.0510467
   1.7975315  21.8794274   8.4989703  27.6508737  45.9869766  26.0631156
  27.9279542  46.4010668  26.8804216  26.9073462  46.5127802  25.7682753
  24.0299708  66.5884776   1.7774698  24.0315682  67.5451179   1.8101914
  24.8242719  66.3640804   1.2927341  37.3928785  13.7460876  51.7137623
  38.1374478  13.3539689  52.1699333  36.9822526  14.3117785  52.3676825
  70.3160969  47.2464251  52.9945959  70.6564013  47.4598044  52.1257498
  69.4185797  46.9543832  52.8352072   2.9961092  75.1999242  44.1754580
   2.0846302  75.0192775  44.4052553   3.3210737  75.7429428  44.8936224
  67.3217312  53.5640430  69.3910168  67.2990290  53.5512745  68.4341713
  66.5835277  54.1198647  69.6407157  22.6470763   6.6999070  67.1480991
  22.2497422   7.3210828  67.7584224  22.2062451   5.8699910  67.3301448
  10.7687909  76.3461126   6.1104989   9.8535473  76.4362974   5.8451188
  11.2516553  76.2801070   5.2866560  43.9669514  31.6871142  13.5256934
  44.3330145  31.0486412  14.1377246  44.4489241  31.5420580  12.7115095
  55.0694656  21.5905285  29.5393968  54.2050219  21.9624352  29.7144794
  54.8884201  20.7637024  29.0923953  68.6101095  65.1315534  62.5347056
  68.7991587  65.8232414  61.9006260  68.8383190  65.5143129  63.3818461
  37.2193313  71.1753845  12.6721883  37.3615098  70.5518579  13.3843899
  37.2463560  70.6419516  11.8778682   2.4862869  39.1699290  46.2642050
   2.0513819  40.0051498  46.0924530   1.7855042  38.5930085  46.5680075
  85.1732520  30.9037828  21.5741706  85.4275570  30.0037885  21.3702822
  85.8567349  31.2174940  22.1663427  29.4714451   0.8068550  26.1810732
  29.2214203   0.1777752  26.8578124  30.3013158   0.4739432  25.8394337
  33.3142424  26.0836601  15.4697955  32.4627757  25.9264302  15.0617337
  33.5808992  26.9432974  15.1439869  45.3025007  12.9941249  39.7048593
  45.2655125  13.6573040  40.3941011  46.1301565  13.1626415  39.2545056
  27.7721572  35.0060964   0.6768285  27.0232415  34.6708870   1.1697689
  27.4168563  35.7341933   0.1670564  34.7685027  50.5177164  16.7738080
  35.0469017  49.7679424  17.2997034  34.9152756  51.2752676  17.3402095
  53.1514168  51.8508911   9.5961159  53.5672998  52.2904539  10.3377759
  52.2809172  52.2451973   9.5414340  32.4741340  39.1022420   9.8519033
  31.8387222  38.3940530   9.7472495  32.7933407  39.0069580  10.7492661
  62.6949708  56.6795384  52.0126750  62.6609985  56.4926958  52.9508473
  62.8854767  55.8338499  51.6067793  79.4679308  35.6835246   4.0971962
  80.2772999  35.6818533   3.5861617  79.2090082  34.7629452   4.1387445
  24.9073076  31.5629172  40.3324318  25.4611158  31.5254998  39.5526075
  24.8046613  30.6488633  40.5973864  34.3383193   2.7761585   6.5730935
  33.7353969   3.4362853   6.9150704  35.0814700   3.2797256   6.2408602
  70.4831807  71.2238490  56.3018419  69.6567885  70.7408702  56.3079728
  70.6264893  71.4649450  57.2170295  62.8698969  24.5882964   7.1569818
  62.4146795  23.9540672   7.7108419  63.2932091  25.1849818   7.7742386
  64.9774704  11.3829534  69.4184578  64.9911103  11.2432401  68.4716071
  65.7159558  10.8701198  69.7468970  37.9823589  52.9502153   8.4456050
  37.9452538  53.3109331   9.3314594  38.6771441  52.2929001   8.4835637
  33.2833338  23.5110092  16.2318742  33.3114266  24.3906856  15.8555603
  32.4041843  23.4373236  16.6032231  49.8826742  48.0146217   9.4904405
  49.2510128  48.0731964   8.7736392  50.6374216  48.5187435   9.1863757
  75.5031602  60.0777447  53.5108234  74.7969357  60.5956876  53.8971056
  76.2309233  60.1687061  54.1258981  71.9156620  66.5588243  10.3278673
  71.5440414  65.9608383   9.6793747  72.4854979  67.1374936   9.8212504
   1.1661798   2.0379893  71.4174243   0.4375464   1.8108289  70.8397340
   1.8369181   2.3876016  70.8308145   8.1595857   4.1394441  62.5681986
   7.9792578   3.6143176  61.7884828   8.6812860   3.5648982  63.1285198
   1.4623830  42.0395517   1.1881222   0.5596444  41.7869663   1.3817424
   1.7393491  42.5437689   1.9531624  19.3815143   0.4023759  29.6122565
  18.8093287   0.3338162  28.8479676  19.0088946   1.1182372  30.1269736
  21.6379857  58.3170986   7.3710054  21.3181639  59.2087698   7.5083768
  20.8447838  57.7845907   7.3118663  57.5588983  11.5241353  70.6352698
  57.7662362  12.2546069  70.0524729  57.8650357  11.8100612  71.4959424
  84.8394618  71.9357736   2.7519545  84.5197639  72.5865878   3.3768275
  85.0293884  72.4377741   1.9593921  84.8888493  73.5331249   0.6082267
  85.0224972  74.4737434   0.4915909  85.5099106  73.1262302   0.0041186
  35.4535580  20.1151419  12.6198363  34.8450279  20.8522630  12.6705813
  36.0526347  20.3475285  11.9103742  54.5049636  74.8427903  64.2704393
  54.3190638  74.3094718  65.0432541  53.7610642  75.4419434  64.2083140
  25.8459503  77.1314871  51.2162890  26.1275617  77.9540288  50.8158507
  25.8087597  77.3218262  52.1536364  23.9902616  51.9839764   2.0702158
  24.7694635  51.4739799   2.2915259  23.4852934  52.0146084   2.8828043
  13.8231075   5.0965869  15.2465272  14.5531642   4.7205162  14.7547758
  13.2096982   4.3702057  15.3575742  13.2853998  75.0600206  61.2005301
  13.7383522  74.5817411  60.5060424  13.8837351  75.7705462  61.4315649
   9.6142704  52.6870887  59.2760231   9.3147261  53.4248988  58.7448515
   9.5651681  53.0053680  60.1774217  64.7140169  63.7093544   0.4519181
  65.3966188  64.1905212  -0.0158056  63.8948870  64.1035938   0.1521963
  69.7961728  73.4454357  61.2232669  69.8183076  74.4023621  61.2291487
  69.7287814  73.2017386  62.1464695  55.7174746  66.7903459  48.4357609
  55.3077952  66.7868363  47.5706710  55.9610454  67.7044570  48.5817184
  12.9528386  12.7074067  45.8524622  13.4015853  12.7666108  46.6958823
  13.6448342  12.8348510  45.2035155  26.5481424  21.0275149  22.3126698
  26.7139244  21.7925882  22.8634953  27.3132229  20.4674935  22.4440360
   4.9511129  23.3829276  68.3966513   4.8344142  24.2938535  68.6665078
   5.2770192  23.4391038  67.4983965  23.8928485  22.5063992  23.5212231
  23.9273810  22.9754972  22.6875639  24.1572642  21.6124225  23.3041382
  12.2554433  47.8816080  22.3784876  12.8540552  47.1614122  22.5765181
  12.5532687  48.2147217  21.5319848  51.8504492  79.1742503  62.5058373
  52.4495784  79.1008436  63.2487293  52.1831600  78.5441911  61.8666496
  37.4785137  13.6949253  19.5512354  37.7021241  12.7661216  19.6108496
  36.5262842  13.7063015  19.4544876  11.5247834  29.5069504  23.3600068
  10.8350837  30.1063061  23.6451697  11.0839057  28.6627650  23.2640362
  28.2491732  24.4158626  21.1141205  28.5784745  25.3077793  21.0033131
  27.5662780  24.3283319  20.4491210  28.3342004  29.1177917  25.0309539
  28.9596748  28.5419607  24.5911455  28.5379314  29.0263152  25.9617376
  66.7320585  23.3785129  16.1602187  66.6163540  23.2571435  15.2178204
  67.2692204  22.6348042  16.4333236  34.1929317  20.7791615  26.4979458
  33.4413147  21.1395907  26.9684720  34.1609240  21.1987138  25.6381869
  23.3329533  74.8714840  33.5950984  22.6230971  74.5209515  34.1331138
  22.9391221  74.9982082  32.7319230   3.5801408  24.1327071  16.0980940
   3.1552121  23.2927752  15.9243667   3.0487916  24.7724915  15.6242001
  37.1832061  46.9058561   5.1165158  36.2935615  47.2299147   4.9759790
  37.0644474  46.0581255   5.5448657  33.4444880   2.0029454  33.1259251
  33.7628865   2.8400972  33.4636092  33.7466812   1.3567188  33.7641263
  25.4443113  67.5421655  56.4710655  26.3946367  67.6477754  56.4267959
  25.1223342  68.3932006  56.7682232  61.6635005  74.0959203  24.7760739
  62.3336403  74.5143640  24.2356600  61.6412918  73.1890523  24.4705786
  66.0080568  56.7824113  66.6257270  66.3670699  55.9869873  66.2324833
  65.3065244  57.0479667  66.0311117  14.4129252  64.0879202   3.8785401
  13.5097599  64.1079140   4.1949674  14.4729757  64.8312283   3.2784444
  77.7822749  66.7147696  68.7863055  77.4754969  65.9669029  68.2736545
  76.9980303  67.0399916  69.2283757  74.2159621  58.1264150  67.0641317
  73.7469546  58.8013041  66.5734290  74.9660412  58.5840547  67.4438386
  47.0057249  46.8324852   9.1364813  46.4102221  46.0973120   9.2818236
  47.0893097  47.2464466   9.9954808  46.6073326  70.6600463  41.4441814
  47.3346631  70.5528724  42.0571532  46.8697623  71.3926947  40.8868756
  40.3187758  24.0618865  62.2265025  39.7529847  23.5251586  61.6714932
  41.1914260  23.6847846  62.1146567  16.3621344  58.9564478  35.7382192
  16.4914955  59.5865309  36.4470877  16.7388357  58.1415796  36.0703625
  45.9130526  42.5731564   5.8219558  46.4795113  42.7286053   6.5777302
  45.4321575  41.7756128   6.0430819  18.7901837  25.0550811  52.8479661
  18.6311013  25.9987275  52.8267040  19.7403867  24.9741761  52.9304375
  76.8229691  64.4234287  70.1109748  77.6737181  64.0335667  70.3121354
  76.7509047  65.1645696  70.7124302  79.7024409  72.7741682  29.7623267
  79.4046322  72.9313194  30.6583418  78.9544837  73.0148732  29.2156472
  67.7939224  30.2195358   1.0750829  66.8546295  30.2966523   0.9077103
  68.0002165  30.9696722   1.6327307  41.2072277  57.7536345  16.5834236
  42.1224451  57.7643204  16.3032448  41.2459612  57.5647354  17.5209987
  81.4255312  43.2011461  15.9194529  81.4564415  43.6580992  15.0789356
  80.6918969  43.6037636  16.3841188  53.3262579  71.1201417  37.2621955
  54.1806618  71.5509355  37.2368445  52.7590005  71.6819417  36.7341508
  59.1737366  43.5049248  14.3175173  58.5306883  42.9614782  13.8621187
  59.3428326  43.0400181  15.1369667  63.4524015   8.6550490  53.1954314
  62.9369903   7.8839652  52.9587664  63.8072834   8.9702813  52.3642160
  15.7185841   5.3333652  27.8463554  15.2824366   5.3409326  26.9943285
  16.5129936   5.8505303  27.7133727  48.2192564  54.3255615   8.9452553
  48.0919504  54.3972588   9.8912388  48.5131979  55.1959658   8.6764944
  86.4964120  38.5634605  53.3671560  85.8902280  38.5682469  54.1079296
  87.0943991  37.8391712  53.5516872  81.8863312  75.4250657  53.6893727
  82.3036114  76.0412681  54.2913749  82.1101681  75.7525098  52.8182198
  42.5232283  71.5798866  53.7243177  42.5531904  71.2947309  54.6375646
  41.6198138  71.8675744  53.5927464   3.9015263  10.6743717  22.2490287
   4.3600121  11.4177895  22.6406288   3.3619052  11.0618019  21.5598702
  41.9972944  20.1735997  18.9500403  42.4929380  20.1904297  19.7687495
  42.6624107  20.2488947  18.2658041  18.6194379  11.6662042  55.9703912
  18.5424048  11.6739337  56.9244553  18.4516484  10.7566278  55.7239153
  67.1579722  51.9559617  17.2619879  67.1289459  51.0448785  16.9698930
  67.9130975  52.3292799  16.8074000   1.9331676  22.2973315  36.4477338
   2.7815825  22.0760028  36.0637559   1.4476497  21.4724080  36.4475240
  41.0982847  10.4939783  38.2838392  40.7591867  11.3876832  38.3341980
  41.4542913  10.4224348  37.3981905  41.3689709  28.5781264  15.0076318
  40.7771444  29.3166184  14.8640847  40.8293056  27.9204822  15.4463792
  36.0758257  29.7672677  20.0273705  36.0567284  28.9207983  20.4738665
  36.9965792  29.8977184  19.8005939  48.8228607  19.4635689  22.3498535
  48.5919428  18.5729539  22.6138854  48.7801600  19.9721313  23.1596518
  84.0189674  55.7169867   4.5415422  84.0304222  55.2846098   3.6876377
  84.3190071  56.6081953   4.3627879  23.4922981  36.3830447   2.1577697
  22.7150154  36.4636493   1.6049893  24.0208769  37.1511316   1.9412576
  33.7760115  31.2324405  14.9645853  33.5381293  31.4317870  14.0591002
  33.7240958  30.2783394  15.0213659  30.5626965  26.4726257  23.1493902
  30.8042550  25.7230139  23.6934137  29.8897314  26.1333370  22.5592780
  69.6696472  37.4731874  20.8082247  69.3605614  36.6680336  21.2234664
  70.6239939  37.4023867  20.8291912  46.9487476  24.9044919   5.1861966
  46.9134426  24.8683858   6.1420631  46.2963390  24.2660427   4.8981377
  20.4778194  30.8592963   8.0272728  19.5359790  30.7928991   7.8699166
  20.7535410  31.6184640   7.5135851  11.9845068  37.2410226  22.9933071
  11.0363638  37.3688269  22.9629254  12.1122551  36.5492225  23.6424017
  80.3591904   2.9594247  59.8812856  79.8029742   2.7070491  60.6182792
  80.3774128   2.1851365  59.3188121  67.2610489   6.1618077  49.5135226
  66.9494812   6.9178783  49.0160169  67.4087922   6.5004932  50.3965272
  76.9848076  66.7724239  45.9104432  77.2908417  67.6708471  45.7862963
  77.1857039  66.5752279  46.8253102  46.3718224  66.2321424   6.3374704
  45.6168318  65.8017254   5.9362644  46.6243935  66.9080400   5.7085043
  57.8083658  69.6802282  14.1630507  58.6640024  69.3586922  13.8789201
  57.8539848  70.6277370  14.0350795  64.8187065  49.4482899   9.1484112
  65.6175995  48.9233637   9.0988666  65.1241207  50.3542566   9.1017175
  19.5622361  57.5276709  21.1147165  19.5406508  57.2590971  22.0332098
  19.8064566  56.7339182  20.6387496  24.4321210   3.3319490  57.0449616
  25.3586680   3.3085219  57.2841038  24.2513902   2.4572246  56.7008283
  52.4371624  33.6078238   8.6115503  52.7644587  33.0034590   9.2777723
  51.5513706  33.8265300   8.9009941  65.6266839  18.5489480  44.2295493
  65.9579236  18.9626233  45.0266566  65.1967198  19.2586009  43.7523140
  55.7040683  82.0521152  51.3903024  55.7887737  81.1938941  51.8056538
  55.7760660  81.8726527  50.4528369  36.7682028  16.4332271  17.8420651
  37.0692968  15.6799388  18.3501303  37.0107603  17.1922421  18.3724368
  24.1482043  24.1844630  15.0829494  23.8535929  24.7130370  15.8245993
  25.0230098  23.8872409  15.3331649  20.2128649  59.3730068   4.3312177
  20.5941868  58.5104609   4.4950485  20.3728008  59.5328426   3.4011078
  78.2996082  20.8532524  20.0175929  77.9545450  19.9613810  19.9760413
  79.1318846  20.8102369  19.5467401  51.7330551  48.3930206   2.2871998
  51.0671234  48.1270695   1.6531363  51.3704252  48.1394577   3.1359851
  11.3943648  42.5992775   5.1183844  12.0045102  43.1082535   5.6521392
  11.6101742  41.6870499   5.3120458  67.9369497  36.6753387  12.9641163
  68.1307316  35.7429194  13.0604219  67.8609085  36.9981527  13.8620245
  32.8276348  24.8697305   5.6820816  33.4400034  24.9659109   4.9527085
  32.9061770  23.9516473   5.9412855  36.1517930  21.4155960   7.7335894
  35.9307289  22.2204995   7.2650880  35.8747816  21.5793991   8.6350679
   2.9041392   7.9657428  61.3405688   2.9487259   8.6934201  61.9608362
   2.3311622   7.3257844  61.7629196  38.9272666  21.8054819  24.5352817
  39.4205070  22.4753308  24.0617347  38.5844660  22.2597456  25.3049326
  54.7890902  41.8960571  10.3871429  55.5887890  42.3737335  10.6074607
  54.3675184  41.7327356  11.2308466  43.1374121  25.2585602  13.4248483
  43.3246803  25.7877779  14.2001486  42.8911829  25.8953476  12.7539492
  16.9122601  49.3041563  15.0154471  17.3312604  49.1318035  14.1722608
  16.7527092  48.4359312  15.3855324  13.3019674  24.0774846  17.4646139
  13.0677986  23.1753516  17.2465539  14.1237295  24.0011072  17.9494894
  12.3044831  20.2645604  51.2752284  12.5834138  20.2122085  50.3610672
  12.6509864  19.4680326  51.6773583   4.4618223  45.3793430  26.7791033
   3.5918519  45.1505375  26.4519525   4.9897668  45.5020285  25.9901452
  35.0622821  44.2794895  23.5162282  34.9807644  45.2242899  23.6464071
  34.9216175  44.1540051  22.5777745  45.7572031  30.4809451   2.8310239
  45.2379131  29.7194362   3.0892402  46.1410522  30.7975268   3.6487442
  32.2576284  26.0529852  34.7613192  31.8128061  26.2472010  33.9363074
  32.5613165  25.1505756  34.6630311  29.1256714   7.4358648  11.9818318
  28.4831667   7.1256465  12.6199424  28.6051416   7.6765364  11.2154400
  22.9946780  18.1271839  19.4531798  23.6462402  18.5223877  20.0324130
  22.2608376  17.9127681  20.0291467  26.8671751   2.1778853  11.9027591
  27.2095132   2.6739487  12.6463699  27.4950385   2.3384157  11.1983097
  34.8721361  15.0406933  11.0021639  33.9744139  15.0414681  10.6700063
  34.9470329  15.8597255  11.4918649  46.8029356  62.4818134  11.0521114
  46.9459057  62.1409845  11.9350755  46.6356373  63.4155655  11.1799872
  41.1424402  76.9886148  64.7606482  40.3714923  77.0783579  65.3208418
  41.2529759  77.8531873  64.3650116  37.0416522  17.5853443   8.0713058
  36.1608171  17.7516222   8.4070289  36.9115996  16.9638836   7.3549932
  42.6990420   1.6012780  27.2049631  43.4875400   1.2172715  26.8215050
  41.9899804   1.3195149  26.6269745  67.5392342  76.8796825   2.2037944
  67.2181273  76.3186884   2.9097736  67.3463488  76.3914728   1.4033715
  71.7135141  78.8347481  12.4265039  71.0344073  78.3182610  11.9925821
  71.6222415  78.6189301  13.3545792  43.1463528  30.5204964  26.2929249
  42.3567486  30.9494066  26.6227674  43.0276108  29.5969176  26.5145850
  44.7149849   3.4649608   8.0570269  44.7336245   4.3183130   7.6238126
  44.4426584   3.6577109   8.9541996  11.9532347  17.6384783   9.2746145
  12.5827634  17.1059787   9.7607934  12.0117581  18.5052097   9.6765888
  24.0454998   9.3135195  34.9042988  24.4822255   9.2283373  34.0568042
  24.4923249  10.0442438  35.3316307  25.1774842  22.1360747  52.4797441
  24.4019134  22.4556462  52.9408302  25.7946069  22.8669755  52.5139799
  60.3636448  68.8263976  58.4601797  59.8247973  69.0411269  59.2216040
  61.0507790  68.2567632  58.8059999  53.4085417  67.3181200  16.1633766
  52.8046560  67.5529385  15.4588103  54.1369295  67.9319477  16.0690451
  33.8857514  21.9749944  68.2421308  33.2503421  22.3848311  68.8290896
  34.1275317  21.1600987  68.6822670  42.6066446  19.6568871   3.7726662
  43.3359766  20.1957107   3.4661102  43.0234385  18.8839805   4.1536224
  24.4477201   2.1301171  17.5153184  23.7929559   2.0782030  18.2116091
  24.8658609   2.9816747  17.6427519  65.5755822  81.9640624  62.0878722
  65.9536807  82.6656138  61.5576811  65.4575459  81.2380063  61.4753868
  64.1556756  73.4671604  67.6038860  63.4345810  72.8457105  67.5036125
  63.9600770  74.1640889  66.9775762  34.8797471   9.0946548  67.8423341
  34.5690877   9.4432323  68.6779292  35.8206183   9.2706840  67.8443335
  29.9854762   3.0842750  39.7975053  30.1787383   4.0021770  39.6068825
  30.0311000   2.6481978  38.9466299  26.0219107  45.7896655  63.2970573
  26.7986242  46.1351680  63.7370302  26.0948444  46.1079537  62.3972769
   9.0217769  38.0648851   4.1870588   8.5349548  37.6899862   3.4531060
   8.4766531  38.7909937   4.4901046  85.7645473  62.6255388  20.8034062
  86.0091672  63.3612175  20.2420068  84.8557028  62.8017504  21.0466790
  45.6464700  46.9710296  66.6712757  46.1407892  46.8008464  65.8694543
  46.2489609  46.7388594  67.3779108  43.0707932  54.3475151  14.1987824
  43.4815025  53.4900522  14.3097222  43.6814880  54.8359823  13.6467957
  82.6980314  66.4201362   7.1666670  83.4361014  65.9246202   7.5215584
  82.2528205  66.7718132   7.9376024  57.4271154  64.7039461   9.0017664
  58.0046225  64.4517422   9.7222596  56.7379189  65.2221298   9.4173735
  46.8331051  36.0951519  -0.1429791  47.6497364  36.5816998  -0.0306453
  46.1812067  36.6077471   0.3350402  52.6842372  72.3971641  40.8879413
  52.8640119  73.1751120  40.3600110  53.0954901  72.5806295  41.7325963
  31.8975568  42.3175144   2.5888360  31.6527748  42.5329638   1.6888952
  31.1118174  42.5052547   3.1022537   8.0777056  64.5717926   0.5767314
   8.8321502  64.5969398   1.1652994   8.3145887  63.9259322  -0.0888385
  32.8191853  27.3559690  29.9810553  31.9194412  27.6679587  30.0777817
  32.7651072  26.4144278  30.1447749  31.4280510  29.7970223   1.3102864
  31.5923357  30.2562284   2.1339190  30.8517909  29.0717053   1.5512694
  56.8573570  50.4799795   9.1625357  57.7069187  50.3416824   8.7437850
  56.3436651  50.9565687   8.5104489  83.1440982  26.8053071  57.8317680
  82.9674658  27.5217883  58.4414305  82.2790179  26.5311210  57.5273206
  15.8411443  49.3905592   4.7341725  16.6917193  49.1593409   5.1073897
  15.5961144  50.2011156   5.1804858  16.3198430  10.9086482  65.7028576
  15.8004291  10.4085080  66.3323848  16.5297563  11.7234532  66.1592113
  49.8191690  15.3849018   5.8904886  50.1364660  14.6158552   6.3639021
  49.4965696  15.9712160   6.5748841  82.3120364  65.5964994  21.1910915
  82.7783796  65.8433104  21.9897413  82.4071323  66.3544369  20.6142735
  29.6323705  37.4866486  16.1681676  29.7459817  36.5389681  16.0958683
  30.5140305  37.8426743  16.0579264  59.9381320  79.0115344  34.2289295
  60.3655354  78.2641065  33.8107075  59.6098272  78.6660468  35.0590410
  41.3507128   0.8598033  18.0503643  41.4330673  -0.0171753  18.4250069
  41.9833755   1.3884088  18.5367227  62.6740113  10.4618804  70.9465351
  63.2837567  10.8440606  70.3153610  61.8999452  10.2413480  70.4284438
  27.4967194  50.7335520  16.7583847  27.2340798  51.6517353  16.6936147
  28.2195401  50.6467819  16.1369085  25.6177974  46.6875601  12.3320413
  25.0971150  46.6854429  13.1352341  26.3326335  46.0758924  12.5083971
  63.1650678  66.2391769  48.4860005  62.9250900  65.5687558  47.8463306
  63.5516492  66.9416201  47.9631628  72.5787163  13.6169887   9.2051208
  73.2584429  13.1413269   8.7276816  72.4221849  14.4020462   8.6803210
  74.7604863  61.5000665  50.8412423  74.8424784  62.4048221  50.5397047
  74.1874949  61.0839569  50.1972188  84.1584746  67.0554721  33.3156218
  83.9231602  66.6330897  32.4895181  84.0558974  67.9915154  33.1437673
  83.2938639  61.5081083  56.3039603  83.8830535  61.5967214  57.0531155
  82.5286643  61.0516440  56.6537370  16.6598517  19.9623982  49.7428169
  16.8082911  19.2570035  50.3725876  17.3493487  20.5994670  49.9298276
  61.6225767  23.8162327  -0.0594044  61.5238667  23.0864096   0.5520258
  61.0952759  24.5193648   0.3197901  70.5637852  66.0269248  31.5051450
  70.2566878  65.3468477  30.9056296  69.8178498  66.6196477  31.5972890
  16.2756831  11.4984052  45.1177801  15.6796700  11.0898511  44.4900193
  17.0901496  11.6208188  44.6300401  11.1065108  14.7695128  30.2227845
  10.7964332  14.0456693  29.6786036  10.3202421  15.0918119  30.6633915
  36.8524361  40.4661083  12.3912561  37.7966619  40.5330324  12.5333548
  36.6607976  39.5335531  12.4904931  25.3094053   8.7910390  32.0427799
  24.7312999   8.0441767  32.1984100  25.7713246   8.5718375  31.2335753
   4.5234115  20.0510137  47.8655018   3.6848075  19.5899980  47.8865375
   4.2865140  20.9764974  47.8055586  73.3778903  23.7839286  47.2840466
  73.9376709  23.6313455  46.5227355  73.6998448  24.6043698  47.6574792
  44.2710876  32.9442954  21.6449404  43.5579967  32.4039364  21.9851518
  44.8819304  32.3179626  21.2565899  64.6986675  10.4528213  44.0171814
  65.3106594  10.4946756  43.2823753  65.2354336  10.6413448  44.7869730
  16.8672335  49.7752810  20.9833527  17.5992501  49.8024511  21.5995073
  17.2723234  49.8967886  20.1246500  34.4781518  59.9628353  11.9362509
  33.5686707  60.2605057  11.9146013  34.9869132  60.7274818  11.6665995
  14.8527992  39.8882341  15.7996106  14.8902631  40.3057003  14.9390602
  14.3147731  39.1082191  15.6641996  53.3230536  16.8909674  49.3271303
  54.2562216  16.9306974  49.1177225  52.9665297  17.7124338  48.9890385
  43.8273382  54.0982008  25.6303239  43.6078310  55.0160074  25.7905579
  43.1770945  53.6054897  26.1309767  39.5775509  34.2459011  19.3906879
  38.9422703  34.9122286  19.1286635  40.0598955  34.6461821  20.1141167
   6.2463853  71.9049978  12.1354830   6.2739274  71.2581301  12.8404915
   6.8887994  72.5665426  12.3921919  14.0415564  13.0375414   8.4783906
  14.9723711  12.8193312   8.5252267  14.0192786  13.9944582   8.4844971
  22.0740039  29.7228162  54.6247782  22.4789817  29.6238677  53.7631347
  21.8395288  28.8314311  54.8830141  84.3933010  54.9912691  35.1751566
  84.4938183  55.5075264  35.9749126  83.9881611  55.5932093  34.5508480
  47.3592377  42.8195238  20.6831050  47.5265694  43.6816072  21.0639477
  46.7754269  42.3905373  21.3086963  80.6096077  52.7337027  43.0119228
  80.1829720  52.9466057  42.1819258  80.9941483  51.8689299  42.8686571
  62.6827478  44.3132544   5.8477896  63.1917334  43.5070610   5.9327507
  61.8417454  44.0289497   5.4898506  17.1454348  70.6219279  52.9989328
  16.2520088  70.5287611  52.6682653  17.6137032  69.8685062  52.6393344
  18.4761817   4.1336171  69.7394170  17.8111226   4.5513217  69.1921966
  18.2768781   4.4306008  70.6272863  22.6939392  67.4085236  30.2227688
  22.2965145  67.9072952  29.5089674  23.6352110  67.4621439  30.0573444
   2.0724780  14.5495193  16.5581908   2.3551948  13.6983935  16.8926825
   1.1857612  14.3961303  16.2319483  77.5390959  42.3293972  36.3430500
  76.7950487  42.7840424  36.7379189  77.7287006  41.6111422  36.9467044
   2.6088840  34.6815078  58.6501374   2.0931441  34.4465224  59.4215168
   3.3138973  34.0344684  58.6271884  44.3192387  28.4871316   3.9981952
  43.7955046  27.8135848   3.5642961  43.9324903  28.5664988   4.8701817
   3.2933825  17.5218034   9.3732035   3.1316769  18.3192229   9.8773909
   4.2447552  17.4174762   9.3886232   4.4836995  10.5896568   2.9248038
   3.7403772   9.9922913   2.8420323   5.2194497  10.1107895   2.5432417
  66.1727095  72.1746683  11.9890451  66.3537741  71.7834997  12.8436995
  66.3352013  73.1096220  12.1142900  15.4286206  42.1896553  27.2369933
  16.0719812  42.7282190  27.6977181  15.9251320  41.4289427  26.9352889
  76.6695690  28.2321262  17.3874927  75.9251213  28.5131836  16.8554854
  77.3595572  28.8645506  17.1870172  44.3895578  25.0192738  17.7035940
  43.6621284  25.4769230  18.1250608  44.8977757  25.7130957  17.2834015
  46.6319609  66.6844559  20.8444142  47.3566055  66.2336731  20.4109192
  45.8888340  66.5676498  20.2525115  44.4062662  74.8308372  17.1862113
  44.1527271  75.1140499  16.3077247  45.3504038  74.6845675  17.1275413
  73.0696837  65.0135982  68.6625184  73.7204377  65.2777326  68.0121433
  73.0288903  65.7496225  69.2731212   0.6539342  15.1607156  22.7265096
   0.5255983  15.4280984  23.6366034   0.1757619  14.3350744  22.6497412
  10.4171807  25.7138602  60.7837083  11.3635499  25.6581561  60.9160544
  10.3155524  25.8738057  59.8454537  74.2431704  76.0116016  68.7138860
  75.1919619  75.9210169  68.6254648  74.1244856  76.5104878  69.5221313
  82.9493618  56.9271660  49.0596390  82.1017170  56.7878294  48.6373711
  82.9683590  57.8639603  49.2553139  27.4075753  16.9292705  58.1006290
  26.5042026  17.2126691  57.9598154  27.6202876  16.4122884  57.3236384
  18.7044621  68.7903547  23.6460042  19.2325211  68.4110737  24.3485236
  18.3627343  68.0344582  23.1684327  41.0883004  33.1304662  68.6507444
  41.2785966  32.6866357  69.4772034  41.5411336  32.6082103  67.9886104
  21.8400104  14.9263064  58.6591031  22.1653516  15.7177798  59.0879955
  21.0055167  15.1898257  58.2712747  12.9730619  59.0971613  56.1137142
  12.4495520  59.8134482  56.4730181  12.3614706  58.3639252  56.0462787
  79.6401843  55.9622192  17.9423416  79.2906335  55.0712729  17.9259789
  80.5221447  55.8801794  17.5795090  36.9832492  46.6278362  21.7458630
  36.2937140  46.8826294  22.3589325  37.5184393  47.4152088  21.6466165
  11.5600402  31.9056098  60.4055108  11.0444219  31.9408242  61.2111970
  12.4391706  31.6607110  60.6942798  29.5628572  38.3113909  10.4321659
  29.0294933  37.8591800  11.0858178  29.2676568  39.2211509  10.4699409
  44.4381523  51.9594002   4.0528759  45.2535772  51.6419601   4.4408801
  44.5930529  51.9256973   3.1088939  45.8184576  69.5205307   1.6207978
  45.6093645  70.0985098   2.3545891  45.1058865  69.6583939   0.9967258
  56.9802911  30.5718343  68.2840394  56.8199307  31.4895074  68.0640523
  56.2334020  30.3218905  68.8280209  38.5270602  30.6022708  62.8383191
  37.8998239  30.9400241  62.1989961  38.7315185  29.7194688  62.5299485
  29.9600983  65.3623915  35.2679253  29.2780995  65.9966612  35.0470042
  30.2792239  65.6428337  36.1256790  50.1934528  60.2290344  11.3266408
  51.1115122  60.3403807  11.0796571  50.1877499  60.3287220  12.2786188
  11.5634210  45.8674972  61.6367109  12.3719365  45.7613818  62.1379806
  10.9147460  45.3525703  62.1166165  28.1996638   2.4689023  66.5743332
  28.9816148   2.9525439  66.3081216  28.1136281   2.6492374  67.5104468
  67.9396343  26.9321704  19.1152132  67.3573446  26.3968611  19.6542990
  67.7565622  26.6554093  18.2173705  30.9109902  58.4493351  12.6340055
  30.5262589  58.9069223  11.8864572  30.8408427  59.0717793  13.3577979
  72.3767138  51.9744015  13.0324471  72.3140001  52.1538353  12.0943093
  71.4716864  51.8331289  13.3103013  71.8709707  34.8548722   5.4452741
  72.0745897  34.5149875   6.3166237  71.9509459  34.0959573   4.8674479
  32.7168918  48.8526583  19.5041716  32.9751539  48.0605412  19.9754286
  32.8966546  48.6539888  18.5852337  75.2165413  31.5518475   1.1988229
  74.4854403  31.6659093   0.5916066  75.8154106  30.9595728   0.7440746
   9.2172620  46.4899874   9.6137422   9.0125081  45.6453371  10.0148332
   8.4707258  46.6712332   9.0427268  26.5471783   5.9426527  10.1472163
  26.9426575   5.2981882   9.5602739  26.2301197   5.4279261  10.8893490
   6.7782845  80.3549063  55.9920253   7.1168198  80.9519469  55.3248157
   6.4219154  80.9298408  56.6692867  19.6973622  44.8294640   8.1718296
  19.0856850  44.8596668   7.4361861  19.6299040  45.6949472   8.5750961
  44.9767399  34.1250968  12.0528996  44.1837502  34.3119454  11.5504181
  44.6590185  33.7205338  12.8601265  37.3991966  47.0671988  11.9149876
  38.1803727  47.0674324  12.4681544  37.3753428  46.1891508  11.5345943
  66.5715274  20.2082030  57.0693447  66.6717467  21.1596744  57.0992293
  65.7687608  20.0363462  57.5615456  75.7874791  67.4700272  57.0136036
  75.0614373  67.4941957  57.6369049  76.3576571  68.1905019  57.2820153
  29.0852261  47.3579264  33.5117841  29.6063352  46.8985081  34.1702747
  29.5476389  48.1847095  33.3745193  41.9280148  60.9625530  16.8642998
  41.5371561  60.2006531  17.2920501  41.1918592  61.4023113  16.4389539
  33.5426760  78.4820414  20.6336737  33.0011749  78.1056976  19.9398661
  34.1405058  77.7763510  20.8803129  73.3702716  54.2445437  65.2346696
  73.0371401  53.4411876  64.8348143  72.8419003  54.3556182  66.0250594
   0.7462937   6.2062709  47.4583735   0.5568821   7.1085898  47.7156176
   1.3607199   5.8920686  48.1216897  86.5699761   1.0432940   4.4581461
  85.7101720   1.2644129   4.8160183  86.4175790   0.9328394   3.5196325
  16.6174546  11.1939936  37.2695208  17.2650996  11.1220484  37.9706717
  16.3323489  12.1072512  37.2995996  48.5674906  37.0216107  14.0077472
  48.8469076  37.0348263  13.0923331  48.4780073  36.0919642  14.2174602
  66.0289431  36.9613314   5.9401035  66.1570358  36.7623639   6.8675923
  65.2727747  37.5479794   5.9232014  63.9376450  69.3125010  13.6777282
  63.3320808  69.5793629  14.3693280  64.6895075  69.8961067  13.7793767
  30.5640268  54.5993662   6.1024374  30.5626154  54.4622660   7.0497668
  31.1635733  53.9338446   5.7650071  26.0295820  38.4868479   5.5050498
  25.8709550  37.5462008   5.5841434  25.1597404  38.8669062   5.3819114
  70.0370210  23.2529860  10.9494054  70.3366654  22.9649000  11.8116403
  69.7341388  22.4522619  10.5212355  86.4199338  14.6551244  66.1272912
  86.5778694  14.6113936  65.1842238  85.8869753  13.8829724  66.3169439
  54.3495989  49.5120955  13.2215977  54.8487949  50.2057314  12.7904379
  54.0036488  48.9835358  12.5024498  69.2230622  51.0100370  66.4614989
  69.5612542  50.1322960  66.6387843  69.7312419  51.5830040  67.0356889
  62.1685410   5.0996226   0.1741125  62.1444702   4.1520149   0.3071236
  61.3578415   5.4178905   0.5712363  44.1687202  27.5786495  19.3969738
  44.7261524  28.0975509  18.8171065  43.2854414  27.6943064  19.0467334
  64.6110106  54.9945307  21.2959576  64.2610979  55.8845615  21.2555385
  65.3206539  55.0450182  21.9363379  62.5889015  28.2204008  12.3892295
  62.1081972  27.6983380  13.0315697  61.9147062  28.5476756  11.7937601
  37.1775532  61.7238140  20.3731394  37.8431797  62.2129297  19.8894668
  36.6031075  61.3669586  19.6957183  21.9752622  65.3255892  24.6550059
  22.8041005  65.7806873  24.8038292  22.2277164  64.4186497  24.4819212
  23.7620173  74.8907911  60.5188491  24.3172274  74.1584432  60.7865085
  24.0958540  75.6382405  61.0149373  30.2018189  12.0890594   8.1621045
  30.7870269  11.7080772   7.5074172  29.9057460  12.9103863   7.7696818
  60.9542990  26.4374709  26.9717264  60.2652788  26.9315815  26.5275025
  61.2766266  25.8269072  26.3087416  32.9039598  72.1203423   1.1741547
  32.3144817  72.4734735   0.5077886  32.5914168  71.2277079   1.3216421
  16.1574227  12.9436891  50.1249899  15.8254010  13.0178802  49.2302908
  15.8473880  12.0893876  50.4254474  66.1136119  76.4833223  70.1118279
  66.1592189  76.6876161  69.1777958  65.2214710  76.1624276  70.2435315
  68.9932483  11.4080267  15.4677880  69.8346560  11.0233335  15.7132971
  68.7024682  10.8892946  14.7177207  61.1066238  74.5072424  53.8152482
  62.0387451  74.7231352  53.8430466  60.7907073  74.6955096  54.6989812
  70.4447508  18.6751771  10.0057936  69.9533844  18.1465626   9.3770152
  70.3095675  19.5777774   9.7172284  21.8222584  69.9327600  55.2856912
  22.6806654  69.9141466  54.8625912  21.9119467  69.3444359  56.0354008
  31.1681962  61.2066936  21.1109519  30.3834295  61.6583109  20.8004427
  31.7478800  61.1828995  20.3496170  63.2273045   4.6451823  64.9261512
  62.9700595   5.0181739  64.0829839  62.6778475   3.8672130  65.0215389
  45.3705174   9.9146478  66.9218408  45.7719762   9.7155587  66.0760112
  45.7809360  10.7352750  67.1945291   7.1627528   9.6178405  64.0142621
   7.0678527   9.3942134  63.0884023   6.8024404  10.5017869  64.0853097
  75.1933447  78.7158978  52.1536471  75.9211508  79.2538821  51.8420328
  75.3236167  77.8677904  51.7294158  56.4516163  17.2728539  16.3556564
  56.5407276  17.1306825  17.2980368  56.3881683  16.3923848  15.9855461
  43.0879927  19.3996525  25.7029700  43.0509901  18.5970557  25.1826811
  43.5910940  19.1579974  26.4806080   7.5496203  12.7301852  59.9578621
   7.4421150  12.2743623  59.1230561   7.1518905  12.1454780  60.6029691
  81.1939240  22.9148316  16.5037501  80.7320881  23.5910654  16.9993758
  81.1822414  23.2301617  15.6000555   5.3438852  49.7972298   1.9854096
   5.2271936  50.4523754   1.2973672   6.0979841  50.1078606   2.4864961
  56.0842378  13.0315368  67.6510860  55.2724511  13.4025876  67.9968395
  56.0313088  12.0997493  67.8636925  29.0551019  56.7527008   9.6115726
  29.8159337  56.1924458   9.4583303  29.3662405  57.4159241  10.2276587
  64.7614622  78.6194515   2.6459548  65.0880146  79.3656206   2.1431352
  65.5483866  78.2106209   3.0062848  84.4176397   4.9289052  68.9359697
  85.3696642   4.9674861  69.0275835  84.1046557   4.6593492  69.7994583
  50.8961153  57.7355194  22.4277568  50.6312656  58.5283136  22.8941894
  50.5814505  57.0178270  22.9774261  28.6955237  44.7114515  19.1978705
  29.5244074  44.5743752  19.6565604  28.1820989  45.2609444  19.7900558
  53.1693602  46.6101265   5.4689062  52.4046993  46.9644690   5.9227377
  52.8032303  46.0681295   4.7700346  69.3803549  49.4214678  20.2608347
  69.9208212  49.4048882  19.4709921  68.5397196  49.7737265  19.9684763
  13.2288892   1.9580857  28.7458290  13.1483800   1.5397756  29.6030106
  14.1312177   2.2763364  28.7184300  12.1921594  34.0423123  49.1765417
  11.2978084  33.7030999  49.2125477  12.4659116  33.9002292  48.2703938
   5.9008278  40.7078351  59.0983190   5.6135429  41.5431212  59.4670965
   6.8287195  40.6517247  59.3265750  19.4925045   4.3933516  13.1167746
  19.7808640   4.3484430  14.0284014  19.8269784   3.5890989  12.7198708
  13.4994924  41.9417048  16.8162060  12.7690148  41.6181469  17.3434103
  14.0234518  41.1627626  16.6292679   6.8301422  19.4701020  57.3145487
   7.6297624  19.9912183  57.3872055   6.2172825  19.8860185  57.9208888
  44.0765667  36.6265750   2.9194328  44.6704912  36.0840631   3.4382415
  43.3580160  36.8338633   3.5168844  35.4374361  53.0135489   4.3942896
  36.0922527  53.4607792   4.9304175  35.6935549  52.0916939   4.4228435
  63.3032131  57.2813559   1.7262195  63.8676167  56.6523838   1.2766968
  62.4164677  57.0440006   1.4549625  84.3062019  45.9987593   5.1930004
  83.9041233  46.8078279   5.5091876  83.6170483  45.5718040   4.6840632
  57.9291677  41.2760925   7.8993642  57.3372793  42.0257902   7.8372407
  58.6737061  41.6001034   8.4062320  59.6951294  51.1854410   0.6431799
  59.9993467  50.9252882  -0.2263074  59.1621351  50.4482269   0.9409431
  74.3651724  38.2674551   7.1146333  73.5282993  38.6245227   6.8173480
  74.2920446  38.2484531   8.0688471  27.1731860  26.2010686  58.7215676
  28.0769736  26.0703914  58.4346451  27.1698529  27.0749633  59.1121103
  51.8462149  79.4289529  57.9370763  52.1223203  79.8666417  58.7423243
  52.0521728  80.0540053  57.2420050  16.9314218  26.9671297  11.7617786
  16.8132818  26.7015505  12.6737773  17.2532213  26.1797500  11.3227928
  30.5043697  29.6097875  34.8455548  30.0038910  29.3743134  34.0643358
  31.3272834  29.9614143  34.5058441  61.8562603  35.1174283  24.0233016
  62.3686218  35.6090617  24.6651864  61.5798759  34.3290710  24.4905663
  35.7206288   9.9841433  33.5123968  36.2726632   9.3358355  33.9496469
  34.9298516   9.5017366  33.2711792  21.9206817  23.7992398  68.5347392
  21.5142543  24.5379369  68.9879273  22.5752599  23.4708755  69.1511278
  14.9986798  81.9395214  11.9554877  15.2233083  82.1088374  12.8704226
  14.6019322  81.0684543  11.9635165  21.0317779  61.1901665  28.0152655
  20.2953458  61.6092920  27.5700331  21.3015246  61.8235779  28.6802912
  60.4775667  46.1744308  20.9110093  60.2009392  46.4379501  20.0333595
  60.6154156  46.9993925  21.3764834  43.8713939   5.9522216  55.3864362
  42.9545314   6.2056510  55.2797987  44.1902358   6.5022103  56.1020376
  47.0032167  34.6556640  10.4202676  46.8747854  35.5184722  10.0261867
  46.2456799  34.5390821  10.9936619  41.4317799  65.9563971   6.0823536
  40.5912828  65.4998970   6.1198276  41.1993456  66.8846560   6.0590875
  18.8397813  26.5649724   1.6133268  18.5301125  26.1617374   2.4243383
  19.0262175  27.4726939   1.8531471  66.0471252   8.6796252  48.2665004
  66.0879860   9.6024863  48.0157151  65.6712517   8.2405107  47.5035252
  30.1371518   8.7517481   5.9987098  30.6442108   9.3630342   6.5329933
  30.5583134   8.7782793   5.1395524  43.8865185  53.4039354   0.5749017
  43.6674976  52.4734449   0.5254458  44.8293447  53.4196520   0.7394175
  25.0235844  27.8186417  22.4781132  24.7425652  27.2420406  21.7676258
  24.2148542  28.2224393  22.7929688  63.3969450  46.7600536   4.4983390
  62.9511309  46.9554615   3.6741418  63.0386972  45.9149885   4.7699198
   8.0076310  33.1311154   0.3829191   7.2483728  33.2791805  -0.1808508
   7.8675840  32.2577715   0.7488243  79.6867618   6.4927451  47.7413883
  78.7766323   6.5482585  48.0326237  80.1235017   5.9749858  48.4177126
  67.9109621  73.0678797  22.3780131  68.6004305  73.6525536  22.0633411
  67.3169088  73.6386204  22.8654432  77.5527022  37.6753013  27.5348009
  77.8870937  37.4903695  28.4124197  77.0590851  38.4894816  27.6332154
  27.1816683  41.3275719  20.7475567  26.5204549  41.3943624  21.4364457
  27.6581907  42.1565485  20.7917666   7.4087030  54.6179931  59.1725661
   6.5339477  54.2461078  59.0597071   7.3749907  55.0556247  60.0231947
  60.8079855  77.2554385  70.1263104  60.1098124  77.3804700  69.4835426
  60.3618566  76.9133865  70.9010375  48.5791016  57.6499987  20.0503731
  48.1085157  56.8230867  19.9454832  48.4748268  57.8691435  20.9762955
  18.1644453  58.6293137  63.6319407  17.4948420  58.3154702  64.2396929
  17.8159536  59.4557178  63.2975127  27.1210582  14.1420285  59.1648330
  26.3943631  13.9803378  58.5631647  26.7821843  14.7919004  59.7805168
  78.3192269  75.0184118  58.5171666  78.9472787  74.5503461  59.0673437
  78.7679736  75.1243627  57.6783361  59.3302965  60.8371305  29.7187233
  60.0158787  60.5347919  30.3143764  58.7419796  61.3511038  30.2718496
  52.8314454   8.9284675  44.8722686  52.0941598   9.4170205  44.5062556
  52.8300340   9.1540019  45.8025183  67.7098083  38.0333591  10.7951045
  67.6778173  37.6859713  11.6864693  68.3435488  38.7493348  10.8396828
  53.4184211  12.9737787  36.6979170  52.6497429  13.2159643  37.2143626
  54.1489547  13.0329161  37.3135924  50.4139519  42.6266098   4.3850487
  51.2060976  42.0985794   4.4846201  50.3090096  43.0628014   5.2305996
  49.5356894  78.0051184   3.4730905  49.8522234  78.6054420   4.1481063
  50.0846863  77.2267962   3.5682178  40.7800452  75.0473439  36.8535532
  40.8154635  75.6352269  36.0989870  40.7873336  74.1689241  36.4733495
  72.4314133  77.3555767  40.5368723  73.0953185  77.2420275  39.8567500
  72.9100243  77.2490227  41.3589491  39.7586322  42.4857903  16.6738641
  39.3755722  41.7375374  17.1317077  40.6848192  42.2620821  16.5824246
  50.2456141  72.2676992  13.4507847  50.7935715  71.8928242  14.1403079
  50.6265306  71.9385767  12.6366496  48.7442255  38.9029694  18.1747818
  48.9939356  38.3045244  17.4706936  47.8628397  39.1937780  17.9406321
   5.0551140  17.6902831  13.7495852   5.5735958  17.2657335  14.4330812
   4.2129114  17.2358859  13.7707877  33.0146987   5.0378482  49.1284003
  32.3388440   4.6604793  48.5653343  33.7925775   5.0818841  48.5723509
  26.3703966  64.7304821  16.9601607  26.2812066  63.7982512  17.1582019
  26.1614156  64.7984886  16.0285318  57.0549917  33.0426359   9.8812318
  57.4364853  33.8594198   9.5594239  57.8091049  32.5051141  10.1233387
  33.9362192  72.9321575  36.8941498  33.4031463  73.1636000  36.1335588
  34.0504003  71.9841623  36.8270802  57.5929165  67.6954603  20.2747869
  57.1227121  68.5096550  20.0952792  58.3507252  67.7227354  19.6906471
  78.5106549   1.6058843  69.0607962  78.2985005   2.5369613  69.1265120
  78.1195674   1.3290278  68.2321652   0.6180624  32.6373879  63.5423906
   0.2611975  33.4671990  63.2257028  -0.0394102  32.3132770  64.1579493
  32.9194464  76.1977827  27.7007450  32.0863737  75.8382856  28.0056824
  32.6752676  76.9747173  27.1977724  24.2061765  42.8553073  69.2587488
  24.2209966  42.0733325  69.8105845  24.2781884  43.5844867  69.8746525
  53.5833645  73.1701136  11.9228709  53.7277603  72.9962873  10.9927273
  52.8242683  73.7528801  11.9426000  34.1585350  59.3467283  24.2543101
  34.7953606  58.8621664  23.7290597  33.3497000  59.3103170  23.7437296
  60.1773602  31.7995660  54.0501119  59.4093663  31.5263478  53.5483386
  60.3033120  31.1024253  54.6938195  77.4681187  24.7306943  10.8668077
  77.1351433  24.4984388  11.7336512  76.7121077  24.6379781  10.2870846
  85.9710162   1.0293131   1.4542885  86.8779653   1.2469702   1.6694613
  85.9943860   0.0986414   1.2317208  74.6174812  41.7682600   8.0567491
  75.0052834  42.6288271   8.2156968  75.0207853  41.4707375   7.2412390
  66.8599319  62.3375320   5.7628292  66.2223911  61.6271830   5.8347684
  67.0186806  62.4225903   4.8227251  55.9164088   6.5364580  14.3237185
  55.3817409   6.3626795  15.0984216  55.7565110   5.7875471  13.7494385
  48.7826777  80.2050114  15.8280969  49.2503595  79.5082998  15.3675663
  49.3255806  80.3923321  16.5938640  31.5310693  23.1059790  45.3923607
  32.3809767  22.7158952  45.1880884  31.1566091  23.3246851  44.5390224
  46.7474270  64.8850203  12.6500034  46.2333632  65.6867886  12.5544167
  47.6520157  65.1882839  12.7273560  29.5783240  19.7493188  61.1193045
  28.9211232  20.2829139  61.5660693  30.0633437  19.3246238  61.8268515
  20.9034068  27.8066604  62.4318596  20.9887654  27.1106784  61.7802836
  20.8221347  27.3448579  63.2663448  80.9220791  49.6152592   7.3225337
  80.5132675  48.7726212   7.1248937  81.8399811  49.4996166   7.0769185
  62.6815367  80.1433372  27.8387809  63.5389090  80.5150127  27.6314116
  62.2009802  80.8631611  28.2476234  12.2645376  80.2415848  18.8149166
  12.3469922  79.9039030  19.7067714  11.3745210  80.0076389  18.5515547
  81.3284397  45.7348537   0.0563443  80.7096767  45.2161980   0.5705011
  82.0020390  45.9958267   0.6843491  73.9731073  62.8052473  41.5849209
  74.1455269  62.2449350  42.3415947  74.4392586  62.3832417  40.8632231
  36.5287161  29.7372580   7.9734004  36.3615227  28.9035439   7.5338531
  35.6649780  30.0347972   8.2591653  77.2552601  80.3076994  50.1172604
  77.5747410  80.4177558  51.0128345  77.9523532  80.6669819  49.5684375
  29.3791403  77.9122293  63.3940919  30.2245916  78.3478295  63.2858749
  29.0682520  77.7673184  62.5004603  44.7807837  66.3054752   2.7675140
  45.6754684  66.6453648   2.7832705  44.2683506  66.9990826   2.3521155
  62.1245861  49.6048737   7.9262644  61.7199993  48.7546444   8.0984509
  63.0340815  49.4981670   8.2049567  36.6503644  55.9637022  26.3942456
  37.2789192  56.6743231  26.2670994  35.7966208  56.3690853  26.2425280
  77.6714890   3.0300741  18.2976985  77.3034041   3.3228331  19.1313875
  76.9109099   2.7683191  17.7788186  30.5216241  50.8545303  12.4630558
  30.9395432  51.3988066  11.7957175  30.6927395  49.9560022  12.1809292
  17.9442683   0.4122190  22.0538759  18.6579171   0.3955011  22.6915717
  17.1557560   0.2528410  22.5726080  40.6054415  70.4762995  48.2009997
  41.4231981  69.9861919  48.2864560  40.3258432  70.6347715  49.1026344
  17.8816897  18.3701198  63.9517279  18.7186248  17.9174583  64.0560182
  17.2334773  17.7586000  64.3011417  55.0600195  66.2828112  37.2115517
  55.5260324  66.6022396  36.4388752  54.4560575  66.9905043  37.4365687
  47.8318603  24.9693315  68.8110258  47.0842273  25.3870503  68.3834888
  48.3128030  24.5506351  68.0971520  58.5806084  60.0107956  16.3939416
  59.5007372  59.8829126  16.6246879  58.3837175  59.2955208  15.7890904
  57.4913263  55.1890421  32.6101089  57.1648550  55.5484152  33.4350348
  58.4412336  55.1549196  32.7229881  19.7321803   6.0692184  52.3538067
  19.2007310   6.2568490  51.5801205  19.3716485   5.2527921  52.6997830
  18.2683713  35.4110305  63.9174129  18.4534223  36.1880223  63.3899011
  17.8323466  34.8098294  63.3135309  55.2018213  53.3131313  26.6725540
  55.6746292  52.5271797  26.3987517  54.3376732  53.2250738  26.2704015
  20.2243257  79.0103197  39.5454717  19.8615801  79.6902800  38.9777565
  21.1349010  79.2723083  39.6812749  45.4501206  31.1200730  65.7169970
  45.1702363  31.9089953  65.2527799  46.3702495  31.2795560  65.9271373
  19.8643310  34.7472589  58.5908331  18.9432199  34.9178474  58.3941354
  20.3270013  34.9701659  57.7830710  34.1878629  44.2947006   0.2431928
  34.1431379  43.3591700   0.0456635  34.9990726  44.3958426   0.7411288
  35.9398181   8.9294068  45.6713476  35.0522191   9.2838351  45.6185760
  36.4446790   9.4544284  45.0502982   1.1332781  11.5318219  57.8166844
   1.7465050  11.5743320  57.0829405   0.2723867  11.6550223  57.4167861
  47.5612354  54.2232084  27.4562144  46.7649555  54.5746469  27.8545380
  47.3270226  54.0794039  26.5393209  54.9750948  28.8100147  15.3031230
  54.6279669  29.4738865  14.7072959  54.8176432  29.1668749  16.1772466
  17.2458894  33.7760512  44.3513145  17.1029288  32.8298871  44.3751349
  16.4298350  34.1328303  44.0006174  28.3520293  40.7429838  10.3219676
  29.0111256  41.3434124  10.6702554  27.5209665  41.2014103  10.4461062
  13.2214162  71.7245770  19.5753849  13.1069658  72.1136332  20.4424310
  13.8233754  70.9941769  19.7181678  60.6465340  76.7734528  16.2636721
  60.7380915  77.1634817  17.1329975  60.2593327  75.9133625  16.4266145
  37.9203963  31.9801116  16.1923623  36.9993544  32.2404981  16.1818802
  38.3239174  32.5532269  16.8442380  68.9640617  13.0863047  23.2354498
  68.6676931  12.2910082  22.7928424  69.8729181  13.1922889  22.9544234
  24.9197394  16.8755595  69.5129696  24.1209561  16.7576663  70.0270544
  25.3152282  16.0044448  69.4817534  63.6808872  38.5321116  19.6424258
  63.3046818  37.6712298  19.8256838  63.2383490  38.8219953  18.8447034
  20.7485006  73.7866783   1.6826576  20.4186532  73.0573416   2.2075318
  21.6774270  73.5917759   1.5588163  45.2746296  19.6871686  21.1779833
  45.6013536  18.8969541  20.7478166  45.6804752  20.4075885  20.6957865
  72.7713626   2.7663546  38.6332798  73.1691497   2.0074873  39.0600252
  73.5120004   3.3275824  38.4036779  15.8725586   3.0682688  23.7559915
  15.2739706   3.8063173  23.8709235  15.3007450   2.3216562  23.5775757
  12.0699079  25.9869353  65.6231572  11.2645823  25.5340020  65.3730972
  12.3086316  26.4962403  64.8486586  38.1556279  21.1528461  62.5371029
  39.0873487  21.0432832  62.7271749  38.1348378  21.6107385  61.6967859
  72.9529326   5.2821283  13.1316924  73.5353702   4.6723490  13.5846412
  72.1588128   4.7748022  12.9636943  63.9940500  41.0766029  23.7724090
  64.7050428  40.5885601  23.3570385  64.1047573  40.9108305  24.7086215
  13.4266104  54.5865690  37.5972928  13.3239521  55.4591488  37.9771604
  12.6170076  54.4417739  37.1075835  33.5142088  42.1139240  11.9068432
  33.2709622  42.6756239  12.6427484  33.5911870  41.2393856  12.2882700
  47.4318647  42.6187849   8.3254659  46.9160652  42.1751451   8.9987922
  48.1948137  42.9584217   8.7932104  37.6206732  29.0354824  13.5296893
  37.0098090  29.5981717  13.0538130  37.2464323  28.1577325  13.4539783
  69.6266238  67.6203811  54.8014190  70.4841582  67.6941979  54.3825950
  69.4340960  66.6828191  54.7893693  61.4326859  50.2589321  13.5751641
  61.4080524  51.1226273  13.9870644  62.2264242  50.2712011  13.0403173
  76.5146462  64.1037094  67.4547683  76.6745106  63.3211529  66.9272475
  76.7830340  63.8552177  68.3393313  28.9955534  72.8283417  60.1302018
  28.5597433  72.0032060  60.3433837  29.9050249  72.5822055  59.9613513
  66.3390303  42.9673004   1.3565786  66.0994434  43.2236195   2.2471571
  65.7246828  43.4424877   0.7971099   2.7676613  25.3424470  58.1002690
   2.3851997  24.6060721  58.5774495   2.1609933  26.0671489  58.2519163
  19.8288590   1.0060613  48.5735740  20.0412042   1.5770547  49.3118872
  20.6624515   0.8810203  48.1200089  14.1781044  42.8984737   6.6168362
  15.0553954  42.6917267   6.2945825  14.0428841  42.2949219   7.3473650
  77.5020424  72.0141112  68.3918734  77.4094073  72.5610601  67.6118116
  77.5984065  71.1249196  68.0508648  58.1419516  32.0821500   1.5466958
  58.9159822  32.6074123   1.3437071  58.0479336  31.4945006   0.7969876
  14.4140018  22.9401004  63.3667518  15.3597130  22.9317605  63.2191362
  14.3204941  23.0079555  64.3169536  80.1811790  20.6484222  18.1486881
  80.4681301  21.4738131  17.7580214  80.9848785  20.1379728  18.2473969
   7.4792875  70.3223407  62.3443993   6.9051708  70.8679616  62.8819104
   7.0633663  70.3137743  61.4823266  83.9739958  52.3542881  43.9782442
  83.0642764  52.0572245  43.9982905  84.3813864  51.9293928  44.7330441
  72.3859326  42.1724414  44.8779263  72.1432130  41.3223277  45.2448382
  72.2225491  42.0835192  43.9389743  11.1295698  22.1343923  13.9722872
  11.1002824  21.8705964  14.8919535  10.6620309  21.4395404  13.5088003
  20.2477939  17.1355693  32.7029099  21.1024386  16.8182437  32.9946555
  20.3838117  18.0675809  32.5323643  75.7761574  25.1821876  13.2986307
  75.9059715  26.0982466  13.0532503  75.9045267  25.1677799  14.2470741
  38.7855196  39.7054935   1.2610292  38.4069753  40.3360415   0.6483725
  39.3988347  40.2199793   1.7857951  18.4708554  16.9819800  45.2885689
  18.1736953  17.3953263  44.4779672  18.4749658  17.6911132  45.9314908
  57.4031178  77.3850548  54.4869103  57.6749651  76.6411817  53.9493384
  58.0769459  78.0480849  54.3366589  39.3693185   7.9463392   2.0090382
  38.6040950   8.2052147   1.4955689  39.3113279   8.4719181   2.8069329
  86.1031685  10.7976214  60.5087246  85.9740505  11.6442935  60.9361615
  87.0243153  10.7986943  60.2484979  73.9866416  53.7286996  55.2416183
  73.9921157  52.9041254  55.7277049  73.1338374  53.7449979  54.8072292
  39.1662550  43.5889292  13.8626301  39.1441607  43.9420986  14.7520208
  40.0097370  43.8751650  13.5121489  31.2383188  72.1884620  52.4389543
  30.3759707  71.8365252  52.2182097  31.7011605  72.2306501  51.6021575
  11.3616814  79.3765890  26.8300833  10.9562744  79.7991192  27.5872816
  10.7147993  78.7335431  26.5397992  80.5587229   9.5748393  65.7577880
  81.4629612   9.5583598  65.4442378  80.5407438  10.2845590  66.3998200
   2.6115765  53.1064188  46.2620415   2.8959526  52.6492178  47.0534529
   3.0899109  53.9353513  46.2793579  45.5132246  17.1098554  15.6066501
  45.5947685  16.7598605  16.4938283  45.9225321  17.9739654  15.6515062
  30.7080960  23.6685085  17.4115276  30.7164335  24.3660927  18.0669188
  30.3529000  24.0828967  16.6251743  21.4936757  51.7429495   6.8029499
  21.9885182  52.1846533   6.1128336  21.9830346  51.9280386   7.6045126
   4.7138084  57.9549932  69.0649078   4.8511471  57.2354865  68.4487261
   4.6431507  57.5286877  69.9190173  28.0559935  57.2412002  56.5380825
  28.7689604  57.5374555  57.1038892  28.4937777  56.7793214  55.8230712
   9.1942975  22.5636554  29.8399997   9.3720815  23.4571147  30.1338601
   8.5860917  22.2139120  30.4911566  52.3756082  16.2237994  64.7491361
  51.4657361  16.4140098  64.9776085  52.7366502  17.0685308  64.4802352
  63.7835073   8.8956261  18.2081127  64.7177362   8.6876202  18.1946254
  63.6703157   9.5350164  17.5048363  85.5074851  42.1918212  63.3946480
  86.4426963  42.2032924  63.1909909  85.4136578  42.8045626  64.1240146
  61.5430450  15.9805298   6.1284459  62.4799633  15.8586907   6.2819791
  61.1769962  16.1429250   6.9978529  29.1575050  18.4632134   5.6850421
  29.0474343  19.0561008   6.4284134  30.1056337  18.3771527   5.5856627
   8.7858350   5.3459136  51.8123199   8.5913450   6.2716071  51.9589390
   9.3885190   5.1130168  52.5185515   1.1789192  72.7742731  40.7193984
   1.7266096  72.0223534  40.9449806   0.2885450  72.4236619  40.6961526
  82.1936512  41.3080931  34.9846578  82.8428268  41.9399261  34.6754956
  81.5731144  41.8311501  35.4921818  54.2752409  38.1960988   0.3892496
  54.0476561  38.1146765   1.3154276  53.5678196  37.7452564  -0.0717539
  60.4997730  60.6200171   7.3092234  60.8674288  59.7363949   7.2928250
  60.6089449  60.9415054   6.4142609  42.9415369  14.8294079  12.5711071
  43.4492159  14.7921836  11.7604840  43.0320072  15.7345545  12.8690255
  61.0861349  44.6204424   0.6443966  60.7630396  45.0985241   1.4081213
  61.7717266  44.0497351   0.9915090  79.6634356  75.1109564  68.3523642
  80.4715459  75.5406320  68.0720650  79.9578826  74.3414175  68.8395402
  67.3405123  34.4633412  10.4326582  68.0530691  34.5608807  11.0643089
  66.6205454  34.0882611  10.9398055  24.7077656  75.0523758   6.7789298
  24.0768456  74.5612335   6.2526703  25.2945256  75.4528284   6.1373848
  51.3923795  12.5458161  44.8612203  50.8538539  13.0687062  45.4551949
  50.9853274  11.6795079  44.8688211  70.6461684  60.9576118  46.9643177
  71.1586730  60.2902686  47.4206318  70.0003401  61.2461388  47.6092138
  18.8091434  50.5975782  70.4625536  18.7473930  49.7773373  70.9520657
  18.7370743  50.3348815  69.5449330  79.6478526  47.8569758  42.2348680
  80.0211922  47.0681548  42.6280727  79.2420451  47.5511884  41.4236678
  69.8448086  46.3901424   7.1273237  70.0625181  45.6291246   7.6655483
  69.9882317  46.0961962   6.2277353  33.4270205  63.8437140  53.9807667
  33.8836779  63.4054482  54.6988346  33.5203470  63.2471573  53.2380392
  63.5618416  37.2332078  64.8545023  62.6861683  37.6187634  64.8823716
  63.5848586  36.7505854  64.0281989  25.2201564  20.4215686  63.9665927
  24.6639211  21.1284987  63.6393620  25.0650889  20.4124562  64.9111046
  66.3687650  48.5730260  48.6659278  65.9645526  47.8421139  48.1983699
  65.8340422  49.3318104  48.4323706  21.7466361   4.0449445  70.1213447
  22.4463946   4.2241208  70.7494072  21.8963010   3.1399743  69.8477373
  54.2029476  80.8636856   7.2782648  54.3339157  80.9354401   6.3327855
  54.9498844  80.3497791   7.5852132  37.1594102  20.6963031  52.4032928
  37.8960711  20.7173411  51.7924597  36.4288146  21.0698096  51.9103875
  75.9759576  22.4477355  48.0083217  75.0310189  22.4508016  48.1610193
  76.1597592  21.5745561  47.6619043  68.0672550  44.5238924  12.8284848
  67.8755760  44.5606709  13.7655759  67.5556755  43.7809038  12.5083506
  60.5643702  47.4612188   8.2320195  60.1464081  46.6156054   8.0692929
  61.0528898  47.3343611   9.0453386  78.9428774  78.4983909  68.3987417
  78.9098803  77.6957738  68.9192693  79.8759047  78.7004768  68.3290555
  41.6535759  45.9521103  17.3153949  40.7547903  45.6347132  17.4030304
  42.1137476  45.5789137  18.0671906  53.4516756  76.8014848  67.6507165
  54.3343989  76.7650449  67.2823371  53.1295339  77.6715052  67.4150838
  44.9781234  81.9895727  12.9608166  45.4348475  82.2229333  13.7690103
  44.0789611  81.8116528  13.2366526  67.1166627  64.9705445  43.9884748
  67.0893637  64.0438163  44.2265119  67.6579706  64.9993455  43.1995572
   0.7047421  11.9163291  48.5435261   1.2645967  11.8691270  47.7685632
   0.3747279  11.0247867  48.6552467  44.6618182  15.1896398  18.2465996
  44.7198064  14.4176261  18.8095059  43.7702329  15.1662509  17.8990855
  45.3821659  27.8823900  12.1042907  44.4414186  27.7681041  11.9695199
  45.5505800  27.4912381  12.9615366   5.0928225  76.9233238  48.7766709
   5.9037317  77.4312865  48.8017454   5.2359070  76.2127149  49.4018044
  42.9922540  23.3410232  62.3278298  43.3490569  23.9199035  63.0014940
  43.2153804  22.4595134  62.6268144   5.1561243  14.3039720  63.3571621
   5.3563196  14.9303214  64.0527465   4.7570235  14.8327653  62.6662715
   4.7359941  67.2353601  16.2575006   5.2901838  66.4715052  16.4175808
   4.9324701  67.8297949  16.9815707  41.4889050  69.2975473  13.7368774
  41.7038584  69.4703007  14.6534908  40.5531168  69.0963507  13.7441337
  26.1603559  79.8243486  61.6654922  26.2658323  79.5120942  60.7668247
  26.9539560  80.3310811  61.8376781  72.9700375  20.4306626   0.8001134
  72.6660442  21.3305473   0.9185617  72.8153896  20.2455831  -0.1262032
  64.6322870  45.7828951   7.3569471  63.8433170  45.6025600   6.8458313
  65.0174570  44.9209929   7.5150424  52.4650812  69.5583820   3.4235698
  52.8144121  69.1871405   2.6133969  52.0042181  70.3497982   3.1451860
  35.5910403   1.9487302  50.9409918  35.2254064   1.7032878  50.0911059
  35.8728463   2.8564231  50.8273711  12.7211101  22.7926795  51.7538847
  12.8264529  22.9765050  50.8204259  12.5267798  21.8562381  51.7931451
   0.8767390  28.2203865  18.3802128   1.0392573  28.9471960  17.7789092
   1.0356592  28.5885024  19.2493880  53.3922529  50.4956532   6.8642521
  53.8802767  51.2878084   7.0890915  54.0055132  49.7804308   7.0333433
  55.8135796  40.0766659  13.5207927  55.5249500  39.3226981  13.0065370
  55.2975702  40.8086824  13.1829774   2.1477932  39.6287656  56.3100529
   3.0213290  39.2669988  56.4593554   1.7071518  39.5475864  57.1559143
   7.1125865  75.3024292  59.8770094   7.2951454  74.8570967  59.0496111
   7.6012176  74.8025846  60.5309391  20.0825977  78.0107689  36.7252660
  19.2850411  78.3522940  37.1296120  20.4914212  78.7750530  36.3191104
  65.9603098  65.2701807  30.4724908  66.1172440  65.3291416  31.4148951
  65.9882810  66.1771679  30.1678157   7.5661480  77.1139050  10.0593328
   7.2381079  77.5818682  10.8272064   7.2765750  76.2106085  10.1875556
  11.6984212  63.0861330  21.6606975  11.3319600  63.8654947  22.0784688
  12.6453102  63.2241058  21.6851306  61.0904949   4.1677599  43.7349319
  61.4550703   4.8898725  44.2466497  60.4984611   3.7205915  44.3397188
   3.0399626   9.5614939  26.3058972   3.6454695   9.4387560  27.0370102
   2.3536556   8.9103060  26.4513993  63.4820392  32.3175883  38.5135007
  63.3602288  31.4618158  38.9246511  62.8056672  32.8700328  38.9053655
  54.2897089  29.1953338  18.1012760  53.3980893  29.3575824  18.4093700
  54.5493381  28.3831466  18.5362087  18.4397602  72.7251291  10.7614565
  18.7698495  73.5062408  11.2054551  18.1204557  73.0459690   9.9180472
  64.5838049  62.7734470  49.5949745  64.8323634  62.3007154  50.3893185
  65.3372243  62.6760626  49.0126467  40.1018045  17.3467891  61.9376989
  39.2028079  17.6365392  62.0928766  40.5174443  18.0843417  61.4910551
  63.1929948  69.4053459  26.1132884  62.2702696  69.4039297  25.8587122
  63.4924390  70.2944803  25.9235430  26.8417549  30.8657622  23.5516214
  27.3280144  30.5434823  22.7927279  26.8901420  30.1521707  24.1877651
  84.2350142   6.7157583  44.2682171  83.9373534   6.9697218  45.1417923
  84.0232842   5.7844572  44.2043781  28.1225252  57.8933954  33.7017560
  27.6433134  58.7062454  33.8625574  27.5487304  57.2060966  34.0403032
  83.9278417  10.4796851  44.0827227  83.0491346  10.1997972  44.3391800
  84.0770030  11.2847817  44.5785093  82.8676426  56.0140657  32.9571891
  82.5643727  56.9138384  33.0783057  82.0876917  55.5337954  32.6792502
  40.9381962  55.5304193  30.0043106  40.6866455  55.4614496  29.0833354
  40.2904654  55.0012589  30.4697895   8.1667721  21.4347553  32.4304986
   8.4756631  22.1085215  33.0361843   8.3601010  20.6082034  32.8728437
  29.4795315   4.7718744  33.2553196  28.6397908   4.9896460  33.6598420
  29.2726025   4.6397619  32.3301363  34.1975596  37.4830389  15.5960190
  34.8818686  38.0897284  15.8786476  34.6434357  36.6398978  15.5151629
   0.1316489  81.2291908  56.3065100   0.6415634  80.8987713  55.5668879
   0.3592985  80.6486988  57.0327616   5.5573678  63.4341812  47.6860762
   4.7582874  63.6209631  48.1788397   5.2556276  63.2755661  46.7916346
  13.1714463  51.1052752  49.7427750  12.8647244  50.6433964  50.5230427
  14.1053188  51.2455559  49.8990917   1.8383525  76.1826563  65.2015972
   0.9675124  75.8086967  65.0673389   2.4178657  75.4234552  65.2649498
  25.3998371  23.3787184  36.6873169  25.6085079  24.1434603  37.2238350
  25.0298833  22.7471380  37.3041391  80.4918375  60.7266855  21.3064480
  80.2868029  59.9409580  20.7996702  81.0984256  60.4242468  21.9823289
  78.5032855  26.7888844   8.9953457  79.2066108  26.5608752   9.6032749
  78.5851656  27.7353919   8.8784967  79.2882832  65.1757145  34.6825814
  79.6864256  64.8218775  33.8872766  78.3487591  65.0381994  34.5616913
  82.3118689  79.5926189  40.0778437  82.7398589  78.9593506  40.6540632
  81.9971099  79.0704727  39.3399239  68.1789258  79.0376234  59.6885872
  67.8624573  78.2381773  59.2679119  69.0967193  78.8550949  59.8900080
  32.8091221  18.8443499  56.2807083  32.3714840  17.9940443  56.2398005
  33.1467091  18.9827948  55.3957796  59.9490764  58.5385704  25.7338452
  60.8508256  58.5468149  26.0547996  59.4175532  58.7234259  26.5081453
  75.5786743  80.7627678   6.5889102  75.7000270  79.8172665   6.6756666
  75.7648053  81.1092091   7.4615890  78.0656430  55.6336927  51.5539980
  77.9689464  54.9383497  52.2046709  78.9301303  55.4847622  51.1709690
  79.4606867  79.5871019  21.6583276  78.8429072  78.8832760  21.8563485
  80.3110870  79.1511011  21.6039562  69.3397048  55.0432873  35.8807039
  68.6872771  55.0578451  36.5809608  68.8869550  54.6402931  35.1398635
   2.6789451  45.3905153  51.4799023   2.8815839  44.4651842  51.6175127
   2.2560547  45.6665897  52.2930288  81.5595398  26.7047612  69.0136440
  80.6318078  26.5718238  69.2082514  81.6218600  26.6039626  68.0638083
   3.6652747  65.0241661  27.7780628   4.4984621  65.1287794  28.2375050
   3.1415457  64.4685698  28.3553410  30.5486178  74.2410469  49.0028858
  30.8970284  73.3604336  49.1420221  29.7026730  74.0995550  48.5779285
   2.4454474  63.9134026  61.9666338   2.4044988  63.8419008  61.0129833
   3.2448840  64.4120789  62.1353197  86.0353013  76.5997124  28.4518766
  85.1139888  76.3463402  28.5086060  86.3239050  76.6590357  29.3626022
  54.6243208  31.9550829  18.3726001  54.4244783  31.0192137  18.3513904
  55.3434580  32.0322828  18.9995897  16.7730677  68.4849358  36.0974383
  15.9690285  68.2683372  35.6253791  16.8475950  67.8057528  36.7677999
  72.1953509  44.8113315  69.1906707  71.2626693  44.6491973  69.0490675
  72.3576936  45.6568305  68.7723388   8.5601664  60.5055475  26.7223811
   8.0035871  60.0130224  27.3255944   9.0599912  61.0962629  27.2858191
  21.9999527   7.2820692  50.5295897  21.3162624   7.8495245  50.8856678
  22.4278551   7.8144102  49.8589659  33.3775759  58.0039835  33.8290071
  32.5450945  57.8623676  34.2797303  33.2410026  58.8023853  33.3189678
  10.4853463  24.9843049  33.4268332  10.5371451  25.8018732  33.9219403
  11.3624489  24.6070910  33.4949088   2.7341276  37.8649640  21.6179872
   2.2028750  38.5457182  21.2049747   3.2330900  37.4803543  20.8973312
  20.4620934  70.2255535  38.5851645  20.7190299  69.3328762  38.8161182
  20.9408307  70.4111719  37.7773356  17.4884117  41.2988663  50.1215553
  17.4829865  40.4654980  49.6507025  17.6043701  41.0544491  51.0397291
  58.1923086  30.2967326  63.4465720  58.3489915  31.2094323  63.6887814
  59.0463123  29.8744027  63.5390182  56.5187767  77.7727413  11.2981737
  55.9033539  78.4468317  11.0099173  56.4481881  77.0850706  10.6360877
  34.9413252  77.3003912   8.1255287  34.9601626  76.3501215   8.2389736
  34.8890543  77.6469517   9.0162557  71.3779869  80.0102615  26.6219473
  71.7717829  80.8782959  26.5343881  71.9097259  79.4480848  26.0585260
  73.8764527  76.5062332  28.0497718  74.3272069  75.8974648  27.4645758
  74.4138518  76.5194082  28.8417697  10.4168725  72.6877689  12.6036441
   9.9646425  73.5303497  12.6458013  11.0948324  72.8127718  11.9395840
  19.2566955  72.2639513   7.8017575  19.0621459  71.8448639   8.6400563
  18.5761106  71.9432449   7.2099948   8.9751989  73.4743643  32.1506357
   9.6914762  74.0845442  31.9749665   9.3872947  72.7508020  32.6227212
   7.0843560  56.5271728  49.5040025   6.9852073  56.7486159  50.4299416
   6.2000806  56.5987365  49.1446056  27.3773885  77.8710651   8.3582038
  26.4418077  77.8240204   8.5549366  27.4259877  78.3713865   7.5436199
  37.1112817  30.7555895  23.6861205  37.3473298  31.3112001  22.9432845
  37.3873364  31.2540083  24.4552755   2.4647690  77.1708298  51.7351723
   2.2081718  76.2797213  51.9724798   2.8971201  77.5120878  52.5180197
  17.5047159  53.3560562  24.6366358  17.8587663  52.6932669  25.2295876
  16.9999492  53.9393520  25.2033877  46.5019792   0.3826456  42.8813124
  46.9650095  -0.3753824  42.5246334  45.6172007   0.3133707  42.5227070
  53.3288622  39.7143888   3.7727189  52.3907423  39.5242357   3.7723243
  53.7431812  38.8764429   3.5667548   2.9494056  46.3618088  14.5167506
   2.3834321  46.0109138  15.2043402   3.2349011  47.2116947  14.8520374
  86.9160044  40.2981441  69.8221576  86.2549603  40.1615588  69.1434841
  86.6387188  39.7335593  70.5436736  73.2841685  73.8473797  58.6819553
  74.2232826  74.0212727  58.6182594  72.8763619  74.5418119  58.1645727
  78.3970543  61.2561703  54.7268295  79.3323692  61.1152744  54.5799780
  78.3587750  61.8380594  55.4858923  27.2187662  68.3286953  50.8752155
  27.1566010  67.6173306  50.2377748  26.5491056  68.9552498  50.6009626
  74.7643226  10.7861738  63.7194872  75.6092208  10.3936987  63.4996319
  74.8580401  11.7075567  63.4775925  13.5688746  67.5253057  52.3813152
  14.2433369  67.4654007  53.0578804  13.3142543  66.6175413  52.2159052
   8.6973828  60.5897141  33.3975816   8.1218135  60.4922867  32.6389885
   8.1009465  60.6940794  34.1389322  84.0350505  35.5084276  69.2840719
  84.1845351  35.0677538  70.1205444  84.6106670  36.2727809  69.3098021
  12.5133305   3.9599924  11.2775779  12.4333816   4.1007929  10.3341711
  12.2200673   3.0586271  11.4109159  20.6036782  53.4110403  55.6719112
  19.6631634  53.5837603  55.7147026  21.0082698  54.2777586  55.7083893
  77.8782847  70.2877474  45.8927822  77.8658375  70.1761293  44.9421930
  78.5956540  69.7281790  46.1902714  25.7914567  64.9279928  56.0492897
  26.6598010  64.8687935  55.6509113  25.7213354  65.8383417  56.3366604
  48.4704781  62.6876354  30.0516319  48.3862925  63.2800293  30.7987690
  49.4014072  62.7121115  29.8302698  60.9482806  28.3483629  47.2007895
  61.8588942  28.3282404  47.4950838  60.9828084  28.0435305  46.2940836
   3.4362075  74.5690441  29.9798942   4.3581820  74.8078346  29.8841143
   3.3699641  74.2214632  30.8692908  36.4742422  66.2788105  32.9294133
  35.9095383  65.5253220  32.7573872  36.8129897  66.1277390  33.8118315
  37.1290075  12.7048140  30.8853531  37.7615046  12.5062304  30.1948881
  36.2780684  12.5043421  30.4955506  12.4642479  71.6709900  10.7782185
  12.2420418  71.4924431   9.8644477  12.2488594  70.8605909  11.2398386
   2.9829648  51.9325018  40.6007671   2.2284156  51.6894054  40.0643063
   3.7065300  52.0036411  39.9781728  13.8321447  76.6856527  20.2290606
  14.2676198  76.5304279  19.3909085  14.4235718  76.3076544  20.8798814
   2.8596964  26.5058827  37.0901728   3.7152541  26.4815354  36.6616178
   2.9217109  25.8516169  37.7861071  33.5721803  67.8314495  29.1824627
  33.3946753  68.0526972  30.0966716  33.3598351  68.6288977  28.6974692
  59.8708561  24.0496898  21.9200516  60.0540855  23.1280875  22.1025586
  60.6917598  24.5007277  22.1173191  35.1606584  40.2043343  23.9127207
  35.1486683  41.0873747  24.2819452  34.7534704  39.6580601  24.5850444
   4.5475015  41.9690084  17.6195562   4.5738214  42.1204138  16.6747725
   5.1463479  42.6211071  17.9834008  39.4518110   3.8479964  65.7142432
  39.9788174   4.2859094  65.0458642  39.9445352   3.9700906  66.5257527
  78.7583312  28.6732316  36.6267157  77.8055205  28.6526966  36.5374827
  79.0850898  28.3970380  35.7704568  66.1421659  27.3351955   0.9717204
  65.8445552  27.8359723   1.7312494  66.1658099  26.4283133   1.2770677
  16.0727024  34.1750908  31.5755248  16.9110441  33.8774776  31.2221980
  16.1398375  34.0166593  32.5171304  56.0166576   1.8533149   4.3099099
  55.2135160   1.4064574   4.0424928  55.7958558   2.2625172   5.1465887
  86.0584712  66.9009256  39.2733860  85.6933857  67.4449825  38.5755706
  85.7716739  66.0130453  39.0597296  71.2585225  71.2762737  13.7587523
  70.7297089  70.8029890  13.1164217  71.2818303  70.6989288  14.5218825
  24.2751479  63.4972191  24.0525699  23.7747598  63.4084749  24.8637223
  24.3054557  62.6111698  23.6916924  22.8596520  34.4460773  15.0364268
  23.1241179  34.6788192  15.9264386  22.0876884  33.8922691  15.1530445
  71.8268671  35.3190064  38.1256151  71.0713985  35.9067273  38.1347632
  72.4533012  35.7432771  37.5392675  14.6678698  52.2990084  52.9222918
  15.0202024  51.9369888  52.1092463  13.7193131  52.2973347  52.7939558
  31.2638831  70.9269428  66.0730362  31.9326591  70.7976770  65.4005384
  31.1219001  71.8733883  66.0908270   7.8199899  43.6574936   2.5324723
   8.0550277  43.9952993   3.3966917   7.6985204  42.7176905   2.6675776
  73.9325037  54.3787432  38.3894658  74.4076731  55.1618147  38.1115484
  73.9643517  54.4060326  39.3457460  11.2510550  57.2849655  35.0494742
  10.9106648  57.0031834  35.8985710  10.5136168  57.7294827  34.6313596
  55.5161298  13.2887570  62.2823616  55.5002305  13.8253610  63.0748476
  55.1057461  12.4642436  62.5431241  33.0107069  67.1885347   5.3008944
  32.4905896  67.1810055   6.1044210  32.6559091  66.4686966   4.7791767
  83.0336546  29.0920734  18.9861643  82.3581418  28.4527111  18.7600434
  83.6657255  28.5981369  19.5084155  12.9931554  12.1939199  66.0198207
  13.5839233  12.7525060  65.5146398  13.1007442  11.3233153  65.6368067
  36.3058869  72.0986116  62.7010335  35.5780290  72.5312411  63.1474479
  36.8895564  72.8132951  62.4465008   7.5785995  32.8039360  39.7327852
   7.6878077  33.6828518  40.0958490   8.1857240  32.7730751  38.9934087
  66.3353088  28.0590940  43.1002092  65.3946879  28.1271529  43.2640028
  66.4095547  27.4180317  42.3932695  71.7871788  44.9726057  37.4892402
  70.9237149  45.2733850  37.2060561  72.0263853  45.5667830  38.2005501
  84.5236143  52.0838451  46.6465187  84.0144166  52.3415756  47.4149752
  85.3918273  51.8774557  46.9927025   4.6264538  42.1777630  25.5621433
   4.5117614  41.5315390  26.2589025   5.5680513  42.1798468  25.3900337
  80.4146966  22.9111338  23.8261724  79.9148461  23.4172273  24.4666791
  81.2245830  23.4074879  23.7080765  75.0401166  47.0998478  35.7922101
  75.6532362  47.7821207  36.0657406  74.4018283  47.5569582  35.2446055
  32.4902242   4.6181326  26.8974471  31.5918099   4.9466925  26.9311023
  32.5765374   4.0760546  27.6816249  15.6056905  45.8098888  48.6653805
  15.8794558  46.5555668  48.1312895  15.2854037  45.1669073  48.0327463
  10.7481217  49.3892908  27.3157382  10.4154670  49.9545574  26.6185689
  11.5012240  48.9456558  26.9255376  45.1387596  72.7264023  22.4347949
  45.1972103  73.3500433  21.7109942  44.4465923  73.0753899  22.9963446
  80.3216204  34.6246767  48.1958914  79.6041789  35.2410722  48.3427572
  80.7232084  34.9152613  47.3770380   9.2656237  34.3544054  20.2789259
   9.6583742  34.2953396  19.4080126   8.7980914  35.1896477  20.2746797
  64.5780304  39.2407703   3.4268245  64.6449473  39.6811604   2.5795877
  64.1276219  39.8708057   3.9893371  76.2665787  45.4386950  22.4803948
  77.1602377  45.2603197  22.1874976  76.1082723  44.7957802  23.1716514
  11.0069287  32.4245477   1.4943659  10.1068163  32.4130225   1.1689478
  10.9497261  32.0435119   2.3705921  69.0013775  19.0728013  67.9297899
  69.7931800  18.5876052  67.6976948  68.4649751  18.4409158  68.4085678
  11.7191321   4.0748994  58.6060442  12.4801166   4.0205876  59.1841306
  11.3876397   3.1780355  58.5615696  83.1016567  37.3019648   7.3091191
  83.8966313  37.2761130   7.8416401  83.0195358  36.4152265   6.9581443
  77.5686195  80.4049778  57.7131081  76.8133416  80.7780457  58.1676483
  77.9270449  79.7658014  58.3289099  16.3642144  70.0523949   5.3848255
  16.8765557  70.7041121   4.9062875  16.3253963  70.3885794   6.2802041
   4.2439524  72.6014936  43.7441792   3.7924139  72.1589052  44.4628324
   3.7038533  73.3697474  43.5589494  35.5737591  49.3182468  20.7849193
  34.8679137  49.8838568  20.4717040  35.1376891  48.4995556  21.0211825
  11.0745561  27.1665072  42.6146841  10.5867004  26.6941333  41.9400787
  10.4829097  27.1887636  43.3668089  28.0570124  12.8381662   4.5055589
  28.2821535  13.7590342   4.3731195  27.8709060  12.7693777   5.4419696
   6.5580970  80.2937126  40.2460432   6.3353896  80.1908970  41.1712790
   6.0090798  79.6524334  39.7948503  12.5313561  11.3613729   9.9597698
  13.0277651  12.0252733   9.4811821  11.7781990  11.1750727   9.3991643
   0.3239676  47.9186583  54.0025854  -0.0778921  47.5004053  54.7640324
   1.1764792  47.4918890  53.9169979  22.6106524  58.4602022  30.1457858
  21.9200444  58.0438662  29.6300721  23.0663204  59.0265036  29.5229697
  22.5611472  56.9876003  21.7892146  22.9979777  57.6623917  22.3088980
  22.3559880  57.4193382  20.9599113   0.3416998  17.8159062  64.7821214
   0.5053622  17.9112975  63.8438531   0.8324821  18.5322349  65.1849027
  67.2447958  80.9333038  25.2980471  67.7866199  81.6477013  25.6331611
  66.3647320  81.3057041  25.2429485  27.2960973  65.8094406  42.0379305
  27.0419240  64.9269581  42.3078394  26.5203404  66.1584282  41.5990210
  14.7683895  48.8318443   2.0641710  15.5259800  48.7203407   1.4898404
  15.0507236  49.4794273   2.7100444  16.1085117  52.0986891  29.3142009
  16.9776547  51.9909477  29.7004843  15.9356117  51.2648344  28.8771439
  33.8425895   2.5346880  39.2035437  34.1625803   3.2224874  39.7873020
  33.1955504   2.9720812  38.6501408  78.7648198  52.2829008   9.4437355
  79.5585379  51.8419981   9.7468007  78.9590331  53.2156754   9.5356309
   5.9085023  65.1406431  29.0799880   5.5391896  65.8399343  29.6192741
   6.8448728  65.1545286  29.2781019  36.5252500  21.8101721  10.7682598
  37.4737149  21.9333010  10.7297313  36.1774766  22.6835279  10.9486258
  56.9276326  23.1382625  64.8281916  57.2999093  23.1973235  65.7080515
  56.4319784  22.3193996  64.8323085  53.5600505  13.6855857  53.9444544
  53.4044341  13.7921302  54.8828914  53.3667100  14.5452373  53.5704924
  36.9953863  75.3586256  47.7280011  36.6344641  75.6833016  46.9030442
  37.2107194  74.4428575  47.5512828  79.8205360  26.1782098  32.4710631
  80.3120425  26.1650705  31.6497970  80.3699585  26.6826773  33.0709624
  83.9609003  39.3445849  16.2611675  84.4574466  39.7450686  16.9748116
  83.5486260  38.5770130  16.6575170  76.0385385  42.9152679  27.1104026
  76.6792157  43.1642818  27.7765560  75.4096153  42.3647547  27.5769043
  84.2981237  81.8598175   4.4297409  83.7898924  81.2511158   4.9658513
  83.6537760  82.4892616   4.1059369  15.8655059  31.8702245  23.1360865
  15.3778613  31.0554051  23.2565308  15.1963091  32.5205660  22.9228687
  15.9584737  33.4442878  37.0790577  15.2205455  33.0409074  36.6219187
  15.5709434  33.8327003  37.8633976   5.2853734  20.7222526  44.2727174
   5.8277113  21.2376229  44.8697891   5.7617456  19.8987882  44.1668190
  74.6984615  17.0439100  33.7039876  74.8263111  16.9049537  34.6423769
  74.1132155  17.7995169  33.6512995  31.7863059  66.3950109  37.4814272
  32.5304270  66.5620852  38.0598783  31.1131501  67.0096445  37.7735186
   9.4744456  56.7309904  15.8750331   8.8578045  56.3509703  16.5007901
   9.9810034  55.9846878  15.5546153  50.7886293  67.1734953  39.2287302
  51.1528709  67.2236538  40.1124954  50.9399822  68.0427456  38.8576055
  64.2084220  58.6118031  11.1911297  64.8762014  58.5166216  11.8702781
  64.1142514  59.5577002  11.0787141  75.9652987  55.7077026  29.5188236
  75.4493311  55.4334164  28.7606835  75.3186419  56.0419607  30.1403880
  17.6467013  79.2095137  65.9760475  18.1869876  79.7215462  66.5778303
  17.4743903  78.3928442  66.4446497  15.0058467  22.2398536  53.0454828
  14.2043693  22.1904914  52.5244905  15.6995542  22.3926179  52.4038758
  59.9886510  23.8152854  63.6342605  60.4234036  23.0180852  63.9370765
  59.0584633  23.6566035  63.7948974   2.3360707  28.0408740  40.5448389
   1.9643383  27.3417974  41.0827398   3.2819647  27.9018545  40.5916405
  26.8938423   8.2075529  49.5557928  27.5217181   8.7467222  50.0367260
  26.1347365   8.1488733  50.1359224  36.2735014   5.6787901  13.2831645
  35.5544888   6.3086348  13.3335781  35.8572441   4.8615484  13.0091679
  77.8156265  23.3207560   0.5937343  77.8849992  22.6538396   1.2768465
  76.9214072  23.6528611   0.6731638  60.0020615  70.8850467  61.9120463
  60.0507466  70.1191961  62.4841781  60.9075181  71.0417473  61.6440423
  85.6470485  25.0713563  34.8682857  85.9561739  25.0388026  35.7736111
  86.4242542  25.2985764  34.3578410  75.5616066  17.5299089  56.7072584
  75.8090911  17.6585738  55.7916011  75.7991120  16.6216867  56.8942096
  61.5748146  38.7818170  14.1515374  60.7686284  39.0869594  13.7353802
  61.3145425  37.9941392  14.6290863  79.2063143  77.7096844  32.2431469
  80.1188030  77.9063416  32.4550939  78.7120643  78.0191183  33.0022240
  78.3580742  18.7903325  61.0710015  79.2919907  18.8650338  60.8749093
  77.9232535  19.2124049  60.3300454  78.5106405  44.2730856   3.5822684
  78.7355193  44.3190479   2.6529953  78.5616800  45.1793289   3.8861543
   2.5899938  49.5113230  17.9807460   2.7704707  50.2145100  18.6045969
   3.0293745  48.7451506  18.3497453   2.7350229  71.8050718  14.0424359
   2.2695532  71.0438013  14.3889093   2.1584208  72.1480560  13.3597040
  82.1431845  50.7186270  34.3514872  81.8073406  50.0310040  33.7764955
  82.6098534  51.3142967  33.7652850  26.1333790  12.1417551  44.8737574
  26.4582225  11.3237982  45.2501249  26.5773296  12.2093897  44.0284348
  76.8416467  54.4228983  14.4559920  76.1480322  54.9607849  14.8378444
  76.6524151  53.5357380  14.7615492  47.0486122   5.7799082   4.7405404
  47.3549800   5.7411509   3.8345224  46.2217682   5.2977018   4.7346130
  40.4017925  62.0957708  34.2455029  40.7656717  62.2210217  33.3690691
  39.5356536  62.5012636  34.2054296  80.0723382  61.1685371   7.4785596
  80.6522223  60.7142687   6.8673253  79.8077800  61.9619417   7.0129937
  74.4196651  19.7704379  61.3368388  75.1173231  20.4202001  61.2513496
  74.4314549  19.2956035  60.5057992  78.6797151  17.6775758  63.4324433
  78.6600361  18.1482808  62.5992079  77.9179904  17.0989005  63.3986773
  63.5781672  28.3162737  25.9967613  63.2740977  29.1860199  25.7373118
  62.7755048  27.8162503  26.1448908  28.7512684  64.2788315  31.8828487
  29.6247458  64.3407631  31.4962792  28.8945127  64.4084644  32.8203487
  75.6854704  59.1153812  49.3466997  75.5996242  59.7323275  50.0735044
  75.5264356  58.2576036  49.7406006  21.5446258  68.4930229  27.9032946
  22.1323109  68.7751818  27.2024059  21.0858965  67.7351904  27.5406766
  25.6692767  50.7698584  10.5762815  24.8141932  50.3751326  10.7473242
  25.6349874  51.0255194   9.6544933  27.2581792  58.7155104  51.2166357
  27.2116971  57.9794598  51.8268013  26.9699526  58.3513451  50.3796530
  65.9330377  42.9207389  69.6759303  65.1980779  42.8635375  70.2864980
  66.6407165  42.4419658  70.1074440  27.4883226  23.1926088  23.5331249
  26.9773059  23.9411955  23.8408852  27.8946499  23.4972982  22.7217698
  81.8881490  48.4723043  18.2597506  81.8547943  48.5429811  19.2137539
  82.6010751  47.8565598  18.0899775  72.8046268  25.4283934  42.0308638
  73.7192815  25.6655531  42.1838045  72.6779073  25.5566626  41.0907984
  28.3977567  79.5839917  66.0909503  29.1847904  79.7151076  66.6197400
  28.4024783  78.6498940  65.8819785  53.2619184   8.6151056  16.0624886
  53.4415191   8.3560972  16.9663084  53.9698284   9.2203360  15.8415997
  17.2948563  61.6158867  18.3100903  17.4966395  62.3041773  17.6762354
  18.0297291  61.0061550  18.2436240  43.7204218  58.8884783  34.2694879
  43.7671995  59.4492531  33.4951663  42.9182720  58.3802605  34.1490483
  23.5670304  61.1955166  15.6474411  23.4588885  60.6642485  14.8585868
  23.2416105  62.0609713  15.3998208   7.4247057  36.9324891  60.7211198
   6.5790517  37.1982686  61.0823097   7.6477034  37.6249044  60.0989725
  83.7500029  62.5839472  24.2600393  84.5723010  63.0345154  24.0675664
  83.3868029  62.3707771  23.4004617  81.4193597  46.4077234   4.1123578
  81.3476744  45.7244205   4.7788346  81.8303784  45.9719276   3.3657804
  80.8846643  64.0160561  27.3446035  80.3604462  63.2855844  27.6729870
  80.3406718  64.7887802  27.4969339  39.6248644   4.4961290  42.5470352
  39.0619557   4.0047960  41.9487381  40.1393431   3.8257818  42.9966784
  26.4492464  50.7733536  27.7145839  26.7634773  50.1056957  28.3242750
  26.3301635  51.5542936  28.2551241  83.4958705  66.0060501  30.7790732
  83.9056849  66.6265869  30.1763988  82.5628832  66.2167406  30.7419920
  59.7531858   3.9547889  70.3227531  58.8360625   4.2288606  70.3228980
  59.8835390   3.5540359  71.1821944  79.0898433  45.4223585  30.3646135
  78.6140635  46.2139845  30.1132250  80.0087365  45.6319380  30.1974487
  17.2255397  77.9339361  28.5196352  16.6590345  77.5972319  29.2138505
  18.0745316  78.0600357  28.9433599  36.7662536   0.9987192  54.5249462
  37.5582682   1.3029032  54.0817547  36.1468893   0.8249598  53.8161230
  26.8895340  57.2000408  31.2467527  27.5855470  57.5635004  31.7941952
  26.7976427  57.8264952  30.5288815  85.5060307  60.3102016  67.7186060
  84.8469042  60.9319019  68.0272675  85.1226407  59.4499969  67.8897572
  84.2343631  49.9232531  35.9625173  83.5031130  50.4020309  35.5722928
  84.5900727  49.4014263  35.2432108   8.8767207  43.8418341  10.2985275
   8.1649244  43.2032108  10.2568924   9.6675670  43.3305454  10.1271403
  65.2517884   5.5258112  52.8465652  65.1029342   6.1710577  53.5377502
  65.7736152   4.8416643  53.2659292   2.2217925  43.5542679  26.0439157
   1.5094689  43.0240250  25.6866074   3.0144903  43.0562735  25.8442640
   1.4081743  40.4726028  60.9259510   1.2091294  40.1797438  60.0366545
   0.6123789  40.9192801  61.2147713  19.4384301  64.1924620   0.5997452
  19.9284136  63.5284996   1.0848226  19.8452640  65.0216341   0.8511246
   8.5996795  33.2760072  26.7056942   9.5253563  33.0385089  26.7600012
   8.4951615  33.6322021  25.8234072  74.4761190  30.6859605  53.5582663
  74.5972619  30.3797166  52.6595046  73.5268459  30.7010333  53.6802627
  69.7926015  55.0292039  66.1770715  69.9016446  54.1619157  66.5671392
  70.5880327  55.5029094  66.4202179   3.8925850  56.1509037  14.9434733
   3.8663933  55.9505081  15.8790958   3.4109271  55.4336977  14.5313430
  16.1157489  57.2564173  20.9229827  16.4504707  56.4805412  20.4733109
  16.5366518  57.2353888  21.7824173  11.6211104  33.2016349  12.0339203
  10.6987643  33.0976868  11.8000329  12.0671976  32.4932194  11.5698266
  75.2794638  48.6906242   3.0347165  74.6507278  48.2366323   3.5957998
  76.0783150  48.7383175   3.5598773  21.1874819  69.8055792  17.3130345
  20.6383705  70.5779886  17.4475420  21.7780995  69.7974777  18.0662525
  17.7938902  27.8309059  15.1745367  18.7478256  27.7839136  15.2380204
  17.4828339  27.5635934  16.0394180  17.0005083  56.9953823  33.4562969
  17.1534634  57.0396566  34.4001579  17.0781446  57.9016972  33.1583071
  66.7793706  47.6542091   8.5832518  67.6237466  47.8422832   8.1735122
  66.5356805  46.7925358   8.2450724  31.4699793  47.5764036  26.7951894
  32.2542858  47.4319124  26.2658310  30.8742785  48.0516481  26.2159562
  83.2514184  64.8904228  10.4581201  83.2496267  64.7566557  11.4059258
  83.7903130  64.1768694  10.1165485  27.7712415  13.2929354  21.9409180
  28.5823392  13.7872248  21.8224335  27.2215947  13.5539370  21.2019992
  34.3520341  12.7459876  59.5411302  34.1392002  13.5809056  59.9580814
  34.5040450  12.1456544  60.2710082  54.4953945  61.2572861   4.9810541
  55.4440453  61.3686419   5.0434440  54.1432550  62.1415615   5.0824708
  19.0449035  52.3781443  17.8418970  18.4352767  53.1142569  17.7896452
  19.8398602  52.7520418  18.2220030  85.6627967  68.6069012  63.9309025
  84.7173646  68.6213064  63.7819672  85.8902342  67.6771307  63.9365482
   2.7044422  31.7400615  69.7126696   2.1596057  31.4110057  68.9977530
   2.6046664  32.6911609  69.6716263  26.9414377  60.6091928  31.4972711
  26.8483114  60.6003904  32.4498892  26.0723829  60.3777885  31.1695123
   2.9313293  51.6560936   5.7146513   2.6708481  51.4172029   4.8250937
   3.8563052  51.8903399   5.6386173  70.2084062  80.9510044  12.0437896
  69.8110029  81.0981668  12.9020715  71.0294220  80.4974006  12.2345972
  66.0278537  48.1982756  22.9158902  65.5799225  48.9235210  22.4804473
  66.7998173  48.5989428  23.3156061  15.9024370  45.0073767  13.8689232
  15.4800260  44.1528368  13.9558685  16.7125857  44.8266935  13.3922219
  69.7389433  25.8549325  71.0554309  69.4133327  25.6423537  70.1807767
  69.0499470  26.3947742  71.4428368  70.7162526  61.0254860  29.9793077
  70.1760700  60.3899527  30.4489136  71.2733283  61.4119864  30.6549668
   9.1657794  67.0053911  33.1664181   9.3901473  67.8611612  32.8009677
   8.4221488  67.1789408  33.7435889   4.1095194  55.9944296  49.5517778
   3.5777128  56.7883825  49.6070528   4.3740913  55.8200026  50.4550028
  66.8051388  35.1310277  37.9807973  66.0059478  34.7211432  37.6498628
  67.4716129  34.4475722  37.9105687   7.1278346  71.6858864  26.1726665
   6.5153342  72.2459126  26.6495800   6.5760678  71.1837435  25.5729675
  39.9471116  59.8731756  20.3713965  40.8159447  59.7053051  20.7363343
  39.4530821  60.2569532  21.0958815  76.2322297  40.8351612  21.4249420
  75.4111877  41.2623978  21.1808324  76.4023736  40.2186251  20.7127857
  27.7687906   3.0059938   1.9795072  27.8282290   2.0532064   2.0494774
  27.0428864   3.2436972   2.5563893  55.0538546   8.4841315  65.3097393
  55.2987817   8.2598750  66.2074878  55.0369144   7.6450698  64.8493918
  31.0287699  11.2329785  42.3675026  30.8104071  11.2671105  43.2988371
  31.9227872  11.5714566  42.3185458  20.5920299  35.1314223  10.7624279
  20.6478389  36.0494721  10.4972778  20.0820573  34.7124637  10.0691543
  21.6875724  71.5685069  57.4651994  20.8084915  71.6726505  57.8293456
  21.5512554  71.1041915  56.6393294  62.3718351  20.9866349  32.9673185
  61.4752823  21.1676709  33.2495417  62.6861698  21.8207423  32.6184835
  72.6429203  37.6969385  56.6893053  73.5980215  37.6336050  56.6881180
  72.3888710  37.4688721  57.5835514  63.8827636  40.7861900  50.1540089
  63.9450696  41.5240335  50.7605839  62.9574516  40.7531929  49.9112320
  74.3872514  63.8835669  27.7815700  75.2860763  63.8112259  27.4604583
  73.9863875  63.0422783  27.5629950  39.2932296  37.5847888  28.0791116
  39.1604018  38.2321596  27.3866534  40.0808048  37.1093726  27.8146625
  31.6117915  17.6066809   8.1413859  31.5891781  17.1178465   7.3187327
  31.6500526  18.5248213   7.8734434  20.8078170  56.8406725   3.2733700
  20.5917239  57.0233250   2.3589449  21.7552447  56.7042446   3.2729438
  82.2038254   5.1874988  66.5247320  81.2799582   5.0734107  66.7476343
  82.4255976   6.0561912  66.8600239  12.8345180   7.2814947  42.8349113
  13.0445671   6.4421976  42.4254084  13.4997368   7.3894817  43.5146570
  61.8451700  16.1385028  60.6630399  62.4846310  16.0407989  61.3685717
  61.0241959  15.8197467  61.0380437  28.6064649  73.2043982  18.5480285
  28.6814117  73.2759476  19.4996035  28.7683749  74.0917349  18.2276320
  40.1760912  65.3135538  18.2763135  40.1259327  66.0131884  18.9276457
  40.1580095  65.7684517  17.4343061  38.2076886  58.1420374  25.9848261
  38.2851842  58.6417007  25.1720762  38.6770299  58.6661530  26.6338706
   8.8831013  53.8731575  28.2411337   8.9527148  53.2537746  28.9675975
   9.6047413  53.6395884  27.6572561  27.2946000  49.1059589   0.9519172
  28.1784797  49.4351292   1.1151218  26.8717599  49.1191578   1.8105569
  84.7185085  57.8550768  23.8636732  85.4240059  58.3519554  23.4494090
  83.9323341  58.3775091  23.7048459  24.2457223  78.2516575   8.2089025
  23.3889627  78.6784840   8.2123274  24.5258045  78.2840729   7.2941703
  15.8799314  71.1951065  30.9676337  16.0302079  70.2498674  30.9547615
  16.3885581  71.5083265  31.7155814  49.6485662  55.5955219  28.3916736
  48.8932610  55.0122118  28.3175635  50.3639507  55.1151943  27.9748487
  26.5186667  69.1683674   4.8712108  25.9614849  68.5220814   5.3049123
  26.5576839  69.9015713   5.4853129  27.3749948  72.1329308  50.0991440
  27.9902530  71.9420481  50.8071375  26.5927720  71.6267824  50.3186274
  28.7095022  72.4007654  24.6053648  28.0978560  73.1370497  24.6084785
  29.5722961  72.8057623  24.6936727  15.3312123  36.0532928   3.1447321
  15.7737863  35.8111525   3.9581984  14.7389102  35.3225112   2.9676190
  68.1388042  24.5657603  56.6152944  67.6869759  25.3655974  56.8842627
  69.0677151  24.7639911  56.7338814  67.5227592  35.2591292  66.7821755
  67.2873727  34.4040839  66.4220126  67.0465741  35.8871524  66.2389739
  29.4143701  76.1766243   6.3967925  28.8904619  76.9734478   6.3141757
  29.9168873  76.3027573   7.2016525  42.9540651   9.3442087  34.1706967
  43.6150473   9.8457174  33.6933923  42.1689218   9.4038801  33.6264348
   5.9975046  79.2087364  15.1908600   6.6915685  79.6936703  14.7443771
   5.2374041  79.2939901  14.6153510  15.3309178  47.3537445  20.1675439
  16.0806906  47.9102707  20.3781366  15.4984987  46.5376663  20.6388831
  51.9613073  39.6528213  67.6636838  51.1687675  40.1223151  67.9238613
  51.9121138  39.6106975  66.7086773  30.6630635  74.1271877  11.0033572
  31.1154342  73.3565855  10.6601918  29.7361684  73.8889790  10.9844923
  81.9933074   4.9557810  55.6670618  82.0435565   4.0129690  55.5095768
  82.7575295   5.3149729  55.2163029  67.4182245  52.2379081  60.3605224
  66.7987982  51.8660514  59.7326149  67.5839803  51.5289752  60.9819557
  33.4075570  62.4219131  10.8651972  34.1715693  62.6506901  11.3945162
  33.7389588  62.3893976   9.9677855  23.1290746  76.3497066   1.6517241
  23.1306744  75.7272577   0.9245466  23.6632872  75.9309435   2.3266239
  84.0559142   9.5101099  25.7176185  83.6625617   9.3372469  26.5729713
  84.7853702  10.1010447  25.9044671  10.2219701  54.8941231  33.6974311
   9.4711530  54.7320604  33.1262565  10.5348313  55.7617569  33.4413767
   2.2403501  60.7593346   9.2772514   2.2544721  59.8170614   9.4450313
   3.1506321  61.0353327   9.3842298  35.5267119  50.4540777  13.9579844
  35.4011250  50.3530407  14.9015152  35.8672810  51.3427496  13.8554978
  79.2796209  63.1209326  20.3595233  78.3663603  63.2352591  20.6224251
  79.5242199  62.2643137  20.7096672   1.2218206  65.1368237  37.0240498
   1.8802726  65.5365658  36.4558220   0.3919696  65.2862120  36.5709901
  60.8083582  62.3850346  28.0623364  61.6507435  62.0618773  28.3820057
  60.1709509  62.0638371  28.7001300  79.6363446  47.3395538   7.0104384
  79.7654703  46.3935518   7.0785487  78.7356856  47.4799919   7.3025364
  20.5380815  31.1995153  45.0447416  20.5898284  32.1058111  44.7411489
  21.2407344  31.1226397  45.6901884  45.8434706  22.0258741  19.8792899
  45.0569587  22.2096758  19.3656301  46.4921742  22.6511221  19.5560646
  30.2494740  50.0610685  34.3459272  30.9855747  50.6219053  34.1012883
  30.6066990  49.4741201  35.0123453   5.4730446  11.9250886  64.6487947
   4.6151216  12.0875089  65.0409957   5.5576236  12.5960652  63.9713951
  57.9332907  50.2784316  65.9363975  58.5334873  49.5434444  66.0620664
  57.2033420  49.9092738  65.4392763  23.1689072  53.1070423  12.7237892
  23.5388970  53.3625555  11.8787718  23.9142609  53.1164122  13.3242834
  12.7852547  74.1283131  29.5492435  12.3604310  73.2866144  29.7144771
  12.6187849  74.3028688  28.6229324  -0.0991821  50.8124685   4.3221796
   0.2219043  51.6769457   4.5787323   0.5824318  50.4647732   3.7470776
  55.9629726  55.5926323  28.3065653  56.6906404  55.1806784  28.7724233
  55.7134819  54.9535799  27.6390314  18.2594371  77.4105358  52.2844028
  19.1055000  77.1223879  52.6270151  18.3454239  77.3292589  51.3345432
   8.7068784  70.8295822  35.6070948   9.0258783  71.4323616  34.9354315
   7.8638601  70.5231047  35.2729988  32.1597052  72.7221060  16.0264313
  31.2249470  72.5161076  16.0217035  32.3933196  72.7536726  16.9541490
  26.4795073   0.9052305  20.6100249  25.9272372   1.6606932  20.8112764
  25.8769225   0.2595930  20.2408719  57.6335444  42.3869578  63.6657335
  58.0292269  42.6844661  62.8464951  56.8091112  41.9799010  63.3995612
  10.2169854  13.7255256  59.3612303   9.2869861  13.7047069  59.5868351
  10.6041557  13.0172269  59.8756637  13.1159484  76.2166548  50.5624723
  13.5170710  75.7028627  49.8615074  12.1961915  76.2916946  50.3082085
  27.0565061  47.2286421  68.3955349  26.2560619  47.2349107  67.8706713
  26.8253616  47.7089631  69.1905792  45.6798220  39.1261935   0.4145175
  45.5448103  38.8602328   1.3240603  46.4827633  39.6469045   0.4339051
   2.9570431  56.1701393  33.3693147   2.8607735  56.2069225  32.4176788
   2.1478337  56.5541029  33.7069297  79.3900785  15.3533427  61.5592732
  79.1506920  15.6658427  60.6867661  79.4565854  16.1481731  62.0884694
  58.1631093  39.0834014  55.4293706  58.5984108  38.4445064  55.9937837
  58.8793012  39.5744292  55.0266470  24.6150851  63.6683798  35.6870985
  23.8615227  63.0941963  35.8238029  25.3702188  63.1363583  35.9380078
  74.8819217   7.1469323  50.8103885  75.6530425   7.7004735  50.6871118
  74.2741761   7.6909511  51.3113095  22.9702783  28.2658792  28.1355762
  23.5978127  28.9873266  28.1797099  23.5034442  27.4779034  28.2407308
  13.1391323  54.1513872  50.3906250  14.0187550  54.4140863  50.1195478
  12.8894627  53.4702730  49.7661400  74.0170520  14.9043875   2.9979154
  74.8034280  15.2644663   3.4080175  74.1360753  15.0724153   2.0631251
  21.0657036   5.3477602  23.4534717  21.9419884   5.2878313  23.0729914
  20.7927727   6.2496977  23.2853746  21.8216705  43.5442591  13.2241690
  21.8309546  43.8484478  12.3166358  22.6990771  43.7416506  13.5519254
  23.2722425  32.5708723  37.0015597  22.8909469  33.4027719  37.2822571
  24.2160249  32.6932335  37.1041894  35.3812957  78.8917542  45.8296299
  35.4338789  77.9458141  45.6930017  35.5403376  79.0076590  46.7663813
  55.5225468  70.9193659   8.9043576  55.4721308  70.7152796   7.9705274
  56.4545345  71.0637856   9.0679848  25.9858050  13.5160952  55.5941582
  26.3544866  14.3893843  55.4612589  25.3719118  13.6233072  56.3207054
  43.0684369   2.4060659  59.3227291  42.1183961   2.5211554  59.3025017
  43.1953936   1.5230398  59.6696854   5.9407932  26.9957654  43.6338510
   5.4278309  26.8410365  44.4270481   6.6797621  27.5290362  43.9267339
  16.8508995  38.0293512  21.0140848  16.7088115  37.0829153  20.9966683
  16.2309730  38.3764601  20.3726530  77.4559348  10.9110670  54.0677500
  76.9987958  11.0474424  53.2378960  77.2630303  11.6967134  54.5793915
  82.6508933  62.9195070  21.7149043  82.3207682  63.6788321  21.2346172
  81.9297608  62.2904348  21.6933608  47.7723932  72.6274443  14.6813715
  47.1404266  72.2047329  14.0998471  48.5571384  72.7357388  14.1440845
   0.7172070  38.3654308  34.3171906   0.3906096  37.6703000  34.8884702
   1.4224572  38.7754250  34.8179507  46.6430645  15.1233416  24.8129487
  46.1694353  14.3509130  25.1215839  46.1861032  15.8614569  25.2161860
  72.8405878  52.2535007  61.4193370  73.1019399  51.4810435  60.9181024
  71.9832549  52.4899261  61.0653402  83.8995021  22.3380403  22.9539132
  84.6958106  22.3695211  23.4841347  83.4766381  23.1831198  23.1064105
  51.3328426   2.0918112   2.0790222  50.5346053   2.3773413   2.5234601
  51.8732756   2.8801661   2.0273641  63.0079009  49.3285716  18.7701736
  62.9938035  48.7397349  18.0156551  62.7752681  50.1845229  18.4103809
  52.5827918   1.9517724  43.9769353  51.8210694   2.3243682  43.5328807
  53.3313838   2.4059312  43.5901775  25.4965711  80.5949593  16.6464639
  25.1861334  79.7914600  17.0638895  25.8967710  80.3006172  15.8282745
  81.3637557  63.1661272  18.6443257  80.7161894  63.3798218  19.3160582
  80.8686676  62.6911545  17.9768515  29.2763400  39.3114042  36.7774606
  29.3574953  40.0612688  37.3668242  29.1358519  39.6996212  35.9138727
  41.7289286   4.0456610  18.4132957  42.2227507   4.4998198  19.0960193
  40.8514815   3.9416056  18.7813854   1.1229705  56.5265083   1.3417459
   2.0072882  56.5095377   0.9757867   1.0784253  57.3531771   1.8222338
  39.0152078  13.8364725   8.1513685  38.9959186  12.8945475   8.3206135
  39.3729263  14.2167025   8.9536750  20.2173138  72.3478842  34.3432069
  19.5649397  72.0121098  34.9579406  20.2059221  73.2957697  34.4759202
  83.4017167  22.2696273  65.9947594  83.4437856  21.3339440  66.1921452
  83.9298162  22.3713510  65.2029290  58.0840208  22.9244388   7.0913063
  58.6182102  22.1357644   7.1854387  57.3941730  22.6745093   6.4765916
  35.5195569   9.3819647  19.6506786  35.2121549   8.5058241  19.4180453
  34.7258615   9.8564653  19.8979223  40.7427263  72.4717379  36.2976503
  41.2970543  71.6920233  36.3291693  39.8484898  72.1306276  36.3125038
  49.7750133  25.5509596   6.5797544  49.6718472  24.6919756   6.9893152
  49.0386765  26.0645895   6.9117534  50.6000250  11.5170126  57.9857779
  50.4853004  11.5762644  57.0373297  50.0655764  10.7664995  58.2452631
  50.0153893   1.0117083  19.4832230  50.4693192   1.8539934  19.4561446
  50.4600685   0.5221109  20.1751685   0.5761565  76.3387203  49.7080517
   1.3792342  76.8342352  49.8685551   0.7090051  75.9391832  48.8484287
  16.8232875  15.2745752   8.9357871  17.3563509  14.4808893   8.9821088
  17.3786836  15.9583120   9.3103135  42.5450116   9.7316961  20.7445979
  43.0900472   9.6875792  19.9589634  42.0027166  10.5099897  20.6164956
   9.0115171   9.6100073  17.0464134   9.2262595   9.8010950  16.1333954
   8.2465714   9.0366774  16.9976032  17.0499575  74.8067522  27.5469947
  17.3617375  73.9101934  27.6703024  17.5638270  75.3262043  28.1653285
  28.9307714  62.6927042  35.7127428  29.8075318  62.6284599  36.0914183
  28.8070941  63.6282349  35.5523801  11.6931391  70.2909088  30.5878806
  12.2134590  69.8646402  29.9068594  11.3472378  71.0782003  30.1674581
  13.0816889  71.6155481   5.9917551  13.1643927  71.0195971   6.7362261
  12.6540363  72.3920298   6.3528883  72.8232286   5.3816287  66.8562614
  72.6772794   4.5351092  66.4339616  72.4345419   5.2857225  67.7257194
  20.8042502  52.1398115  21.2308049  20.3507042  52.9071617  21.5796614
  20.2161551  51.4082193  21.4182830  38.0991434   4.3778830   8.4953171
  37.6358026   4.2243509   7.6719242  38.1241231   5.3308229   8.5820085
  65.5734858  49.0108077  70.9609391  65.6032530  48.0687205  70.7941466
  64.6402100  49.2233436  70.9684462  31.8316074   9.0975313  10.1920235
  32.1232208   8.4855776  10.8678198  31.4830653   9.8441153  10.6792307
  13.8903022  78.0138969  41.8276978  14.1327393  77.3728609  42.4959278
  14.4321525  78.7787342  42.0217371   4.7003872  18.5215489  41.5996112
   4.7925312  17.7666776  42.1809115   5.5466420  18.5879151  41.1572589
  43.1391817   9.8072557  39.9098468  43.8883715  10.1589994  39.4289923
  42.3765462  10.0897341  39.4050479   8.1440067  31.0619497  28.1433463
   8.0093110  31.8867922  27.6767397   8.0773610  30.3895736  27.4653339
  20.5710036  39.7249953  63.3752658  19.8064048  39.2009418  63.6139937
  21.2976748  39.3165938  63.8457896  33.1529570  73.8702726  39.5705295
  33.6178041  74.6998644  39.4613576  33.7275219  73.2190084  39.1680813
   3.3371574  44.5197074  66.5162270   3.9066464  43.8232390  66.1893450
   2.8458578  44.8081653  65.7470419   2.2385222  22.1099393  63.5358866
   1.8929274  21.3820664  64.0526070   2.5184185  22.7538650  64.1864617
  20.3068280  65.6863546  31.0612583  20.8932447  66.4416313  31.0176659
  20.0718188  65.6186867  31.9866896  22.5125742  74.4296265  57.0656443
  22.3220968  73.6023474  57.5078583  22.0716190  74.3558550  56.2192678
  12.7887642  66.5109682  47.2597694  12.2050464  65.9307957  47.7485418
  12.9741478  66.0367584  46.4492226  86.5043500  77.1797943  14.5611012
  86.3505825  76.2799931  14.8491156  87.3884765  77.1661615  14.1945410
  40.9198236  56.1591768  10.9542930  41.4998102  55.4010057  11.0251713
  41.4769602  56.8551922  10.6058764  15.4955101  73.6492205  64.5499849
  15.7008350  74.4959116  64.9464560  15.7971609  73.0052614  65.1907349
  40.1119423  80.2978134  23.8106179  40.0638580  79.8741722  22.9536200
  40.7086229  79.7467279  24.3170810  31.7108440  74.2770386  43.5347366
  31.9884133  73.4161425  43.8478565  32.0469141  74.8896456  44.1889524
  49.0633529  17.0310335  25.8584070  48.3673280  16.3799505  25.9471178
  48.6580973  17.8537397  26.1325550  38.6775517  75.8906984  40.9923267
  37.9463339  75.5279207  41.4922667  39.1343188  76.4579678  41.6134596
  22.4117551  11.1958091  68.2838477  22.0230064  11.1004750  67.4143552
  21.7261610  11.6089313  68.8087504  20.0511789  55.9071922  18.2703662
  20.5874515  55.1190758  18.3570778  19.2228079  55.6809568  18.6932719
  24.1965222  49.8120308  26.0259414  24.9702263  50.3160906  26.2780094
  23.6082697  49.8842573  26.7775869  78.3086443  73.9567757  46.2828541
  78.1436205  73.7460709  45.3638315  77.6209593  73.4942865  46.7618322
  62.8138494  77.0426512  24.5310354  62.2466421  77.1204710  23.7639284
  63.6720514  76.8165874  24.1724038  20.3375101  74.9866533  35.2775264
  19.4239306  75.2666807  35.3339911  20.8423567  75.7915449  35.3937578
  47.5423890   8.9692717  36.0925794  46.6491430   8.6254053  36.0824656
  48.0879872   8.2124166  36.3064027  24.3284059  73.4671926  47.8821039
  24.5055771  74.1603565  48.5179949  23.5983109  73.8011837  47.3609114
  10.9479737  73.0967093  15.6315255  10.1399291  72.5904274  15.7150269
  11.1658335  73.0483103  14.7007048  36.1388931  19.8132531  70.9383548
  35.2146372  19.6575753  71.1326409  36.2508855  20.7575624  71.0477748
  71.2898007  52.3021650  23.7041664  70.9224751  52.2858047  22.8204060
  72.0697191  52.8520250  23.6292386  45.6088018  63.7208176  14.9485552
  46.2002325  64.2744398  14.4387031  44.7749901  63.7665844  14.4806921
  22.6318026  51.6184330   9.4179851  22.9765964  51.0926294  10.1397038
  23.0266476  52.4817324   9.5406449   2.3923415  77.0912218  15.8459067
   2.6618949  76.6584969  15.0357711   1.7236798  76.5140629  16.2147021
  22.4015117  59.6377134  17.7298868  22.8873515  60.0781965  17.0326293
  21.8003821  60.3048372  18.0612779  36.0619503   0.5129938   5.6597900
  36.3294887   0.4310255   6.5751779  35.1970588   0.1043158   5.6255209
  16.0061436  53.6183386  36.0435009  15.3301793  54.0547686  36.5619922
  16.4854746  53.0835848  36.6763592  63.7486246  61.9799995  23.9991713
  64.3956115  62.5789881  23.6265421  62.9083350  62.4151087  23.8548732
  73.6579117  49.0098922  70.9822419  72.9609582  49.6648948  71.0204909
  74.4380006  49.5045821  70.7312988  36.4895160  14.6114270  63.3962675
  37.0102841  15.2610795  63.8684763  36.5957124  14.8438947  62.4738182
  28.0750084  39.6797824  17.0424068  28.8113499  40.1979876  17.3672104
  28.4799647  38.9001703  16.6623449  70.8483812  34.7119872  68.5795519
  70.6155905  34.3770806  69.4455056  70.1975128  35.3911464  68.4024982
  14.2400098  79.2649031  57.8572750  14.3796730  79.5327139  58.7655735
  15.0893605  79.3957090  57.4357033  16.3090980  77.8414822  11.1128306
  16.8918419  78.5716963  11.3212359  16.2631559  77.3330832  11.9225526
  22.8310061  48.5414171  30.3642750  23.0649161  49.2334080  30.9828782
  21.9136167  48.3478689  30.5570650  65.8133056  64.8676538  55.2511597
  65.7765439  63.9121437  55.2078056  66.1017301  65.1360703  54.3788052
  66.2672751   5.5379992  63.7389565  65.9045547   5.1304178  64.5254278
  67.1979135   5.6483107  63.9338255  45.3774766  68.9923989  59.5985915
  46.2404958  69.1936886  59.2367722  44.8244051  69.7218382  59.3188335
  37.9669785  61.6991949  32.0903659  37.7287221  60.8752298  31.6654587
  37.6323676  61.6138172  32.9831028  51.6843128  64.4795418  22.8602076
  52.0153236  65.1485682  23.4594321  51.9554472  63.6501980  23.2537889
  41.9626492   5.6185369  34.0721488  42.3399764   4.9089937  34.5921564
  41.3072222   5.1897936  33.5218501  82.2760528  30.2426462   8.5551471
  81.9163936  30.4392843   9.4201404  82.2228234  31.0716085   8.0795270
  14.0656567  25.6164479  14.9333227  13.7019849  25.1656842  15.6954181
  14.0370715  24.9643779  14.2331672  20.5853033  74.7519636   7.9892695
  20.0940466  75.4210138   8.4659982  19.9876690  74.0059090   7.9395479
  30.8941031  77.2746181  31.7053080  30.1385784  77.3433590  31.1216211
  31.6478300  77.2287846  31.1170697  18.4234398  27.9866343   9.5392466
  18.7589341  27.6488428   8.7088418  18.3371156  27.2123747  10.0954032
  74.6749585  22.8262262  30.0050664  74.0600341  22.3358660  30.5506372
  75.3825515  23.0702429  30.6017184  44.9741840  47.1811581   2.4535984
  44.4357491  47.9512978   2.2713681  44.6549177  46.5159702   1.8438195
  33.2882857  77.0551825  30.6072545  33.8370395  76.8919754  31.3743711
  33.5091186  76.3488579  30.0001502  30.6143141  54.3019819  12.1292543
  30.3104496  54.9068499  12.8060365  30.1403236  53.4890079  12.3042798
  64.4344154  46.5409343  49.3166794  63.8568560  45.8854167  49.7077765
  65.2628491  46.0806243  49.1823592  73.2738250  10.5120115  26.7346907
  73.0973094  10.1107531  25.8837724  72.4089187  10.6328230  27.1265697
  62.7964067  77.1078682  49.5594978  62.4625444  76.3354301  50.0156832
  62.1477985  77.2822332  48.8774920  18.1229442  12.1616774  21.4924669
  18.9946406  12.5136404  21.3121891  18.2765692  11.4453726  22.1085358
  11.7129619  35.3405301  70.6483053  11.3523538  35.4593579  69.7696267
  12.3581130  34.6403186  70.5497609  40.3984022  56.2464380  27.2103882
  39.9164033  56.6048717  26.4651155  39.8493004  55.5298233  27.5284839
  47.9572746   7.6950614  58.2807769  48.5623876   8.1907765  57.7291085
  48.4626237   6.9341628  58.5669400  25.5154031   4.5663767  12.2839451
  24.6027123   4.4939165  12.5631881  25.7400634   3.6905031  11.9699383
  61.3585442  37.0958357  31.0396385  62.1089738  37.2339468  31.6175747
  60.6035679  37.0770102  31.6277599   8.8559628  34.1838145   4.7413975
   8.9791006  34.7976637   5.4654545   9.6643466  33.6716104   4.7215271
  53.1862259  63.4849930   8.3846712  54.0489340  63.3448505   8.7749672
  52.8861523  62.6080322   8.1456602  85.4452738  59.6566741  71.1541424
  84.5758733  60.0571506  71.1545593  86.0174617  60.3267924  70.7802652
  51.7758277  54.1748953  21.2926936  51.0683801  53.5303307  21.2758136
  52.5176361  53.7063789  21.6753745  85.4646597  20.3415029  51.6639068
  85.0533399  21.0612838  51.1854030  86.3382277  20.2668397  51.2798013
  62.6654547  43.4169416   2.4412422  62.9014223  43.9594870   3.1936979
  63.0819099  42.5727110   2.6146817  39.6217752  56.3129997  23.4240198
  38.9006996  55.7234764  23.2032418  39.2234802  57.1832609  23.4395266
  33.3751178  71.7736769  22.7235842  33.3490634  70.9514856  23.2130289
  32.9790759  71.5618753  21.8782902  58.4563732  79.3056726   4.6596521
  59.2510128  79.0871716   4.1727927  58.7664175  79.8168707   5.4071701
   9.0856734  42.4872999  42.1964121   9.7533026  42.9761343  42.6776075
   8.2550183  42.8507357  42.5032663  41.7199612  52.2266722  18.1328237
  41.8850231  52.2809553  19.0741205  42.2264624  52.9476833  17.7588725
  18.4463322  81.7368317  25.6375146  19.1685998  81.7860413  25.0113034
  18.8096428  82.0884323  26.4502954  64.7806137   8.0499105  24.8867202
  65.1030128   7.8554277  25.7667589  65.5310243   8.4385233  24.4371772
  48.2780676  29.8737841  57.3903275  47.5157433  30.3580217  57.0731401
  48.9810555  30.5229692  57.4146652  30.3735123  35.1120882   1.4304629
  29.4676948  34.9441938   1.1705821  30.4037457  36.0538797   1.5988234
  52.8330040  67.3487473  19.4893897  53.0477715  67.5180006  20.4067016
  52.8377771  66.3944960  19.4144177  73.9564603  38.3243875  24.8531985
  74.2192405  39.1031294  25.3438473  74.6329635  38.2236128  24.1835546
  12.5948429  61.4207268   4.7034654  12.6123881  61.8725872   5.5471140
  11.9875848  61.9332647   4.1698253   5.5370862  16.0255925  70.1030703
   6.2361462  15.3857820  70.2379427   5.7690007  16.7577426  70.6743863
   2.0591965   3.7988214  31.6379452   2.1794834   4.4671564  32.3125529
   1.6961232   4.2749433  30.8911419  20.6704003  34.2486875  68.5886510
  20.1799972  34.9070851  68.0964615  21.4102895  34.0284936  68.0226945
  68.8776486  22.0245104  22.9166961  68.7609714  21.9128351  23.8601732
  69.6266835  21.4691000  22.7005887  21.8011355  70.8370447  36.4367485
  22.1594596  71.5758467  36.9286895  21.4081812  71.2346792  35.6597662
  46.8310612  11.4297991  34.5005751  46.2900703  11.1074476  35.2214432
  47.0013683  12.3458223  34.7199702  34.8371291  81.9731903  24.4122505
  35.1244712  82.7447510  23.9240265  35.5099750  81.3150978  24.2378283
  18.7707717  52.4671237  62.6537146  17.9561622  52.2801177  62.1871569
  19.2899758  52.9789130  62.0334460  34.3026406  43.4245364  67.7285673
  35.1847894  43.1778495  68.0064045  34.2354495  44.3550078  67.9428794
  78.4120315  31.8149118  58.0485868  78.0784696  32.3520689  57.3299551
  77.8237861  32.0016699  58.7802458  19.2679834  57.5013161  13.6908913
  18.3278012  57.6634550  13.7683547  19.4115710  56.6884279  14.1754770
   8.3645264  76.9113195  55.5625250   8.2436840  77.2880542  56.4341332
   9.0661422  76.2698137  55.6740453  85.4338598  57.1684742  37.6734638
  84.9637217  57.9368067  37.3496270  85.7985743  57.4472713  38.5133982
   7.9070890  42.7373219  32.0622683   8.8002264  43.0708218  31.9767356
   7.3815429  43.5102654  32.2686481  47.7808563  75.1501023  65.0298663
  48.0242662  74.6772158  64.2340263  48.0251757  76.0585177  64.8528870
   7.2195816  17.3129237  44.2573690   8.1428784  17.1903300  44.4781113
   6.8250692  17.6557148  45.0592995  54.5570246  10.7978599  63.4580727
  54.4203693  10.0760524  62.8444346  54.8958421  10.3787963  64.2491611
  78.6702373  -0.0409961   6.2364542  79.0393731   0.8347912   6.3503283
  77.8775551   0.0986937   5.7184064  12.8648400  12.9972339   0.9780010
  12.6766503  12.1170676   1.3037673  12.2157240  13.1416750   0.2895123
   5.9752893  15.1547432  25.9564877   5.2428675  15.4105353  25.3958082
   6.7532927  15.3163350  25.4227924  23.3167005  10.2964020  27.6364899
  23.4352040  11.1497295  27.2193313  23.5970473  10.4313302  28.5417151
   1.4215238  33.8215034  53.4679081   1.2122995  33.9966933  54.3853857
   0.8401377  34.4004361  52.9748978  77.7404556  31.5401237  67.1710189
  77.8544006  31.3313977  66.2438293  77.9084966  30.7142751  67.6248502
  40.3088468  15.9970121  10.8282387  40.5523341  15.9800367  11.7537963
  39.4157641  15.6531076  10.8091760  77.3729286   9.4599454  58.7881734
  78.3050093   9.6203725  58.6407961  77.2982916   9.3334453  59.7340371
   3.5437581  51.2816715  19.9469507   3.6656180  51.9807434  19.3045473
   3.8264260  51.6667128  20.7764554  35.5466533  49.2741108  11.4584482
  35.3544831  49.7325993  12.2764301  36.3156772  48.7402678  11.6580641
  83.1969085  61.3475132  29.0346050  83.3087229  61.5445042  28.1045914
  83.8400745  60.6614351  29.2131233  85.6515798  31.9975059  65.2593239
  84.6966228  31.9403283  65.2274062  85.9064207  31.3721578  65.9377279
  40.6660175  36.8220830  13.0875695  40.6953430  37.1980715  13.9673460
  40.2272606  35.9790778  13.2018781  56.5435480  33.9815394  65.6118723
  57.2972241  33.5487334  65.2107723  56.7342197  34.9162452  65.5331292
  18.7494278  55.0748873   1.0460038  18.5655153  55.0060034   1.9828403
  18.2538521  55.8424091   0.7604339  13.2074320  47.9385567  30.6790328
  13.2833290  47.8628683  31.6302133  13.5312963  48.8175106  30.4821014
   1.2125187  43.8932991  20.4016280   2.0021766  44.4095898  20.2400231
   1.3895848  43.0487537  19.9873507  24.4939137  54.5812321  35.0944352
  24.2468429  54.3476486  35.9892130  25.3679752  54.9621439  35.1790023
  41.3287787  79.2807805  62.9898484  42.1182434  79.8219740  62.9990907
  40.8882741  79.5137012  62.1725746  37.0257506  24.0279071  63.7079050
  36.4921007  23.2643334  63.9279296  37.8503332  23.6602370  63.3899226
  75.3438964  26.3303065  48.3940506  75.5859592  27.1449995  47.9536963
  76.1347070  26.0689068  48.8657713  15.0448787  27.9765224   1.1661150
  15.6461179  28.2113624   0.4592957  14.2970181  27.5772691   0.7216684
  10.5292511  54.1887474  23.4050703  11.2343228  53.6709118  23.7935925
  10.9793615  54.8800421  22.9195309  84.0925995  73.7500894  60.6011392
  84.9243371  73.6344564  61.0605713  83.6712853  72.8919231  60.6488730
  20.9585504  72.1352350  62.5737365  20.0346349  72.3467004  62.7075078
  20.9988896  71.7920005  61.6811027  11.2996030  59.2380619  53.9343500
  11.9454336  59.4902849  54.5942879  11.6517484  59.5788336  53.1120968
  87.0534397  54.3728256  34.0425038  86.1596839  54.3850517  34.3849707
  87.5155195  55.0359631  34.5553064  26.8825650   9.5093316  44.3780708
  26.8896031   9.6153325  43.4267855  26.0660315   9.0446287  44.5612526
  26.9525132   6.1092298  59.7187664  26.4804468   6.8705194  59.3813898
  26.5041241   5.3579585  59.3304731   5.9564716  19.7714245   8.5721099
   6.5125519  19.3971133   7.8888106   5.1020914  19.3615878   8.4368300
  15.4817426  54.9329805  12.0267093  14.9438787  54.2137384  12.3578036
  15.9497559  54.5582533  11.2805355  66.1793854  25.2489233  20.4492545
  66.6890028  24.4769478  20.6953764  65.7059791  25.4874873  21.2462544
  15.2901208  77.4631071  30.2795720  14.5758903  77.5605774  29.6498060
  15.4333746  76.5183067  30.3349161  85.5377464  22.2114730   9.1613668
  85.8682511  21.3906074   9.5263016  86.2939088  22.7983284   9.1683680
   8.5269276  72.8009140  37.7187790   8.6771099  72.4574315  36.8380417
   9.0241055  72.2170102  38.2915820  72.9117515  40.0865889  14.1586626
  73.6107590  40.1014137  14.8124206  73.2343021  39.4976950  13.4764600
  37.8971564   1.3489847  17.0380628  37.7633118   1.5010958  16.1025524
  38.6116534   0.7132368  17.0775306   5.4451364  27.3028708  36.1339760
   5.8272171  27.1575117  35.2684593   5.9831691  27.9938769  36.5203238
  82.9789632  53.5582781   9.8141819  83.7173587  54.0543509   9.4607455
  82.7504813  54.0135908  10.6245637  38.6114889   3.0288630  26.0983539
  38.5258728   2.0755320  26.1062193  38.5286468   3.2843714  27.0170951
  84.8138427  43.4079409   2.0751902  84.8578251  43.2581425   1.1308083
  83.9866453  43.0075788   2.3429342  34.1695023  65.5283880   2.8030893
  34.8171377  64.8265362   2.8678963  34.6832466  66.3104868   2.6015383
  78.8013783  52.7308321  33.3913398  78.1572386  52.0477295  33.5775924
  78.5520073  53.4573317  33.9625168  56.7607573  11.7707078  54.0389718
  56.6676972  12.2205655  54.8787310  56.3252084  12.3456399  53.4097030
  27.8447413  80.0786495  26.3020253  27.1953750  79.9715042  25.6069875
  27.6318932  79.3940639  26.9362736  51.9600766  25.8106642   8.0602640
  51.1641329  26.0037451   7.5648588  51.9267719  24.8655539   8.2081962
   5.1153404  26.8116586  61.1327829   4.2331821  27.1415107  60.9618296
   4.9808557  25.9131496  61.4341553  28.4552336  56.5517044  25.0790930
  27.5255704  56.6863203  24.8951435  28.8989663  56.8085003  24.2707682
   2.5551230  23.9059226  65.4673912   2.2188313  23.8709752  66.3628896
   3.4505016  24.2313354  65.5603250   7.6378930  49.9704981   3.6188656
   8.0553102  50.6133270   3.0454856   8.0773038  50.0806475   4.4620842
  81.1355450  55.4272509  15.2006912  80.4126325  56.0544825  15.1863372
  80.7331052  54.6042585  15.4781139  67.9905906  37.3825788  15.6223691
  68.4328702  37.1872473  16.4484847  67.0812562  37.1228361  15.7702708
  33.6682616  79.5420229  70.7527939  33.0556891  78.9654648  70.2961033
  33.2049219  80.3767001  70.8225341  36.5973759  66.5873480  10.9873629
  36.2238240  67.4427462  11.1994660  36.1251020  66.3075256  10.2032149
  47.5032098   7.2038381  65.6879266  47.7504212   8.1154983  65.5330326
  46.6982371   7.0849959  65.1838215  27.2304821  66.9485664  23.7350583
  27.9332209  67.5243568  24.0364885  27.6838422  66.1967897  23.3535790
  32.7348447  46.9110918  15.4260206  32.7425122  46.2942743  16.1579418
  33.6071825  46.8348932  15.0394320  64.0325567  30.7372586  52.4988975
  64.4059572  30.4135720  53.3186724  63.9449021  31.6811196  52.6318421
  15.2470005  35.5054331  24.4500875  15.6532168  35.2544093  23.6205053
  15.9732246  35.5356026  25.0729203  75.6564442  67.4468386  64.7585316
  74.8972575  67.2528398  64.2087777  75.7011429  68.4028256  64.7764845
  42.6909590  24.4144893  20.5929708  42.6998615  25.1448727  19.9743485
  42.2681856  23.7009740  20.1150656  80.3583166  66.6336870  39.5325255
  80.5054470  66.7799950  38.5980844  79.7116389  65.9287453  39.5656753
  80.4805932  32.5331084  37.3322572  80.6456527  31.6323392  37.6108279
  81.3336501  32.8532188  37.0389070  21.9379098  18.7380759  45.6617512
  22.2383267  18.5330741  46.5471639  21.8867309  17.8886287  45.2235116
  18.6566472  56.7481518  11.0626054  18.9717424  56.9545174  11.9425821
  18.6328602  57.5926208  10.6125569  60.3250090  75.0911200  56.2371780
  59.4630210  75.2959024  56.5994920  60.8455888  74.8231160  56.9944097
  23.8666987  65.7873154  32.2937512  23.2676148  65.1513243  32.6847053
  23.3556962  66.2017822  31.5985370  12.5192153  59.0424776   7.3627293
  12.2927701  58.8904810   6.4452046  13.2522428  59.6571493   7.3298609
   0.5144007  20.4248015  47.3489370   0.6830818  20.6830136  46.4427890
   0.1685626  19.5346324  47.2839083  71.7017903  53.0076456  33.0051184
  72.0053449  52.8786898  32.1065331  70.8746352  52.5279999  33.0496621
  19.5230055  51.0457373   3.4213749  18.6346054  51.4017725   3.4361628
  19.5901442  50.6045055   2.5745934   4.5897689  44.7984219   1.0294927
   3.8264045  44.6537590   1.5885805   4.8267797  45.7135487   1.1798260
  83.2951150  19.5440356  65.6546690  83.5241017  18.6771171  65.9896972
  82.3415479  19.5847194  65.7273872  65.8500459  74.9828720   3.4049410
  65.9603884  75.7440662   3.9747119  64.9647286  74.6703911   3.5914823
   2.4891792  53.3180618  24.8783946   2.2986034  52.9953146  23.9976311
   2.4756914  52.5349045  25.4285908  72.8042206  16.7323081  42.6080837
  72.8024635  15.9946744  41.9980611  71.9000015  17.0463435  42.6067819
  10.7695568  64.3062115   7.3124939  10.3141665  65.0803041   6.9813937
  10.8211267  64.4448805   8.2581913  54.9020672  52.9079485   4.1330534
  55.6780052  53.2755280   4.5561892  54.5793867  53.6123848   3.5710233
  69.7542122  34.3982291  12.0524442  70.1454952  34.5989680  12.9026401
  70.0676634  33.5175753  11.8464601  12.1246636  76.7736149   3.5856423
  12.7678728  76.7044830   2.8801382  11.8936455  77.7022266   3.6089897
  78.6155305  21.3439767  41.7710437  79.1611180  20.9369008  42.4439873
  78.0002675  20.6573121  41.5138044   4.5071864  41.9731140  21.2401891
   3.8118368  41.9749975  20.5823755   5.3074354  42.1431589  20.7432818
  22.7755705  60.5402219  46.3107337  22.1473161  60.5335784  45.5885949
  23.1477163  61.4219987  46.2963333  22.7156377  11.5913665  11.6927946
  23.0255294  12.2412062  12.3235941  23.4001803  11.5609074  11.0244358
   6.5574235  23.3453774   2.6462865   7.0596582  23.8855100   2.0361641
   7.1063983  22.5748754   2.7918324  21.3546089  75.7728207  59.1755285
  21.9485662  75.4333436  58.5060491  21.9167016  76.2847936  59.7570505
  10.5207578  66.2277639  54.9016692  10.2481023  66.3329398  55.8131673
  10.7981280  67.1033346  54.6320893  15.2342431  33.7746232  59.9723830
  15.5085746  32.8576648  59.9597015  14.6449296  33.8587045  59.2228009
  54.4097114  20.6622331  52.7444972  54.4820199  20.1600806  53.5561909
  53.8126683  20.1505248  52.1986701   1.5213190  67.0544529  32.9846168
   2.3491250  67.3584223  33.3568668   1.5450169  66.1036396  33.0924487
  59.8469877  71.4187527   3.1941372  60.5545759  70.7885838   3.0583394
  59.2394543  71.2558746   2.4726060  16.3174248  68.1412315  26.0367751
  15.5156398  67.9490995  25.5505037  16.9260597  67.4492073  25.7781219
  36.3293932  65.4873621  58.6902561  36.8256698  64.6848118  58.5294713
  36.6182975  66.0891211  58.0042137  78.8157591  26.1350410  69.4700931
  78.3163843  26.7216365  70.0382097  78.1939706  25.8720653  68.7915238
  76.0982391   0.0359790  69.9777396  75.6469497   0.3850905  70.7463035
  76.8437109   0.6227891  69.8506205  65.0798694  34.6259896  69.2374599
  65.8328042  35.2048509  69.3568017  65.4621294  33.7552802  69.1280261
  39.8315493  68.2465660  50.4776420  39.4119565  67.3867333  50.4483046
  39.2359106  68.7861287  50.9975662  84.1842699  32.5781155  10.4004908
  83.7222278  32.5644398  11.2386799  84.9645488  32.0437670  10.5483735
  13.1579804  76.5976000  11.6027820  12.8040469  75.7538462  11.3216341
  14.0856791  76.4262009  11.7647421  14.6369696  31.2011242   3.0608881
  14.5207655  31.7073464   3.8649195  13.9065182  30.5825186   3.0596566
  30.7988417  72.8605520  69.8947081  29.9894057  72.9608500  69.3937233
  31.4399979  73.3920347  69.4228216  18.2023799  14.6600533   5.5045068
  18.5385227  14.9726903   4.6645677  18.4843886  13.7464845   5.5502731
   1.9954456  33.2706165  21.7035031   1.9011110  33.6311936  20.8218479
   2.7260923  33.7576437  22.0845437  45.9628782  15.4838435  60.8509232
  45.9674916  16.2265842  60.2471473  46.1707339  15.8667247  61.7032303
  41.2725115  45.6282187   6.9714594  40.9227705  45.1272154   7.7082837
  40.8385086  46.4791584   7.0329070  16.7579722  63.5779619   0.9505148
  16.8225765  63.3685637   1.8822925  17.6635253  63.7158203   0.6726635
  52.3950403  10.6923895   5.3420079  52.4830478  10.4488020   6.2635040
  51.5056723  10.4268961   5.1079768  68.7701473   6.6756646  55.1847436
  68.9482197   5.7732789  55.4497470  68.3681306   6.5963523  54.3196859
  50.4937908  13.8745753  56.0664954  49.7304765  14.2136018  55.5989017
  50.8990124  13.2628791  55.4517915  35.4324412  32.3674011   6.3656747
  35.7525110  31.7949653   7.0628852  36.2160230  32.5984430   5.8668226
  72.3623180  42.4020529  15.3282535  72.4886656  41.6437721  14.7579181
  72.6888990  42.1169376  16.1816502  52.4144602  19.7062695  25.5330443
  52.8998232  18.8926804  25.3962016  52.2826147  19.7501099  26.4801073
  81.8539556  67.3652792   9.8095769  82.1605303  66.4925289  10.0556505
  82.2995245  67.9557657  10.4170537  17.9522550  65.2044630  40.1307535
  18.0198193  66.1061430  40.4448223  17.8543293  65.2879190  39.1822410
  22.8162151  11.9360094  49.9238777  23.4522259  11.3970880  49.4534636
  22.8974073  11.6602735  50.8368969  33.1043372  25.7176845  69.6088076
  32.7046570  26.5579097  69.8335490  34.0431485  25.9009568  69.5731038
  52.1762578  64.5430839  62.4467887  52.9757516  64.6135056  62.9684045
  51.7856089  63.7124359  62.7181705  38.7700152  55.2450562  33.1965399
  39.1124916  55.7444239  33.9378715  37.8337765  55.1603508  33.3768606
  54.9126291  67.1292400  34.5345068  53.9617586  67.2272968  34.4848871
  55.0825119  66.2576818  34.1770768  29.5489144  54.5297575  16.0837400
  30.1383257  53.8751602  15.7091391  29.4913125  55.2113199  15.4141223
  23.8663983  69.6638823  32.1554303  23.1448054  70.1403475  32.5659299
  23.4899545  69.3048668  31.3519192  22.6161218  49.0501070   1.0784681
  22.0696831  49.8269081   1.1976914  23.2611299  49.1004276   1.7839217
  37.4448238  69.0527856  51.8269159  36.5045963  68.8735163  51.8350722
  37.5175933  69.9630534  52.1138777  48.2393122  54.6147919  11.6553092
  49.1608763  54.5530272  11.9065928  47.9853773  55.5064487  11.8934202
  29.4443388  70.4677569  41.7949857  30.1102466  71.0278761  41.3961567
  29.9045182  69.6520054  41.9925131  24.3850803   8.7491590  21.5126705
  25.1362562   8.7117338  22.1047544  24.6563172   9.3508261  20.8193755
  71.5258441   7.8852956  54.6807136  70.6528220   7.5180356  54.8192217
  72.0549450   7.5190560  55.3893401  29.9289131  34.0083075  33.0782104
  29.2902946  34.5993686  32.6794052  29.6746945  33.9678097  34.0001464
  70.5862484   8.0401675  69.4465280  70.5179867   7.2930829  70.0410369
  71.2977216   8.5691659  69.8073514  81.0225353  46.0865657  35.9287347
  81.1295018  45.2077262  35.5648221  81.0034952  45.9527270  36.8763389
  74.3722716  46.5139723  10.1017475  74.3503478  46.1477709  10.9858549
  73.6036101  47.0828009  10.0589836   7.2012079  61.0555601  35.6739593
   7.0646310  62.0027733  35.6932402   7.4166983  60.8261919  36.5779424
  80.0083646  37.9717938  65.6068011  80.0715789  38.2654063  66.5156614
  80.9171304  37.8950326  65.3161420  62.8979842  65.9690988  69.1355706
  63.1758753  66.6022527  69.7974803  62.1740357  66.3998758  68.6810801
  67.6240537  55.4608218  64.5802804  67.9366198  56.3260619  64.3159218
  68.3344218  55.1016585  65.1118948   3.8669521  14.5288817  48.2281651
   3.0782420  14.8684089  47.8052153   4.4102246  14.2150991  47.5052347
  31.3423634  43.3348370  26.0619140  31.1537409  42.7124786  26.7642856
  32.1540475  43.0138206  25.6690383  10.6347871  48.1982088   5.8289725
  11.0524726  48.6449337   5.0926268  11.3527417  47.7489996   6.2750483
  60.8684399   8.1275648  18.3360374  60.8519414   8.1549138  17.3793697
  61.7730334   8.3396822  18.5661459  32.6002383  22.0265532   0.4482304
  32.8286409  21.1881995   0.8497578  33.3623624  22.2521973  -0.0851380
  23.3774161  62.2238541   7.3631740  23.2065010  61.3604498   7.7394086
  22.9182458  62.2143221   6.5233499   0.3761847  28.9278094  70.5641060
  -0.2123588  29.6766536  70.4688080   0.1736338  28.3671586  69.8151889
  15.3147769  39.3244410  18.2814157  15.1189315  39.6233392  17.3934209
  15.9382665  38.6082053  18.1610000   1.7013533  23.0998771  50.9313025
   1.5528781  22.1865336  50.6863870   1.1307532  23.2410686  51.6867580
  72.7540329  30.6073451  27.6771498  72.3269155  29.7554231  27.5875163
  72.2408857  31.0635567  28.3440685  78.5362897   3.7036674  55.9836413
  78.1368193   3.0933206  56.6034271  78.7942443   4.4540708  56.5189745
  15.1260812   7.5589673  56.0234918  15.6653029   7.3136251  56.7753400
  14.4357020   6.8964450  55.9975042  76.7970946  34.6755695  15.7015336
  76.2936177  35.4725671  15.8674860  76.1382141  34.0182900  15.4777205
  48.4251604   2.2281282  64.7480549  48.8870397   2.9713838  64.3601479
  47.8716192   1.8950336  64.0417458  76.7119090  70.0049746  43.1703319
  77.2369305  69.2047822  43.1869020  76.0315768  69.8587095  43.8275875
  64.6603152   0.3836314  69.2348470  65.5165527   0.0903670  69.5464294
  64.1774389   0.6023423  70.0318601  10.8293382  61.0023343  56.8114902
  10.3559856  61.1780369  55.9982886  10.1422814  60.8606112  57.4627187
  22.6118333  32.3420016  70.1002587  21.7825419  32.7010886  69.7847167
  22.5693137  32.4411265  71.0513625  17.2076011  15.0252914   0.7702795
  16.5521169  14.7374165   1.4056535  16.7389834  15.6381404   0.2036709
  82.1885118  79.9328313   0.5466430  81.6517458  79.7609128   1.3203079
  82.8000698  79.1973252   0.5111711  20.2086449  38.4658027  41.1937809
  21.1315751  38.6255383  40.9965086  19.9582350  37.7524042  40.6067610
  66.1328396  22.9407088  57.3344375  65.5693475  23.5534350  57.8069569
  66.8130169  23.4912459  56.9464888  44.7363520  75.7532549   4.6306247
  44.7503948  76.3694906   5.3629392  45.1530695  76.2270737   3.9108533
  55.2326625  29.5811110  25.2304626  55.8147686  29.8375730  24.5151901
  54.4437378  29.2599516  24.7937870   4.9541783  56.9544125  35.5368209
   5.2341908  57.6691389  34.9649906   4.1842386  56.5875864  35.1022339
  19.5729899  57.6184082  24.1007423  20.1193714  56.8528461  23.9229441
  19.3182063  57.5229025  25.0184560  21.0296321  62.6985693  10.2085912
  21.9198918  63.0045128  10.3819954  20.7698488  63.1578159   9.4099432
  13.6947083  68.5981560  39.6185350  13.8518035  69.5022964  39.3463516
  14.1692138  68.5110283  40.4452658  41.7611647  77.8352499   1.7195189
  41.4044619  77.3288918   0.9897260  41.8402147  77.2029161   2.4337605
  37.5965762  45.0205326  10.0898588  36.7764974  44.8884201   9.6142018
  38.0790877  45.6575871   9.5630050   8.7057376  44.7579527  30.0022459
   9.6055710  44.6375799  30.3056312   8.2053471  44.9314833  30.7995725
  15.9276492  15.5063550  70.0743174  15.7058627  16.3198916  70.5273083
  15.4606921  15.5614917  69.2405649  14.1800785  64.8853350   9.9500853
  14.0867293  64.8574829   8.9978552  13.4892297  64.3081951  10.2754557
  57.2955221  20.9772937  67.3545109  57.5886486  20.9865777  68.2656761
  57.7165861  20.2058427  66.9753011  46.1606679  15.2433126  56.3226499
  46.5512261  14.7113816  57.0160093  46.7803297  15.9614055  56.1938586
   5.6910920  24.2867899  35.6190324   5.5442709  25.1692533  35.9595275
   5.4889286  24.3534422  34.6858025  41.9069378  64.8716175  61.1980106
  41.1294917  65.1821816  61.6620799  41.5871863  64.1581547  60.6457772
   9.8868424  41.5532748  46.0580482   9.8849685  42.3853175  45.5848302
   9.1447265  41.0697047  45.6952109  20.2749443  44.2451906  22.8838754
  20.6325197  43.6605978  22.2155762  19.9696696  43.6590433  23.5763144
  26.2983823  35.9346390  14.2294228  26.3234258  35.2283144  14.8749554
  25.5946040  35.6864285  13.6299920  70.3182885  77.3130642  10.6024837
  69.4021639  77.1328343  10.8133495  70.3104994  77.5354953   9.6715194
   9.2011158  61.8573701  58.7598051   8.2644669  61.6715347  58.8260271
   9.5866481  61.4179933  59.5177926   5.9310944  -0.2859290  50.5590548
   5.4685623   0.1765267  49.8601784   6.7222864   0.2322833  50.7063760
  45.2510929  64.8525906   9.8545587  45.5048800  65.6720638   9.4299531
  45.0422382  64.2623520   9.1305232   3.8514120  17.9474465  54.6923460
   3.7384517  17.9128425  55.6422271   4.1226108  17.0617692  54.4509758
   8.6534698  30.0541656  56.7339255   9.3884737  29.8205583  57.3008718
   8.0141575  29.3549315  56.8702509  62.1293561  60.0113821  70.9684066
  62.2155205  60.4554832  70.1248540  62.7150385  59.2571163  70.9029166
  23.2750487  38.5151935   5.4131150  22.5570846  38.7496543   6.0011518
  23.2079172  39.1408563   4.6918151   2.7637464  25.5414844  10.8912241
   2.1973932  26.2553024  10.5980682   2.3975497  24.7598481  10.4774904
  62.9270271   7.2911899  70.5296232  62.4441406   8.1163995  70.5752637
  63.8148317   7.5467364  70.2791614  65.6811049  55.6119537  43.6301947
  65.2409461  56.0557699  44.3551207  65.2460911  55.9455967  42.8455448
   4.6571374  34.8421144  21.0183358   4.4605091  34.1214943  20.4197764
   4.6515116  35.6223464  20.4638624   5.6144697   6.3883893  51.4893724
   5.8113319   5.7218949  50.8311452   4.6591670   6.3907735  51.5495493
  28.2873964  66.0099411   7.8448409  27.8184414  65.9179688   7.0154721
  28.2611513  65.1354122   8.2330912  73.1063420  13.9437787  64.4864585
  72.3317391  14.4456451  64.7401555  72.8127057  13.0327336  64.4884862
   6.4094622   4.7139899  57.9808523   6.1002118   4.2394893  58.7525024
   6.3417251   5.6372277  58.2243170  66.1186484  62.1984927  55.6508829
  66.9561497  61.9937770  55.2350547  65.4775837  61.6770618  55.1677861
  21.9891977  45.2749062  10.8875704  22.8801203  45.4864502  10.6087577
  21.4862752  45.2369785  10.0740206  42.5922367  11.8634240  29.9474682
  42.7324495  12.7646224  29.6569266  43.3954153  11.4046542  29.7011532
  55.9857082  71.1530685  39.3953896  55.3158903  70.5136108  39.6375918
  56.7688370  70.6283474  39.2292261  37.7735829  33.0400872   5.1778197
  38.1073594  33.0666327   4.2810920  38.4731770  32.6241088   5.6815684
  36.4479685  39.8531055  21.5207767  36.1108184  39.7087049  22.4049211
  35.9271812  39.2707086  20.9677625  76.3104770  40.3099696  66.8427633
  75.4553506  39.9448936  67.0701592  76.6264412  39.7541492  66.1303999
  13.3729417  25.3584640  61.3186761  14.3089492  25.4250066  61.5076115
  13.3147723  25.4353778  60.3663458  58.6012223  46.3734198  45.2225399
  58.9080360  45.4813147  45.3845453  57.6784899  46.3592148  45.4766989
  73.7573359  24.9310748  66.6207128  73.1741891  24.4136016  67.1760465
  74.6145293  24.8586051  67.0404749  70.8861844  69.6657216  67.9070296
  71.2891928  69.7327840  67.0413985  70.0473754  69.2329585  67.7478288
  82.7380356  51.9297950  48.8498892  82.1551880  52.6491229  48.6068143
  82.7459392  51.9409053  49.8069920  38.6947441  80.5756664  49.0708447
  38.1960654  79.7610378  49.1335011  38.5131383  80.9004402  48.1889296
  62.4264050  56.6293573  25.5917335  62.8057623  55.7544231  25.6742573
  62.9802561  57.0707989  24.9478292  26.2937093  24.7208667   7.7371550
  25.4512596  24.5396566   7.3204166  26.9341564  24.6316624   7.0313913
  55.5936950   3.6097651   6.5845811  56.3529652   3.6150579   7.1674305
  55.3193658   4.5257406   6.5402794  62.9747010  35.1863162  67.0687186
  63.0832878  36.0499255  66.6704409  63.8403061  34.9726264  67.4169953
  71.3763564   6.4899092  29.5713973  71.7998069   6.6254740  28.7237287
  70.4397672   6.5523653  29.3839741  71.1651278  71.0204935   8.9401734
  71.9227362  71.3185358   9.4435960  70.4993486  71.6918755   9.0892261
  25.4040337  78.2798529   2.0154330  25.9488630  77.4981642   1.9240138
  24.5271325  77.9915762   1.7621125   1.2244398   7.3429267  69.8573146
   0.8440954   6.9287221  70.6319148   2.1580417   7.1384828  69.9104362
  43.7233496  64.6400452  12.6297164  43.2051611  65.3952742  12.3516154
  44.3891048  64.5425749  11.9489074   8.2613927  76.2507248   5.0862879
   7.3447210  76.2091303   4.8138636   8.7180376  75.6671095   4.4803995
  29.3238926  63.5009670  16.1589253  29.2621875  62.9948759  15.3488076
  28.5884881  63.1944275  16.6894400  84.2162612  27.3588967  48.8999128
  84.1053789  27.5492215  49.8314238  83.3798420  27.6038980  48.5041714
  44.6866196   0.8183222  14.4483399  45.2856808   1.2512236  15.0565827
  43.8187140   1.1310225  14.7036719  25.2685046  56.4214611  10.4312170
  24.6290255  56.6665173   9.7624516  25.4170585  57.2266579  10.9270263
  74.8621175  43.4058349  37.4897446  74.7607848  43.6660926  36.5741958
  74.4361839  44.1048018  37.9859890  69.8551369  59.9817181  25.8476925
  70.0620699  59.4427538  26.6111875  69.0629339  60.4572201  26.0977936
  85.6149771  47.5499535  26.0722661  86.2718443  48.2441616  26.0190415
  85.7703130  47.0131397  25.2951336  15.5707967  38.9267588  51.9178104
  15.0043643  39.6980262  51.9409180  16.4549768  39.2754650  52.0312166
  85.1016494  79.0658617   2.4969907  84.9297353  78.5456896   1.7120703
  85.7980287  79.6688938   2.2369175  38.6456251  48.9552355  22.3927021
  39.5191169  49.1391182  22.0471120  38.7995124  48.6704254  23.2934999
  68.9259386  39.5486331  14.0760088  68.6586666  40.2885246  14.6213138
  68.5357285  38.7847471  14.5007968   5.6969824  24.4135408  20.8120394
   5.9782019  24.3528013  19.8991001   4.7640505  24.6217566  20.7619309
  84.0447626  14.3840806  56.4159490  84.0326104  13.7108819  57.0963086
  84.9733219  14.5771710  56.2866260  62.6724331  77.4045527  57.9792907
  62.4038092  76.5334594  57.6872851  61.9670598  77.6907217  58.5596253
  24.7164941  26.2203431  29.2984676  23.9538240  25.8756971  29.7629929
  25.0044107  26.9633150  29.8288727  26.1811352  59.0288210  12.1937466
  26.4530253  59.6580410  12.8618693  27.0014739  58.7054586  11.8213046
   3.9125735  16.1080186  67.9794492   3.2313163  15.4369037  68.0210211
   4.5290381  15.8666770  68.6707935  13.7437010  56.5852022  35.0686049
  13.9969540  56.9108343  35.9323525  12.8130400  56.7970037  34.9962020
  68.7445825  33.2482653  25.1966238  69.6753018  33.0427675  25.2847242
  68.3452385  32.8962927  25.9921575   4.6771619  56.9364691   2.6157269
   3.9491811  57.3195267   2.1262960   5.0833535  57.6796913   3.0616686
  55.0883865  60.8701897  28.3015990  54.1796398  60.7402563  28.5727644
  55.3771257  60.0055885  28.0094934  56.5252391  64.9495923  61.5090306
  56.0890953  65.2820289  60.7244946  56.7814914  64.0561640  61.2802191
  22.9031277  73.6828423   9.2826390  23.4533930  73.6753511   8.4994495
  22.1150160  74.1567659   9.0171105  61.6049576  58.2288551   6.7589879
  62.5220823  58.4447193   6.9278443  61.5378141  57.2952795   6.9593984
  17.2869737   6.6866509  57.6354362  18.0327851   7.1690957  57.2787310
  17.3718268   6.7816941  58.5841193  13.6941106  42.4331538  68.1386538
  13.3733375  43.3306281  68.2274099  14.2820508  42.3140780  68.8845624
  46.4048243  73.0892992   4.1306612  45.7610798  73.7543869   4.3745446
  47.2065115  73.5834122   3.9592394  38.6241245  54.1728354  30.9233713
  38.7721229  53.2628012  31.1806035  38.7303519  54.6710968  31.7337322
  84.6880588  50.3443400  50.9167041  84.9458823  49.4304053  51.0370149
  84.5723066  50.6795756  51.8057777  79.4402068  17.5295000  39.2694736
  79.3411201  18.4076338  38.9016485  78.7434762  17.0176821  38.8585615
  32.3983979  62.1359396  15.0259912  31.9713426  62.9279089  15.3525484
  33.1302691  62.4580574  14.4998372  61.4846701  18.6864440  59.2618253
  61.6708866  17.9978864  59.9001374  60.8080617  18.3129088  58.6971082
  71.6106987  48.1905079  13.7053633  72.4297142  48.3380318  14.1783142
  71.1605644  47.5139189  14.2111647   6.9156558   8.1559054  66.4744331
   6.1616809   8.5179154  66.9399478   6.9667227   8.6673419  65.6669338
  56.9213215  71.9527852  48.4560718  56.2322275  72.5533712  48.7401118
  57.7361075  72.3841774  48.7134780  48.9202166  16.4031243  41.8554640
  48.2977581  16.1786890  41.1637974  49.2360783  17.2753882  41.6196299
  57.4044149   3.3686953  11.5819573  56.9582098   4.1921644  11.3844192
  58.3351248   3.5920839  11.5714860  57.3529489   6.1693208  57.6955261
  57.9601724   5.5130689  58.0373515  56.9834859   6.5831201  58.4755887
  85.5499261  20.3705339  37.4194312  85.3656857  20.2670031  38.3530092
  84.8026317  20.8637934  37.0810819   6.4406013  62.1762753  26.2241316
   7.0831114  61.4873695  26.3938928   6.9647908  62.9677629  26.1016297
  80.5023711  10.4013567  12.8099811  80.8208459  10.1328020  11.9481909
  81.2488549  10.2667456  13.3938229   6.8591649  25.2904145  63.4617766
   7.6109035  25.7106702  63.8795115   7.2447068  24.6786992  62.8345634
   0.1878068  70.7655525   2.5150189  -0.6670573  71.1907196   2.5834480
   0.7452962  71.2491226   3.1246054   4.2483434  63.2787371  18.6341524
   4.5260656  63.2071781  17.7209270   3.2922554  63.2992363  18.5928345
  34.1611528  69.8653984   4.8033029  34.5490408  70.1236343   5.6394184
  34.1694617  68.9083958   4.8208234  47.2505617  74.6558952  48.3382893
  47.3020935  74.0939045  47.5651503  46.4523983  74.3750000  48.7857962
  25.7849693  52.5175381  31.7841578  26.1670160  53.3026552  32.1764064
  25.7578874  52.7072430  30.8463359  71.9928262  30.4864327  49.0234675
  71.7166779  30.2263944  49.9023046  71.8793759  31.4367597  49.0081419
  80.7497201  59.0304057  70.4873224  80.9212503  59.3222682  69.5919882
  80.4927525  58.1129710  70.3950817  22.9603773   3.7315111  12.7687132
  22.5489574   4.5463877  13.0567253  22.2661936   3.2637815  12.3044181
  77.0077238  42.6734511  45.1837267  76.3792452  43.2414214  44.7380223
  77.5917563  43.2766978  45.6433167  70.4984903  60.6319952  23.3554888
  69.8516893  61.3339281  23.2836199  70.2195024  60.1264763  24.1189337
  32.3323941  31.5936041  12.5422156  31.5133357  31.2558556  12.9045737
  32.0927644  31.9250250  11.6767859  23.0625129  79.0361977  13.3734524
  22.1069956  79.0912914  13.3870149  23.2726169  78.7366152  12.4889529
   1.3723652   3.0944345   7.8832831   0.4916367   3.1029603   7.5084795
   1.2982821   2.5348374   8.6563219  26.1307716  24.6257734  19.4050312
  25.4203939  23.9848804  19.4342315  25.7109785  25.4586124  19.6204019
  47.4544183  72.7287280  55.7065954  47.8965918  73.1291759  56.4551641
  48.1649701  72.3918759  55.1608123  59.1182375  52.1528673  24.7564697
  60.0312185  52.4293518  24.8355222  58.6766386  52.8982353  24.3494654
  62.0937412   9.9517088  41.4925909  61.5440267   9.3197279  41.9558859
  61.6899007  10.8000021  41.6757345  82.8003278  73.9592552  19.2909622
  82.3922252  74.1078472  20.1439595  82.3425817  73.1972456  18.9359343
   3.6599663  79.2938709  13.2772803   3.2901460  78.4652853  12.9724717
   2.9384714  79.9188375  13.2059085  51.1219168  61.5853786  30.3717422
  51.4212322  62.3383427  30.8813357  51.8117142  61.4457798  29.7229552
  30.2026635   2.0683317  33.7386274  30.3299841   1.6373186  32.8934908
  29.9777479   2.9715471  33.5153866  65.9509182  79.5561218  17.8160524
  65.0547266  79.3401098  17.5583470  66.4905262  79.2466831  17.0885205
  86.4601097  37.4595849  56.9072272  85.6801304  37.4149959  56.3541641
  86.6204414  36.5528695  57.1687426  77.7815857  68.2537985  20.1836777
  78.3847358  68.3949232  20.9134221  78.1025680  67.4588442  19.7579467
  62.2802064  16.7024343  54.8206212  61.9053945  17.5678079  54.6566774
  62.4081445  16.6725461  55.7687618  71.8193769  53.9087200   9.2804718
  72.4318695  54.4096661   9.8191202  72.2940731  53.1071424   9.0605450
  68.6466217  49.3040705  14.8066592  68.5120392  48.6903811  14.0845072
  68.1281757  48.9443684  15.5264235  37.4126396  36.9355075  61.6884239
  37.1572456  36.0347383  61.4893659  36.5848145  37.4132411  61.7404248
  41.2905550  38.6919522  22.4161911  41.0978889  38.0058432  23.0552268
  40.4463911  39.1137052  22.2557449  38.4142415  75.0280988  51.7892172
  38.0808739  75.4343783  50.9891953  39.3482522  74.9015843  51.6223361
  71.1934080  38.2211280  15.3865850  70.3674688  38.5300016  15.0142229
  71.8304839  38.8943815  15.1476312  45.7259473  27.2736327  64.0674956
  46.6664514  27.4244945  64.1619672  45.3198788  27.9335086  64.6295460
   0.4314954  39.8477428  65.9112998   0.8829410  39.4256751  65.1803525
  -0.3696888  39.3365352  66.0253103  11.5728903  51.7283869  31.2550688
  11.9883561  51.2112951  30.5649734  11.5938890  51.1605883  32.0253873
  81.9961419  58.4708548  32.0884228  82.6566720  58.7557697  31.4569497
  81.2528833  59.0548229  31.9374990  31.3357735  15.5934215  16.1961567
  31.3413191  16.3408566  16.7941058  30.5125022  15.6776059  15.7151496
  31.3063470   4.1190557  12.9176831  30.4163306   3.8844042  13.1804466
  31.4329665   3.6761885  12.0785928  81.2063592   9.6623640  17.2957766
  81.3585179  10.5341940  17.6604545  81.6419023   9.0678816  17.9066133
  45.9475851  54.5561743  29.6784139  45.2256584  54.6109295  30.3045583
  46.5668297  55.2263403  29.9676299  35.4946446  65.2601814  17.8493142
  34.7165680  64.7867727  17.5548458  35.6056476  64.9942446  18.7621069
  66.0421603   3.8009386   5.6227380  66.9963449   3.8554506   5.6756175
  65.7301610   4.3911009   6.3087362  68.7261432   0.9572630  23.3343458
  69.0549033   0.0896959  23.5698700  68.4675758   1.3498907  24.1681409
  46.2897389  15.9549456  10.4895103  47.1629005  15.5688028  10.5581844
  46.4408117  16.8243055  10.1185346  63.0652094  74.8046637  34.4685125
  62.8603315  75.1535225  35.3360105  62.4631929  74.0687275  34.3580103
   6.7201763  72.4208307  15.6191969   7.3895150  72.4111319  16.3033915
   6.4973074  73.3459044  15.5152631  34.8942542  45.2943230  36.4063549
  34.7275043  46.2353134  36.3519859  34.2206168  44.8993254  35.8527970
  79.7197526  17.3947172  28.3758116  78.8196748  17.5955610  28.1193948
  80.1879733  18.2235365  28.2755589  20.9843547  29.3012445  38.7380971
  21.0476834  29.1985623  37.7885284  20.0783736  29.5702140  38.8900270
  49.8710155  16.3537121   3.3490676  48.9778233  16.1661828   3.0604947
  49.8272038  16.3147354   4.3044698  25.2776914  18.3001928  15.3642106
  25.7002728  18.6942892  16.1273277  25.0247096  17.4244146  15.6561530
  48.2517306  73.7564098  67.3131521  47.8767459  74.3700873  67.9448308
  48.3428160  74.2667520  66.5084864  16.7297328  59.1603231   2.7517363
  16.3423145  58.7791252   3.5396624  16.1640799  59.9035406   2.5422078
  32.9456758  39.0757895   0.7169446  32.2268152  38.6795115   1.2093233
  33.7299156  38.8571501   1.2203303   6.9776398  40.7668781  15.5365098
   6.4821815  41.4238358  15.0474691   7.8404951  41.1618805  15.6617558
  30.0675494  49.0684287  69.8780208  30.2717740  49.0542571  70.8130726
  29.8841435  48.1548469  69.6590448   3.3655245  20.3951089  61.3469066
   3.0466229  21.2312858  61.6865267   3.4955794  20.5504958  60.4113998
  44.1161299  62.8008890  30.2846336  43.1861687  62.7911949  30.5111432
  44.1908550  62.1881628  29.5530510  47.8525727   2.4725752   6.5710008
  47.4836760   2.1642141   5.7433170  47.1168237   2.4535494   7.1830004
  64.5704010  36.0329787  59.8222842  64.4067237  36.7865483  59.2552056
  63.7882403  35.4890554  59.7295262  25.0706100  57.6326895  28.1161523
  25.7392454  57.9520893  28.7220740  25.2722216  56.7035770  28.0050731
  84.4987211   3.2067220  57.1511783  83.9116392   3.7424771  57.6845910
  85.2956352   3.1297271  57.6758029  79.2405448  13.5636537  57.7692260
  78.5077223  14.0581910  58.1361534  79.9915633  14.1512696  57.8523554
  57.7765220   0.3961782  32.5475550  57.5499886   1.2600927  32.2032166
  58.4616535   0.5679350  33.1935596  81.7368868  38.6046481  14.6971774
  82.0415568  38.6756730  15.6018114  82.4874961  38.8774323  14.1695344
  32.4482608  50.2899933   3.8517189  32.8344226  49.4684553   4.1553310
  32.8545713  50.4449034   2.9989898  25.6290340  47.1422863   6.9531441
  25.4355574  46.2205267   7.1239084  25.1161885  47.3541594   6.1731887
  61.1079972   7.2775869  42.2630358  60.4343217   6.5977602  42.2480154
  61.8033546   6.9136457  42.8109932   9.3911946  64.5256424  34.2328691
   8.6203831  64.5344973  34.8003244   9.2744261  65.2823591  33.6584330
  58.2776722  18.3706681  66.4457663  57.8624101  17.6030557  66.8389075
  57.8035651  18.5055797  65.6252463  66.0378687  76.4176118  67.4341967
  66.5391080  75.8116471  66.8884875  65.8345119  77.1507895  66.8533956
  16.7636011  74.7910357  18.7554729  16.7743871  75.7407618  18.8743722
  16.1120412  74.6428394  18.0700994  25.4396820  50.5120468   7.0112711
  26.0702920  49.8030615   7.1373749  24.6000624  50.1354933   7.2748572
   0.6258955  11.8812494  18.1138146   0.2341977  12.5272207  18.7016308
  -0.1052389  11.3221197  17.8510427  34.6215582  63.4312677   8.3367765
  34.7539449  62.5943089   7.8915817  35.4538012  63.6023378   8.7776160
  52.2357258  33.2911365  66.4986773  52.6643476  33.2185332  65.6458916
  51.4291391  33.7749259  66.3209246  27.6915932  67.2866821  15.5721200
  27.5996065  66.3557196  15.7748020  27.4264455  67.3595333  14.6552670
  19.2387466  80.7239496  67.9414957  19.6869914  80.0584828  68.4634729
  19.9450068  81.2503612  67.5669028  42.8364992  59.8582220   2.6126549
  42.3593855  59.0795708   2.3257780  42.1600151  60.5262661   2.7236646
  40.7635996  20.5256764  63.1605508  41.2767920  20.4534595  62.3557844
  41.2865314  20.0694816  63.8198377  84.1895946  75.3643227  48.1767225
  83.3824768  75.7796669  47.8729439  84.5527917  75.9821796  48.8112068
  75.7446044  12.6138239  13.3513451  76.3622802  13.1993608  13.7893438
  75.9003966  12.7563124  12.4177194  24.8903894  73.8716030  28.5587811
  24.6023083  74.0463352  29.4547248  24.0809774  73.8400316  28.0487943
  72.9037333  70.1720190  26.0200572  72.3392582  69.4770002  26.3584971
  72.6441145  70.2664661  25.1035905  22.2402978  61.5850401  32.4606681
  22.1586394  62.4901962  32.7610970  22.7524519  61.1514091  33.1432343
  20.4296691  57.6219623  59.0696420  19.6072013  57.8069655  59.5230164
  20.7734401  58.4841411  58.8357701  59.3939209  55.0998497  19.6459365
  59.4607782  56.0101032  19.9343836  60.0850296  54.6447611  20.1270723
  27.0578045  23.7159662  14.8655272  27.2721555  23.4524660  15.7604313
  26.9057473  22.8918009  14.4030881  35.3279924  45.1545048   8.5975897
  35.2303529  45.0672483   7.6493889  34.4911265  44.8553181   8.9530814
  29.9209285  77.6995373  28.6854267  30.3045702  78.3240414  28.0697584
  29.3558526  77.1470928  28.1453109  35.9458390   4.6839647  31.6913748
  35.7815876   5.4094343  31.0889244  36.6713467   4.9860125  32.2378469
  32.9630065  68.3575821  32.2632670  32.7423048  67.4346876  32.3889327
  32.3351908  68.8305140  32.8095388  47.4536460  25.7299070  11.7666984
  47.0662206  26.0279016  12.5897026  47.6565223  26.5358667  11.2918198
  48.8819075  68.0338669  14.5743060  48.7378836  67.0931339  14.4717729
  48.0930424  68.3503723  15.0144708  75.7650518  50.3091908  18.1705391
  76.3646984  50.7383585  18.7808430  75.5633926  49.4695234  18.5834885
  78.7642399  78.5598814  62.3259093  78.4350030  78.5004866  63.2227411
  78.7359110  79.4946324  62.1217807  22.6445723  80.6114578   4.6033221
  22.2974825  79.7198105   4.6302751  21.9793820  81.1408138   5.0432503
  43.6386824  81.3461494  24.4125700  43.1749392  81.5632439  25.2212977
  43.3283663  81.9919014  23.7777948  62.0595121  80.1338482  35.8393526
  62.8309059  79.5785379  35.7261491  61.3181257  79.5479488  35.6866980
  56.5471315  69.6044254  26.6307688  56.0524273  70.4238749  26.6300797
  55.9941673  68.9912319  27.1149802  63.1992739   3.1428080   3.3775395
  62.8233092   2.5008802   3.9798763  64.0838783   2.8202562   3.2053101
  69.7189257  43.0038516  69.7743593  69.0803632  42.2963779  69.8634975
  70.4960928  42.6841895  70.2326809  13.9752555  73.7543964  46.9035435
  13.0861497  73.4089470  46.9834661  13.9390087  74.3355799  46.1438417
  81.9799321   2.7462320  12.4755299  81.3691895   3.1003695  11.8291497
  82.5483745   2.1624212  11.9732559  31.9631624  71.3348579  11.9717431
  32.6687694  71.2541008  12.6134801  31.2091255  70.9207392  12.3914647
  13.4043589  10.3475885  20.7730222  13.3258286   9.6227102  21.3931918
  14.2720070  10.7146864  20.9422946  70.7418505  78.9257872  69.7557956
  71.1627499  78.8004076  68.9052917  69.8233668  78.7034070  69.6035978
  34.7418237  72.0347548  30.7146192  35.6016278  72.4526691  30.7626843
  34.7164941  71.4510775  31.4728498  28.5487485  62.6173687  11.9610345
  27.8850079  63.3070564  11.9653392  29.3659592  63.0726910  11.7583454
  31.9258523  69.3155670  26.9651771  31.5147328  68.7839317  26.2835765
  31.2645721  69.3740797  27.6547527  73.7581668  15.2316539  67.5476776
  74.5334670  15.7578485  67.3520781  73.9811751  14.3530623  67.2401478
  31.5146470  65.3713226   2.0767850  32.4229026  65.1919508   2.3199460
  31.0669899  64.5324945   2.1872514  65.3569096   9.2986040  14.6229136
  65.2483528   8.4694891  14.1570711  65.0153296   9.9587278  14.0197587
  39.7930360  70.5388021   1.2190830  40.4601049  69.8884439   0.9993473
  40.2754784  71.2360907   1.6632375  53.6815899  19.0380983  34.7058201
  53.6711114  18.3513479  34.0391135  53.7752336  19.8516302  34.2102242
  56.3295715  13.2700663   8.0281407  55.5166214  13.7603312   7.9057270
  56.6927116  13.1844931   7.1466428  72.1724653  67.1592474   7.3255706
  72.2588396  68.0073881   6.8903339  72.4653149  66.5238714   6.6722918
   5.8331964  77.8821564  35.8915019   6.6829870  78.2746983  35.6915092
   5.2326772  78.2756042  35.2584100  28.9950902  72.1040122  57.1020641
  29.8828465  72.3867385  56.8825557  28.9182813  72.2645251  58.0425801
  55.0245714  55.2169847  21.8106794  54.9214077  56.0595131  21.3682652
  54.4780779  55.2888823  22.5932431  77.3690742  20.7473307  12.1397746
  77.2414058  20.0848608  12.8187883  77.7342456  21.4999227  12.6050568
  41.9824743  78.8720417  34.6357822  42.4155426  78.6255503  35.4530501
  42.6965618  78.9667273  34.0054274  18.9233930  33.7668149  70.6153363
  19.4240481  34.0084188  69.8361025  18.0126769  33.7554328  70.3208896
  57.7853983  31.5757208  24.3624139  57.3884695  31.4361315  25.2221775
  58.6916750  31.8174200  24.5534039  66.4703989  81.1071014  12.3121059
  65.8199072  81.4652729  11.7081141  66.6826487  81.8358707  12.8952622
  19.6328652  80.9529781  17.0280755  18.6896408  80.7904148  17.0395422
  19.9416780  80.5155182  16.2346673  61.0266209  73.7782860   7.7470320
  60.7366419  73.4270763   6.9051319  61.9780207  73.8435030   7.6644456
  47.5492001  57.7665520   0.8024443  47.7714443  57.0911455   0.1616128
  46.8110180  58.2339954   0.4115267  39.7724056  39.2207146  11.6135716
  39.5082784  39.6991873  12.3994029  39.9574924  38.3342862  11.9237638
  83.6545763  40.6351630  64.8166289  84.3048486  41.0512797  64.2507460
  84.0815649  39.8357360  65.1245745  73.8981030  33.5426776  51.7849340
  73.2417736  33.5622088  51.0884573  73.4152219  33.7824122  52.5758745
  19.3903303  30.8486891  13.8074005  18.9856195  29.9861193  13.8991344
  18.6683238  31.4271045  13.5616851  38.9467692  19.2990577   9.4438249
  39.6951580  19.1127551   8.8768721  38.3247352  18.5955858   9.2582637
  84.6829365  17.1651018  31.4095807  85.4698391  17.3042274  30.8826447
  84.6589855  17.9130876  32.0063853   7.6328009  26.3836765   1.2799469
   6.9265336  26.6520166   0.6922298   8.3989000  26.8665671   0.9698818
  51.1223404  66.5351259  69.1538464  50.7369796  66.7162549  70.0111220
  50.9673516  67.3329436  68.6481805  71.9046244   8.9951961  34.0550556
  72.4172268   8.2131974  34.2598690  70.9937093   8.7096660  34.1253175
  28.6869884  36.4457202  12.1556973  27.9617000  36.4461541  12.7803469
  28.6146593  35.6042194  11.7052782  29.6001810  65.8317554  47.7703919
  29.1274842  66.5728175  48.1493630  29.0421260  65.0749242  47.9493131
  32.5974328  55.0157706  64.8477562  32.5291879  54.0837829  64.6404381
  33.5376555  55.1950042  64.8383220  47.7208328  77.1568775   0.4892335
  47.9068041  76.2489748   0.2497453  46.8978691  77.3583126   0.0438336
  28.5343456  30.1292706   3.7022442  28.8000035  29.6261573   2.9324797
  28.5990286  31.0431767   3.4250772   8.4619123  23.7388420   0.7862252
   9.3955100  23.6271262   0.6069296   8.3713049  24.6633625   1.0170581
  28.5177149  74.7146666  29.1815056  27.9378814  75.2158582  28.6080660
  28.4281430  75.1332032  30.0376810  34.1561270  29.0190077   1.8565293
  34.5646095  29.8730397   1.9979751  33.3585954  29.2135525   1.3642620
  63.4708635  68.2618820  66.6291328  64.1168706  68.7743008  67.1152740
  62.7563039  68.8758814  66.4598887  76.4742801  14.9491803  35.7274141
  77.2614834  15.4890029  35.6557645  76.3873527  14.5371549  34.8678150
  28.9502835  39.9119782   1.6078487  29.3078876  40.7853746   1.4480749
  28.0522370  39.9571443   1.2796687   3.9447958   1.0180060  55.4241921
   4.0482361   0.4331748  54.6735253   3.0065209   1.2049310  55.4546811
  20.9757287   4.0675036  41.3530387  21.6952474   3.8198010  41.9336976
  20.1880366   3.9494769  41.8839278  35.8764458  74.3064070  13.5248423
  35.8350253  73.3546686  13.4314883  34.9645424  74.5763254  13.6334956
  79.6383778  76.3670981  45.8240523  79.0565507  75.6834948  46.1563100
  79.0497510  77.0162665  45.4389157  36.3012884  64.1357052  69.3005514
  36.7744599  64.7013342  69.9108014  36.0406891  63.3801257  69.8272600
  48.1331317  55.5929601  69.3691373  47.4680332  56.2566566  69.1864270
  47.6476816  54.8708880  69.7681117  26.9875026  60.9489775  13.9175284
  27.7222681  61.1871052  13.3521533  27.3967505  60.6596375  14.7330236
   5.2988011  34.1180245  57.1787276   5.8926231  33.6556546  56.5872719
   5.1746160  33.5158937  57.9123821   1.7262329  82.2454631  60.0669505
   2.0439924  81.9584214  60.9230282   0.9551586  81.7024314  59.9032738
  20.0412423  13.5376613  34.0053739  20.6352193  14.1153829  33.5261382
  19.9081523  12.7920930  33.4200181  35.0208449  81.7299175  36.7417789
  35.4102468  81.3160324  35.9715223  34.1209579  81.9245243  36.4799213
  53.1438486  73.1797611  45.2534904  53.1826774  72.7049863  46.0837402
  53.7879936  72.7420818  44.6969451   6.4361436   7.5077741  58.3563735
   5.5376846   7.7200524  58.6092450   6.5737969   7.9850738  57.5381615
  75.4080216  66.4769113  60.5135908  75.1375357  67.3742020  60.3188171
  74.8417298  65.9320652  59.9670662  45.3918982  24.0548849  11.1226916
  44.4756222  24.2126608  10.8951366  45.7611799  24.9288726  11.2492144
   6.3291509  28.4637229  54.8677172   6.0203607  28.2334249  55.7439830
   5.5490763  28.7852685  54.4156982  58.7835662  81.3027179  68.6613892
  58.4840314  82.1155488  69.0685927  59.5566599  81.5577828  68.1579043
  18.3623660  48.7312937   5.6829959  18.1506062  48.5999346   6.6071898
  19.2104077  49.1751051   5.6923217  80.4738578   9.4980495  47.1439232
  80.7868991   9.5002191  46.2393607  79.9953231   8.6735122  47.2297897
  17.1744506  70.0972926  60.7549073  18.0076687  70.5665505  60.7970669
  17.1591679  69.5644414  61.5499343  75.8361301  19.7793548  66.6498997
  75.3022275  20.1171414  65.9308173  76.4994833  20.4543607  66.7932816
   2.1967854  53.3937693  15.3931296   1.5053640  53.5110569  16.0445988
   1.7695186  52.9338121  14.6705568  31.1768246  38.4333682  21.8906879
  31.0086870  37.4910665  21.8957925  31.4728880  38.6190128  20.9995556
   4.4232237  39.3191314  38.1267262   5.1567298  39.4870043  37.5351024
   4.7653061  38.6871505  38.7590337   6.9883425  38.5955970  26.2552561
   7.4121863  37.7484242  26.1178460   7.6142508  39.0941588  26.7805209
  81.8940315  13.3729808  55.0308337  81.5256724  13.0914800  55.8682706
  82.7166638  13.8034694  55.2636220  50.8948380  23.9629190  54.0492489
  50.8940179  24.5532577  54.8027279  51.1730344  24.5112674  53.3156611
  52.9319525  37.9699636  15.8198202  52.8216076  37.1628499  16.3224399
  52.2167921  38.5344958  16.1132228  18.1175334  34.9171607  46.7251219
  17.8684480  34.7384183  45.8183493  18.7681252  34.2460696  46.9315256
  42.5787115  37.8546834  19.7774363  42.3073149  38.1609559  20.6427550
  43.3626318  37.3311639  19.9436522  18.6997116  55.8421278  30.8893132
  17.8931105  56.3573170  30.9035897  19.3334031  56.3759756  31.3685560
  20.1144004  30.3377056  27.0526552  19.6476948  30.0802660  26.2575817
  21.0395861  30.3002739  26.8100452  36.8586612  75.0464153  43.0004215
  36.0226345  75.4449272  42.7585888  36.6441393  74.1314745  43.1823349
  45.4287100  66.9967365  40.5184174  46.1673450  66.9473648  39.9116111
  45.7926226  66.7257786  41.3612556  69.6792647  19.5984904  59.3343176
  69.5525536  19.2006843  58.4729673  70.3008947  20.3099219  59.1804661
  68.1576459  80.8669459  63.6070110  68.1179730  81.0127985  62.6618202
  67.2808329  81.0885608  63.9205660  20.1922488  35.4303455  26.5500975
  20.8681369  35.9173322  26.0786605  20.3338456  35.6536365  27.4700570
  42.6286221  71.6088676   3.8567156  42.8002834  72.3975420   4.3712616
  41.6774368  71.5944958   3.7505227  44.3548393  53.7166834   6.3909954
  43.5659838  53.5283470   6.8993926  44.2636299  53.1837797   5.6011057
  40.1323871  81.2571084  65.1185705  40.4485027  81.2374436  64.2152895
  39.2875902  80.8081948  65.0865026  43.1370640  49.4709301  14.2791414
  42.8617954  48.5714722  14.1018367  42.5355577  50.0109529  13.7665033
  70.3512669  20.2082944  34.6459103  69.9768448  21.0755038  34.4910216
  69.6473455  19.7152925  35.0674248  11.5958300   5.2388220  25.3173137
  10.7545700   4.9506311  24.9631143  11.7761841   6.0631781  24.8654866
  47.8088951  48.8624477  22.1336150  48.1262541  48.3116150  21.4180040
  47.1995163  49.4707727  21.7154860  71.5724175  13.5529165   2.9606158
  71.3243669  13.5186987   2.0367470  72.4651092  13.8983278   2.9562977
  59.0814209  61.3994217  11.5335321  58.1360912  61.3805389  11.6826332
  59.4139719  60.6374264  12.0078743  79.6254429  52.5205771  63.6988212
  80.5626998  52.5248019  63.5044904  79.4740638  51.6796081  64.1301938
  55.6868649   8.3048528  20.5873084  56.0187817   7.6844478  21.2362766
  56.4690351   8.6167330  20.1321483  42.4825096  21.5902686  23.5371470
  42.9724121  21.1754346  24.2471743  42.1767139  20.8602953  22.9987597
  49.4370601  20.1187484  69.5460423  48.5090354  19.8859994  69.5172328
  49.6664247  20.0743310  70.4742937  61.1487865  48.6150742  15.9444690
  61.2449312  49.0753651  15.1107287  62.0446348  48.3995342  16.2037587
  43.9416055  44.4458600  63.6277284  44.8269395  44.8024511  63.5552122
  43.4844391  45.0557306  64.2067696  50.6357431  79.6160412   5.3823221
  51.3116598  79.3451881   6.0036123  50.3117895  80.4476547   5.7282966
  68.9626548  31.0506455  48.3042850  68.5670778  31.7265431  48.8546624
  68.2793114  30.3867690  48.2118692  42.3599195  37.2150517   8.2185358
  42.7223682  37.4836993   7.3743254  41.5080166  37.6492834   8.2625347
  56.4633560  29.8010492  22.2537732  56.7362642  30.5717826  22.7514887
  57.1885872  29.6358633  21.6512895  43.0133486  67.8801966  20.4310274
  43.0074358  68.8065529  20.1900673  42.0900869  67.6581526  20.5515051
  44.5929527  78.6733150  15.3602254  45.2940369  78.9224195  14.7580147
  44.7970629  79.1390371  16.1711943  18.4477098  14.4139497  70.1490440
  18.2524020  13.7257545  70.7850270  17.6021058  14.8282544  69.9771942
  77.0463237  34.8624293  61.8081893  76.9525966  34.9018113  60.8564033
  77.9858122  34.9640052  61.9607510  55.5166768  27.0765941  64.4933732
  55.5825217  27.7771489  63.8444330  56.1045066  27.3473708  65.1986160
  31.7473269  43.4749031  13.6244333  31.0962057  42.8119898  13.3946121
  31.3069248  44.3092918  13.4629560  43.6154079  45.5871820   0.9946637
  42.9151297  46.0660934   0.5514012  43.3407211  44.6710539   0.9560283
  85.5413184  28.1715743  40.6777181  86.3553581  27.8408496  40.2979888
  85.4477343  27.6904408  41.4998974  30.3625733  23.1987254  62.4584009
  29.8076493  23.5677163  63.1455244  30.0230557  23.5771052  61.6473593
  47.2830343  67.5355101  11.0112345  46.7234802  67.4652767  10.2377975
  46.6929865  67.3797369  11.7486703  84.1754136  21.0947625  63.2970067
  84.7405109  21.7537944  63.7002071  83.8961467  20.5405061  64.0257354
  50.3646040  70.6683111  19.8167181  50.4974413  70.3043222  18.9414477
  50.2082539  69.9047947  20.3724384  23.0988318  30.8987729  64.5024146
  23.4008891  29.9940888  64.4215139  23.6714799  31.3956372  63.9180948
  24.5461440  53.7635279  20.8457637  24.5583630  52.9904413  20.2814746
  24.0612721  53.4852791  21.6227508  35.7907200  36.7418289  28.0586720
  36.4275146  36.5218067  28.7386084  35.0282621  36.1992836  28.2600093
  27.2103024  66.0109472  20.3609657  26.5964508  66.4339304  19.7605467
  26.6549587  65.6226587  21.0370278  78.0225627  70.8784329  71.0935307
  77.7069823  71.2292468  70.2607228  78.9568154  71.0865891  71.1024757
  87.0174315  87.0174315  87.0174315 109.4712190 109.4712190 109.4712190
